Title
55513
    1DOPE     N    1   3.830   3.870  16.798
    1DOPE   HN1    2   3.848   3.842  16.897
    1DOPE   HN2    3   3.854   3.970  16.785
    1DOPE   HN3    4   3.728   3.853  16.782
    1DOPE   C12    5   3.913   3.777  16.715
    1DOPE  H12A    6   4.020   3.804  16.731
    1DOPE  H12B    7   3.889   3.790  16.607
    1DOPE   C11    8   3.889   3.632  16.761
    1DOPE  H11A    9   3.973   3.568  16.729
    1DOPE  H11B   10   3.798   3.593  16.710
    1DOPE     P   11   3.988   3.611  17.003
    1DOPE   O13   12   4.026   3.469  17.009
    1DOPE   O14   13   3.944   3.676  17.128
    1DOPE   O11   14   4.094   3.700  16.929
    1DOPE   O12   15   3.867   3.625  16.902
    1DOPE    C1   16   4.234   3.704  16.955
    1DOPE    HA   17   4.269   3.619  17.017
    1DOPE    HB   18   4.257   3.797  17.011
    1DOPE    C2   19   4.318   3.710  16.823
    1DOPE    HS   20   4.421   3.740  16.852
    1DOPE   O21   21   4.260   3.812  16.739
    1DOPE   C21   22   4.313   3.832  16.621
    1DOPE   O22   23   4.403   3.770  16.568
    1DOPE   C22   24   4.240   3.950  16.556
    1DOPE   H2R   25   4.179   4.001  16.634
    1DOPE   H2S   26   4.172   3.909  16.479
    1DOPE    C3   27   4.331   3.569  16.756
    1DOPE    HX   28   4.365   3.503  16.839
    1DOPE    HY   29   4.414   3.572  16.683
    1DOPE   O31   30   4.208   3.516  16.699
    1DOPE   C31   31   4.229   3.401  16.632
    1DOPE   O32   32   4.338   3.351  16.613
    1DOPE   C32   33   4.099   3.335  16.589
    1DOPE   H2X   34   4.114   3.225  16.601
    1DOPE   H2Y   35   4.017   3.366  16.657
    1DOPE   C23   36   4.340   4.052  16.496
    1DOPE   H3R   37   4.423   4.068  16.567
    1DOPE   H3S   38   4.289   4.150  16.482
    1DOPE   C24   39   4.396   4.007  16.361
    1DOPE   H4R   40   4.435   3.904  16.370
    1DOPE   H4S   41   4.483   4.070  16.331
    1DOPE   C25   42   4.292   4.017  16.248
    1DOPE   H5R   43   4.268   4.124  16.232
    1DOPE   H5S   44   4.199   3.964  16.279
    1DOPE   C26   45   4.340   3.956  16.116
    1DOPE   H6R   46   4.437   4.005  16.093
    1DOPE   H6S   47   4.270   3.981  16.034
    1DOPE   C27   48   4.357   3.803  16.118
    1DOPE   H7R   49   4.408   3.772  16.212
    1DOPE   H7S   50   4.423   3.774  16.034
    1DOPE   C28   51   4.227   3.725  16.098
    1DOPE   H8R   52   4.191   3.739  15.993
    1DOPE   H8S   53   4.150   3.768  16.165
    1DOPE   C29   54   4.250   3.580  16.133
    1DOPE   H9R   55   4.286   3.567  16.236
    1DOPE  C210   56   4.234   3.470  16.058
    1DOPE  H10R   57   4.259   3.373  16.104
    1DOPE  C211   58   4.188   3.457  15.916
    1DOPE  H11R   59   4.149   3.555  15.879
    1DOPE  H11S   60   4.098   3.391  15.912
    1DOPE  C212   61   4.289   3.407  15.808
    1DOPE  H12R   62   4.335   3.505  15.786
    1DOPE  H12S   63   4.229   3.375  15.720
    1DOPE  C213   64   4.403   3.302  15.836
    1DOPE  H13R   65   4.352   3.222  15.894
    1DOPE  H13S   66   4.477   3.349  15.904
    1DOPE  C214   67   4.480   3.222  15.719
    1DOPE  H14R   68   4.400   3.161  15.672
    1DOPE  H14S   69   4.530   3.146  15.783
    1DOPE  C215   70   4.608   3.250  15.617
    1DOPE  H15R   71   4.648   3.147  15.606
    1DOPE  H15S   72   4.688   3.297  15.680
    1DOPE  C216   73   4.609   3.315  15.467
    1DOPE  H16R   74   4.623   3.424  15.456
    1DOPE  H16S   75   4.507   3.296  15.429
    1DOPE  C217   76   4.666   3.283  15.325
    1DOPE  H17R   77   4.641   3.179  15.295
    1DOPE  H17S   78   4.776   3.300  15.318
    1DOPE  C218   79   4.594   3.363  15.212
    1DOPE  H18R   80   4.607   3.473  15.223
    1DOPE  H18S   81   4.484   3.343  15.215
    1DOPE  H18T   82   4.629   3.332  15.112
    1DOPE   C33   83   4.065   3.365  16.441
    1DOPE   H3X   84   3.977   3.302  16.413
    1DOPE   H3Y   85   4.148   3.336  16.374
    1DOPE   C34   86   4.029   3.512  16.421
    1DOPE   H4X   87   3.973   3.548  16.510
    1DOPE   H4Y   88   4.122   3.572  16.414
    1DOPE   C35   89   3.941   3.537  16.298
    1DOPE   H5X   90   3.847   3.478  16.305
    1DOPE   H5Y   91   3.996   3.502  16.207
    1DOPE   C36   92   3.909   3.685  16.285
    1DOPE   H6X   93   3.998   3.744  16.316
    1DOPE   H6Y   94   3.826   3.711  16.354
    1DOPE   C37   95   3.872   3.725  16.142
    1DOPE   H7X   96   3.953   3.698  16.072
    1DOPE   H7Y   97   3.782   3.667  16.112
    1DOPE   C38   98   3.839   3.874  16.132
    1DOPE   H8X   99   3.765   3.896  16.211
    1DOPE   H8Y  100   3.788   3.888  16.034
    1DOPE   C39  101   3.954   3.970  16.147
    1DOPE   H9X  102   3.998   3.973  16.248
    1DOPE  C310  103   4.005   4.049  16.051
    1DOPE  H10X  104   4.091   4.113  16.074
    1DOPE  C311  105   3.957   4.059  15.909
    1DOPE  H11X  106   3.851   4.029  15.897
    1DOPE  H11Y  107   3.966   4.165  15.877
    1DOPE  C312  108   4.040   3.978  15.810
    1DOPE  H12X  109   3.978   3.963  15.718
    1DOPE  H12Y  110   4.064   3.877  15.848
    1DOPE  C313  111   4.166   4.055  15.769
    1DOPE  H13X  112   4.138   4.159  15.742
    1DOPE  H13Y  113   4.239   4.060  15.852
    1DOPE  C314  114   4.230   3.990  15.648
    1DOPE  H14X  115   4.152   3.974  15.571
    1DOPE  H14Y  116   4.265   3.888  15.673
    1DOPE  C315  117   4.341   4.074  15.582
    1DOPE  H15X  118   4.286   4.148  15.519
    1DOPE  H15Y  119   4.383   3.997  15.514
    1DOPE  C316  120   4.454   4.146  15.662
    1DOPE  H16X  121   4.490   4.086  15.749
    1DOPE  H16Y  122   4.398   4.228  15.712
    1DOPE  C317  123   4.580   4.210  15.590
    1DOPE  H17X  124   4.549   4.249  15.490
    1DOPE  H17Y  125   4.609   4.297  15.651
    1DOPE  C318  126   4.718   4.141  15.572
    1DOPE  H18X  127   4.795   4.213  15.537
    1DOPE  H18Y  128   4.752   4.097  15.669
    1DOPE  H18Z  129   4.716   4.059  15.497
    2DOPE     N  130   4.562   4.417  16.891
    2DOPE   HN1  131   4.583   4.505  16.941
    2DOPE   HN2  132   4.653   4.377  16.860
    2DOPE   HN3  133   4.504   4.432  16.806
    2DOPE   C12  134   4.506   4.315  16.986
    2DOPE  H12A  135   4.395   4.321  16.987
    2DOPE  H12B  136   4.545   4.339  17.087
    2DOPE   C11  137   4.558   4.177  16.946
    2DOPE  H11A  138   4.519   4.149  16.846
    2DOPE  H11B  139   4.522   4.102  17.019
    2DOPE     P  140   4.779   4.052  16.895
    2DOPE   O13  141   4.687   3.937  16.908
    2DOPE   O14  142   4.909   4.048  16.966
    2DOPE   O11  143   4.801   4.097  16.743
    2DOPE   O12  144   4.701   4.181  16.946
    2DOPE    C1  145   4.883   4.214  16.724
    2DOPE    HA  146   4.981   4.203  16.776
    2DOPE    HB  147   4.834   4.304  16.767
    2DOPE    C2  148   4.920   4.246  16.575
    2DOPE    HS  149   4.974   4.342  16.573
    2DOPE   O21  150   4.806   4.254  16.489
    2DOPE   C21  151   4.702   4.326  16.517
    2DOPE   O22  152   4.685   4.402  16.611
    2DOPE   C22  153   4.594   4.293  16.413
    2DOPE   H2R  154   4.518   4.236  16.470
    2DOPE   H2S  155   4.637   4.227  16.335
    2DOPE    C3  156   5.016   4.137  16.515
    2DOPE    HX  157   5.098   4.121  16.589
    2DOPE    HY  158   5.063   4.178  16.424
    2DOPE   O31  159   4.950   4.011  16.492
    2DOPE   C31  160   4.896   3.997  16.371
    2DOPE   O32  161   4.910   4.075  16.278
    2DOPE   C32  162   4.813   3.868  16.365
    2DOPE   H2X  163   4.867   3.792  16.425
    2DOPE   H2Y  164   4.716   3.887  16.415
    2DOPE   C23  165   4.522   4.413  16.347
    2DOPE   H3R  166   4.510   4.496  16.420
    2DOPE   H3S  167   4.420   4.381  16.317
    2DOPE   C24  168   4.591   4.465  16.220
    2DOPE   H4R  169   4.698   4.486  16.241
    2DOPE   H4S  170   4.542   4.560  16.191
    2DOPE   C25  171   4.581   4.370  16.100
    2DOPE   H5R  172   4.480   4.324  16.096
    2DOPE   H5S  173   4.654   4.287  16.111
    2DOPE   C26  174   4.607   4.445  15.968
    2DOPE   H6R  175   4.708   4.413  15.933
    2DOPE   H6S  176   4.609   4.555  15.981
    2DOPE   C27  177   4.511   4.408  15.854
    2DOPE   H7R  178   4.513   4.297  15.857
    2DOPE   H7S  179   4.558   4.445  15.760
    2DOPE   C28  180   4.364   4.458  15.857
    2DOPE   H8R  181   4.341   4.492  15.960
    2DOPE   H8S  182   4.300   4.368  15.841
    2DOPE   C29  183   4.327   4.564  15.754
    2DOPE   H9R  184   4.321   4.666  15.796
    2DOPE  C210  185   4.307   4.548  15.620
    2DOPE  H10R  186   4.286   4.635  15.556
    2DOPE  C211  187   4.322   4.416  15.549
    2DOPE  H11R  188   4.275   4.340  15.615
    2DOPE  H11S  189   4.432   4.400  15.544
    2DOPE  C212  190   4.271   4.373  15.408
    2DOPE  H12R  191   4.162   4.351  15.416
    2DOPE  H12S  192   4.319   4.277  15.381
    2DOPE  C213  193   4.301   4.464  15.289
    2DOPE  H13R  194   4.280   4.570  15.313
    2DOPE  H13S  195   4.233   4.432  15.208
    2DOPE  C214  196   4.441   4.445  15.231
    2DOPE  H14R  197   4.456   4.338  15.204
    2DOPE  H14S  198   4.518   4.473  15.306
    2DOPE  C215  199   4.456   4.531  15.105
    2DOPE  H15R  200   4.452   4.637  15.138
    2DOPE  H15S  201   4.370   4.514  15.036
    2DOPE  C216  202   4.586   4.504  15.032
    2DOPE  H16R  203   4.664   4.478  15.106
    2DOPE  H16S  204   4.619   4.597  14.980
    2DOPE  C217  205   4.575   4.393  14.928
    2DOPE  H17R  206   4.546   4.438  14.831
    2DOPE  H17S  207   4.495   4.322  14.957
    2DOPE  C218  208   4.705   4.315  14.910
    2DOPE  H18R  209   4.708   4.264  14.811
    2DOPE  H18S  210   4.720   4.242  14.992
    2DOPE  H18T  211   4.793   4.383  14.908
    2DOPE   C33  212   4.792   3.814  16.222
    2DOPE   H3X  213   4.749   3.712  16.231
    2DOPE   H3Y  214   4.891   3.803  16.172
    2DOPE   C34  215   4.701   3.898  16.130
    2DOPE   H4X  216   4.604   3.910  16.182
    2DOPE   H4Y  217   4.745   3.998  16.115
    2DOPE   C35  218   4.681   3.831  15.993
    2DOPE   H5X  219   4.623   3.738  16.011
    2DOPE   H5Y  220   4.780   3.800  15.954
    2DOPE   C36  221   4.616   3.917  15.882
    2DOPE   H6X  222   4.697   3.972  15.830
    2DOPE   H6Y  223   4.552   3.993  15.930
    2DOPE   C37  224   4.529   3.843  15.775
    2DOPE   H7X  225   4.505   3.743  15.818
    2DOPE   H7Y  226   4.430   3.893  15.777
    2DOPE   C38  227   4.587   3.849  15.626
    2DOPE   H8X  228   4.695   3.826  15.639
    2DOPE   H8Y  229   4.582   3.958  15.611
    2DOPE   C39  230   4.544   3.798  15.487
    2DOPE   H9X  231   4.549   3.688  15.474
    2DOPE  C310  232   4.516   3.853  15.367
    2DOPE  H10X  233   4.490   3.784  15.285
    2DOPE  C311  234   4.516   3.996  15.321
    2DOPE  H11X  235   4.414   4.025  15.287
    2DOPE  H11Y  236   4.535   4.065  15.407
    2DOPE  C312  237   4.620   4.033  15.217
    2DOPE  H12X  238   4.722   4.012  15.256
    2DOPE  H12Y  239   4.614   4.142  15.198
    2DOPE  C313  240   4.596   3.959  15.086
    2DOPE  H13X  241   4.669   4.003  15.014
    2DOPE  H13Y  242   4.621   3.852  15.099
    2DOPE  C314  243   4.451   3.973  15.036
    2DOPE  H14X  244   4.422   4.079  15.028
    2DOPE  H14Y  245   4.384   3.924  15.110
    2DOPE  C315  246   4.425   3.899  14.905
    2DOPE  H15X  247   4.320   3.862  14.905
    2DOPE  H15Y  248   4.491   3.809  14.907
    2DOPE  C316  249   4.444   3.981  14.777
    2DOPE  H16X  250   4.368   4.061  14.777
    2DOPE  H16Y  251   4.424   3.918  14.687
    2DOPE  C317  252   4.580   4.050  14.764
    2DOPE  H17X  253   4.580   4.120  14.677
    2DOPE  H17Y  254   4.582   4.113  14.856
    2DOPE  C318  255   4.710   3.968  14.762
    2DOPE  H18X  256   4.797   4.034  14.781
    2DOPE  H18Y  257   4.710   3.890  14.841
    2DOPE  H18Z  258   4.726   3.919  14.664
    3DOPE     N  259   3.640   5.155  16.700
    3DOPE   HN1  260   3.722   5.168  16.763
    3DOPE   HN2  261   3.651   5.062  16.653
    3DOPE   HN3  262   3.654   5.230  16.629
    3DOPE   C12  263   3.507   5.166  16.772
    3DOPE  H12A  264   3.426   5.162  16.697
    3DOPE  H12B  265   3.505   5.265  16.823
    3DOPE   C11  266   3.489   5.052  16.874
    3DOPE  H11A  267   3.576   5.051  16.943
    3DOPE  H11B  268   3.491   4.955  16.820
    3DOPE     P  269   3.241   4.984  16.926
    3DOPE   O13  270   3.146   5.004  17.036
    3DOPE   O14  271   3.287   4.845  16.899
    3DOPE   O11  272   3.185   5.050  16.794
    3DOPE   O12  273   3.371   5.072  16.951
    3DOPE    C1  274   3.073   4.994  16.724
    3DOPE    HA  275   3.014   5.077  16.681
    3DOPE    HB  276   3.006   4.936  16.790
    3DOPE    C2  277   3.119   4.906  16.606
    3DOPE    HS  278   3.175   4.821  16.651
    3DOPE   O21  279   3.204   4.988  16.522
    3DOPE   C21  280   3.295   4.917  16.458
    3DOPE   O22  281   3.304   4.796  16.458
    3DOPE   C22  282   3.395   5.012  16.392
    3DOPE   H2R  283   3.415   5.096  16.462
    3DOPE   H2S  284   3.347   5.053  16.301
    3DOPE    C3  285   2.999   4.849  16.525
    3DOPE    HX  286   2.938   4.790  16.597
    3DOPE    HY  287   3.038   4.776  16.451
    3DOPE   O31  288   2.918   4.955  16.470
    3DOPE   C31  289   2.922   4.967  16.337
    3DOPE   O32  290   2.967   4.885  16.260
    3DOPE   C32  291   2.866   5.104  16.298
    3DOPE   H2X  292   2.758   5.092  16.278
    3DOPE   H2Y  293   2.881   5.175  16.383
    3DOPE   C23  294   3.526   4.939  16.354
    3DOPE   H3R  295   3.559   4.873  16.437
    3DOPE   H3S  296   3.607   5.013  16.336
    3DOPE   C24  297   3.509   4.856  16.227
    3DOPE   H4R  298   3.404   4.821  16.219
    3DOPE   H4S  299   3.572   4.764  16.233
    3DOPE   C25  300   3.548   4.932  16.100
    3DOPE   H5R  301   3.659   4.930  16.090
    3DOPE   H5S  302   3.518   5.039  16.107
    3DOPE   C26  303   3.483   4.873  15.974
    3DOPE   H6R  304   3.489   4.762  15.979
    3DOPE   H6S  305   3.542   4.908  15.887
    3DOPE   C27  306   3.336   4.913  15.957
    3DOPE   H7R  307   3.332   5.010  15.903
    3DOPE   H7S  308   3.293   4.929  16.058
    3DOPE   C28  309   3.250   4.811  15.881
    3DOPE   H8R  310   3.263   4.710  15.926
    3DOPE   H8S  311   3.286   4.804  15.776
    3DOPE   C29  312   3.106   4.853  15.889
    3DOPE   H9R  313   3.051   4.813  15.975
    3DOPE  C210  314   3.042   4.937  15.805
    3DOPE  H10R  315   2.937   4.960  15.824
    3DOPE  C211  316   3.102   5.005  15.684
    3DOPE  H11R  317   3.168   4.936  15.628
    3DOPE  H11S  318   3.165   5.091  15.716
    3DOPE  C212  319   2.992   5.059  15.589
    3DOPE  H12R  320   3.042   5.102  15.500
    3DOPE  H12S  321   2.937   5.141  15.639
    3DOPE  C213  322   2.890   4.953  15.541
    3DOPE  H13R  323   2.813   5.003  15.479
    3DOPE  H13S  324   2.839   4.907  15.628
    3DOPE  C214  325   2.955   4.843  15.457
    3DOPE  H14R  326   3.042   4.800  15.512
    3DOPE  H14S  327   2.994   4.891  15.365
    3DOPE  C215  328   2.861   4.728  15.419
    3DOPE  H15R  329   2.780   4.766  15.354
    3DOPE  H15S  330   2.815   4.687  15.512
    3DOPE  C216  331   2.938   4.615  15.349
    3DOPE  H16R  332   3.018   4.580  15.417
    3DOPE  H16S  333   2.987   4.655  15.257
    3DOPE  C217  334   2.853   4.496  15.307
    3DOPE  H17R  335   2.799   4.453  15.394
    3DOPE  H17S  336   2.925   4.419  15.271
    3DOPE  C218  337   2.755   4.523  15.192
    3DOPE  H18R  338   2.809   4.567  15.106
    3DOPE  H18S  339   2.676   4.594  15.224
    3DOPE  H18T  340   2.708   4.429  15.158
    3DOPE   C33  341   2.938   5.159  16.173
    3DOPE   H3X  342   2.888   5.253  16.139
    3DOPE   H3Y  343   2.930   5.086  16.089
    3DOPE   C34  344   3.087   5.190  16.198
    3DOPE   H4X  345   3.096   5.276  16.268
    3DOPE   H4Y  346   3.135   5.102  16.245
    3DOPE   C35  347   3.163   5.221  16.069
    3DOPE   H5X  348   3.108   5.300  16.014
    3DOPE   H5Y  349   3.162   5.131  16.004
    3DOPE   C36  350   3.308   5.265  16.092
    3DOPE   H6X  351   3.364   5.187  16.148
    3DOPE   H6Y  352   3.308   5.358  16.154
    3DOPE   C37  353   3.383   5.291  15.961
    3DOPE   H7X  354   3.395   5.197  15.904
    3DOPE   H7Y  355   3.316   5.354  15.899
    3DOPE   C38  356   3.517   5.366  15.975
    3DOPE   H8X  357   3.527   5.403  16.080
    3DOPE   H8Y  358   3.512   5.457  15.911
    3DOPE   C39  359   3.639   5.285  15.936
    3DOPE   H9X  360   3.713   5.271  16.016
    3DOPE  C310  361   3.663   5.233  15.815
    3DOPE  H10X  362   3.758   5.179  15.800
    3DOPE  C311  363   3.577   5.241  15.691
    3DOPE  H11X  364   3.490   5.309  15.706
    3DOPE  H11Y  365   3.636   5.287  15.608
    3DOPE  C312  366   3.523   5.105  15.641
    3DOPE  H12X  367   3.469   5.121  15.545
    3DOPE  H12Y  368   3.448   5.068  15.714
    3DOPE  C313  369   3.629   4.996  15.620
    3DOPE  H13X  370   3.688   5.016  15.527
    3DOPE  H13Y  371   3.701   4.997  15.704
    3DOPE  C314  372   3.570   4.854  15.616
    3DOPE  H14X  373   3.504   4.840  15.704
    3DOPE  H14Y  374   3.652   4.779  15.623
    3DOPE  C315  375   3.484   4.823  15.493
    3DOPE  H15X  376   3.410   4.905  15.477
    3DOPE  H15Y  377   3.426   4.731  15.515
    3DOPE  C316  378   3.567   4.798  15.367
    3DOPE  H16X  379   3.524   4.710  15.316
    3DOPE  H16Y  380   3.672   4.772  15.394
    3DOPE  C317  381   3.567   4.916  15.270
    3DOPE  H17X  382   3.464   4.958  15.262
    3DOPE  H17Y  383   3.632   4.997  15.309
    3DOPE  C318  384   3.614   4.873  15.132
    3DOPE  H18X  385   3.721   4.842  15.136
    3DOPE  H18Y  386   3.558   4.785  15.093
    3DOPE  H18Z  387   3.601   4.956  15.059
    4DOPE     N  388   4.345   2.507  16.737
    4DOPE   HN1  389   4.291   2.596  16.740
    4DOPE   HN2  390   4.414   2.509  16.659
    4DOPE   HN3  391   4.278   2.428  16.724
    4DOPE   C12  392   4.419   2.488  16.865
    4DOPE  H12A  393   4.430   2.379  16.881
    4DOPE  H12B  394   4.355   2.530  16.946
    4DOPE   C11  395   4.556   2.559  16.864
    4DOPE  H11A  396   4.542   2.666  16.835
    4DOPE  H11B  397   4.625   2.515  16.789
    4DOPE     P  398   4.643   2.422  17.072
    4DOPE   O13  399   4.517   2.397  17.146
    4DOPE   O14  400   4.768   2.429  17.150
    4DOPE   O11  401   4.656   2.318  16.955
    4DOPE   O12  402   4.617   2.557  16.993
    4DOPE    C1  403   4.606   2.184  16.957
    4DOPE    HA  404   4.504   2.181  17.001
    4DOPE    HB  405   4.672   2.119  17.018
    4DOPE    C2  406   4.598   2.125  16.813
    4DOPE    HS  407   4.699   2.084  16.790
    4DOPE   O21  408   4.556   2.230  16.723
    4DOPE   C21  409   4.658   2.279  16.654
    4DOPE   O22  410   4.774   2.269  16.683
    4DOPE   C22  411   4.608   2.336  16.523
    4DOPE   H2R  412   4.501   2.366  16.529
    4DOPE   H2S  413   4.615   2.251  16.452
    4DOPE    C3  414   4.499   2.006  16.797
    4DOPE    HX  415   4.397   2.050  16.793
    4DOPE    HY  416   4.502   1.947  16.891
    4DOPE   O31  417   4.522   1.917  16.684
    4DOPE   C31  418   4.493   1.966  16.564
    4DOPE   O32  419   4.457   2.080  16.542
    4DOPE   C32  420   4.503   1.862  16.452
    4DOPE   H2X  421   4.599   1.806  16.460
    4DOPE   H2Y  422   4.418   1.792  16.461
    4DOPE   C23  423   4.699   2.447  16.471
    4DOPE   H3R  424   4.805   2.435  16.503
    4DOPE   H3S  425   4.666   2.547  16.506
    4DOPE   C24  426   4.698   2.439  16.320
    4DOPE   H4R  427   4.594   2.457  16.286
    4DOPE   H4S  428   4.728   2.338  16.284
    4DOPE   C25  429   4.789   2.541  16.255
    4DOPE   H5R  430   4.894   2.504  16.247
    4DOPE   H5S  431   4.791   2.636  16.312
    4DOPE   C26  432   4.731   2.567  16.118
    4DOPE   H6R  433   4.630   2.610  16.133
    4DOPE   H6S  434   4.719   2.471  16.062
    4DOPE   C27  435   4.813   2.663  16.035
    4DOPE   H7R  436   4.912   2.617  16.012
    4DOPE   H7S  437   4.832   2.755  16.094
    4DOPE   C28  438   4.738   2.690  15.905
    4DOPE   H8R  439   4.718   2.590  15.861
    4DOPE   H8S  440   4.804   2.742  15.833
    4DOPE   C29  441   4.610   2.769  15.925
    4DOPE   H9R  442   4.623   2.869  15.970
    4DOPE  C210  443   4.486   2.728  15.896
    4DOPE  H10R  444   4.404   2.802  15.903
    4DOPE  C211  445   4.447   2.594  15.840
    4DOPE  H11R  446   4.343   2.569  15.869
    4DOPE  H11S  447   4.510   2.514  15.884
    4DOPE  C212  448   4.458   2.589  15.686
    4DOPE  H12R  449   4.388   2.664  15.644
    4DOPE  H12S  450   4.424   2.489  15.650
    4DOPE  C213  451   4.599   2.618  15.632
    4DOPE  H13R  452   4.672   2.539  15.660
    4DOPE  H13S  453   4.634   2.714  15.675
    4DOPE  C214  454   4.605   2.646  15.483
    4DOPE  H14R  455   4.702   2.694  15.459
    4DOPE  H14S  456   4.522   2.718  15.464
    4DOPE  C215  457   4.578   2.531  15.390
    4DOPE  H15R  458   4.508   2.569  15.314
    4DOPE  H15S  459   4.526   2.449  15.444
    4DOPE  C216  460   4.704   2.485  15.316
    4DOPE  H16R  461   4.678   2.395  15.257
    4DOPE  H16S  462   4.785   2.459  15.387
    4DOPE  C217  463   4.750   2.593  15.217
    4DOPE  H17R  464   4.842   2.641  15.256
    4DOPE  H17S  465   4.671   2.671  15.212
    4DOPE  C218  466   4.771   2.539  15.076
    4DOPE  H18R  467   4.675   2.504  15.032
    4DOPE  H18S  468   4.841   2.453  15.078
    4DOPE  H18T  469   4.812   2.619  15.010
    4DOPE   C33  470   4.495   1.941  16.319
    4DOPE   H3X  471   4.581   2.010  16.314
    4DOPE   H3Y  472   4.403   2.002  16.322
    4DOPE   C34  473   4.489   1.862  16.187
    4DOPE   H4X  474   4.590   1.820  16.166
    4DOPE   H4Y  475   4.417   1.778  16.194
    4DOPE   C35  476   4.447   1.954  16.069
    4DOPE   H5X  477   4.336   1.956  16.062
    4DOPE   H5Y  478   4.485   1.911  15.974
    4DOPE   C36  479   4.495   2.100  16.084
    4DOPE   H6X  480   4.603   2.100  16.111
    4DOPE   H6Y  481   4.439   2.148  16.167
    4DOPE   C37  482   4.476   2.187  15.959
    4DOPE   H7X  483   4.384   2.159  15.904
    4DOPE   H7Y  484   4.466   2.292  15.992
    4DOPE   C38  485   4.600   2.176  15.870
    4DOPE   H8X  486   4.607   2.072  15.831
    4DOPE   H8Y  487   4.687   2.191  15.937
    4DOPE   C39  488   4.612   2.278  15.761
    4DOPE   H9X  489   4.634   2.379  15.797
    4DOPE  C310  490   4.608   2.257  15.628
    4DOPE  H10X  491   4.634   2.342  15.563
    4DOPE  C311  492   4.591   2.128  15.554
    4DOPE  H11X  493   4.567   2.044  15.622
    4DOPE  H11Y  494   4.505   2.137  15.484
    4DOPE  C312  495   4.719   2.094  15.475
    4DOPE  H12X  496   4.750   1.991  15.505
    4DOPE  H12Y  497   4.804   2.161  15.501
    4DOPE  C313  498   4.706   2.098  15.323
    4DOPE  H13X  499   4.667   2.198  15.294
    4DOPE  H13Y  500   4.806   2.086  15.277
    4DOPE  C314  501   4.613   1.991  15.265
    4DOPE  H14X  502   4.520   1.989  15.325
    4DOPE  H14Y  503   4.660   1.891  15.275
    4DOPE  C315  504   4.580   2.020  15.118
    4DOPE  H15X  505   4.597   1.929  15.056
    4DOPE  H15Y  506   4.651   2.098  15.084
    4DOPE  C316  507   4.438   2.073  15.098
    4DOPE  H16X  508   4.438   2.157  15.025
    4DOPE  H16Y  509   4.400   2.110  15.195
    4DOPE  C317  510   4.337   1.973  15.044
    4DOPE  H17X  511   4.372   1.939  14.944
    4DOPE  H17Y  512   4.336   1.884  15.111
    4DOPE  C318  513   4.197   2.033  15.031
    4DOPE  H18X  514   4.122   1.955  15.004
    4DOPE  H18Y  515   4.166   2.081  15.126
    4DOPE  H18Z  516   4.197   2.111  14.952
    5DOPE     N  517   1.678   4.252  16.779
    5DOPE   HN1  518   1.607   4.177  16.761
    5DOPE   HN2  519   1.634   4.340  16.812
    5DOPE   HN3  520   1.731   4.270  16.691
    5DOPE   C12  521   1.777   4.212  16.884
    5DOPE  H12A  522   1.722   4.190  16.978
    5DOPE  H12B  523   1.840   4.303  16.901
    5DOPE   C11  524   1.862   4.090  16.846
    5DOPE  H11A  525   1.927   4.109  16.758
    5DOPE  H11B  526   1.798   4.004  16.819
    5DOPE     P  527   2.050   4.155  17.015
    5DOPE   O13  528   2.172   4.082  17.053
    5DOPE   O14  529   1.980   4.235  17.119
    5DOPE   O11  530   2.072   4.246  16.887
    5DOPE   O12  531   1.942   4.052  16.958
    5DOPE    C1  532   2.199   4.282  16.831
    5DOPE    HA  533   2.277   4.206  16.850
    5DOPE    HB  534   2.231   4.377  16.879
    5DOPE    C2  535   2.193   4.312  16.677
    5DOPE    HS  536   2.274   4.385  16.655
    5DOPE   O21  537   2.066   4.371  16.648
    5DOPE   C21  538   2.019   4.364  16.526
    5DOPE   O22  539   2.077   4.386  16.422
    5DOPE   C22  540   1.873   4.315  16.544
    5DOPE   H2R  541   1.833   4.383  16.622
    5DOPE   H2S  542   1.882   4.213  16.586
    5DOPE    C3  543   2.225   4.186  16.588
    5DOPE    HX  544   2.306   4.127  16.635
    5DOPE    HY  545   2.268   4.229  16.495
    5DOPE   O31  546   2.109   4.100  16.565
    5DOPE   C31  547   2.101   4.055  16.438
    5DOPE   O32  548   2.180   4.081  16.351
    5DOPE   C32  549   1.974   3.972  16.421
    5DOPE   H2X  550   1.989   3.879  16.480
    5DOPE   H2Y  551   1.887   4.026  16.463
    5DOPE   C23  552   1.780   4.306  16.420
    5DOPE   H3R  553   1.781   4.200  16.386
    5DOPE   H3S  554   1.821   4.366  16.335
    5DOPE   C24  555   1.632   4.346  16.441
    5DOPE   H4R  556   1.620   4.455  16.424
    5DOPE   H4S  557   1.601   4.326  16.546
    5DOPE   C25  558   1.531   4.274  16.350
    5DOPE   H5R  559   1.429   4.311  16.370
    5DOPE   H5S  560   1.533   4.165  16.376
    5DOPE   C26  561   1.560   4.286  16.200
    5DOPE   H6R  562   1.501   4.209  16.146
    5DOPE   H6S  563   1.667   4.265  16.181
    5DOPE   C27  564   1.523   4.421  16.138
    5DOPE   H7R  565   1.565   4.502  16.202
    5DOPE   H7S  566   1.413   4.436  16.141
    5DOPE   C28  567   1.572   4.440  15.994
    5DOPE   H8R  568   1.681   4.419  15.989
    5DOPE   H8S  569   1.559   4.546  15.964
    5DOPE   C29  570   1.495   4.356  15.896
    5DOPE   H9R  571   1.404   4.403  15.856
    5DOPE  C210  572   1.526   4.232  15.857
    5DOPE  H10R  573   1.460   4.180  15.786
    5DOPE  C211  574   1.645   4.151  15.903
    5DOPE  H11R  575   1.611   4.060  15.957
    5DOPE  H11S  576   1.710   4.207  15.974
    5DOPE  C212  577   1.735   4.105  15.787
    5DOPE  H12R  578   1.804   4.027  15.827
    5DOPE  H12S  579   1.797   4.190  15.750
    5DOPE  C213  580   1.661   4.044  15.669
    5DOPE  H13R  581   1.620   4.127  15.606
    5DOPE  H13S  582   1.575   3.986  15.707
    5DOPE  C214  583   1.752   3.951  15.588
    5DOPE  H14R  584   1.787   3.868  15.654
    5DOPE  H14S  585   1.841   4.007  15.556
    5DOPE  C215  586   1.683   3.890  15.465
    5DOPE  H15R  587   1.609   3.815  15.501
    5DOPE  H15S  588   1.758   3.836  15.404
    5DOPE  C216  589   1.609   3.992  15.377
    5DOPE  H16R  590   1.520   4.028  15.433
    5DOPE  H16S  591   1.572   3.942  15.285
    5DOPE  C217  592   1.694   4.114  15.338
    5DOPE  H17R  593   1.749   4.153  15.427
    5DOPE  H17S  594   1.627   4.196  15.306
    5DOPE  C218  595   1.793   4.087  15.227
    5DOPE  H18R  596   1.863   4.173  15.214
    5DOPE  H18S  597   1.742   4.068  15.130
    5DOPE  H18T  598   1.852   3.996  15.250
    5DOPE   C33  599   1.946   3.931  16.273
    5DOPE   H3X  600   1.884   3.839  16.275
    5DOPE   H3Y  601   2.040   3.904  16.221
    5DOPE   C34  602   1.867   4.035  16.189
    5DOPE   H4X  603   1.842   3.987  16.092
    5DOPE   H4Y  604   1.770   4.055  16.239
    5DOPE   C35  605   1.940   4.168  16.161
    5DOPE   H5X  606   1.972   4.213  16.257
    5DOPE   H5Y  607   1.870   4.239  16.112
    5DOPE   C36  608   2.065   4.158  16.072
    5DOPE   H6X  609   2.136   4.085  16.117
    5DOPE   H6Y  610   2.116   4.257  16.070
    5DOPE   C37  611   2.035   4.113  15.929
    5DOPE   H7X  612   1.980   4.017  15.935
    5DOPE   H7Y  613   1.971   4.188  15.877
    5DOPE   C38  614   2.163   4.085  15.849
    5DOPE   H8X  615   2.145   3.991  15.791
    5DOPE   H8Y  616   2.241   4.060  15.924
    5DOPE   C39  617   2.212   4.196  15.760
    5DOPE   H9X  618   2.202   4.297  15.801
    5DOPE  C310  619   2.268   4.177  15.639
    5DOPE  H10X  620   2.301   4.266  15.582
    5DOPE  C311  621   2.292   4.044  15.571
    5DOPE  H11X  622   2.368   4.055  15.491
    5DOPE  H11Y  623   2.335   3.972  15.644
    5DOPE  C312  624   2.166   3.977  15.513
    5DOPE  H12X  625   2.088   3.970  15.591
    5DOPE  H12Y  626   2.191   3.873  15.482
    5DOPE  C313  627   2.107   4.051  15.393
    5DOPE  H13X  628   2.006   4.006  15.375
    5DOPE  H13Y  629   2.091   4.158  15.418
    5DOPE  C314  630   2.191   4.037  15.265
    5DOPE  H14X  631   2.206   3.930  15.240
    5DOPE  H14Y  632   2.291   4.082  15.284
    5DOPE  C315  633   2.127   4.110  15.145
    5DOPE  H15X  634   2.085   4.206  15.182
    5DOPE  H15Y  635   2.042   4.051  15.105
    5DOPE  C316  636   2.228   4.141  15.033
    5DOPE  H16X  637   2.237   4.053  14.966
    5DOPE  H16Y  638   2.327   4.158  15.079
    5DOPE  C317  639   2.191   4.267  14.954
    5DOPE  H17X  640   2.168   4.350  15.024
    5DOPE  H17Y  641   2.280   4.299  14.896
    5DOPE  C318  642   2.075   4.249  14.856
    5DOPE  H18X  643   1.982   4.223  14.911
    5DOPE  H18Y  644   2.058   4.342  14.799
    5DOPE  H18Z  645   2.098   4.168  14.783
    6DOPE     N  646   1.884   5.230  17.062
    6DOPE   HN1  647   1.816   5.151  17.068
    6DOPE   HN2  648   1.896   5.279  17.153
    6DOPE   HN3  649   1.852   5.298  16.991
    6DOPE   C12  650   2.016   5.175  17.014
    6DOPE  H12A  651   2.054   5.106  17.092
    6DOPE  H12B  652   2.086   5.261  17.003
    6DOPE   C11  653   1.998   5.100  16.881
    6DOPE  H11A  654   2.097   5.067  16.843
    6DOPE  H11B  655   1.958   5.171  16.805
    6DOPE     P  656   1.956   4.843  16.911
    6DOPE   O13  657   2.077   4.844  16.996
    6DOPE   O14  658   1.964   4.777  16.780
    6DOPE   O11  659   1.840   4.774  16.996
    6DOPE   O12  660   1.906   4.992  16.894
    6DOPE    C1  661   1.720   4.843  17.029
    6DOPE    HA  662   1.729   4.953  17.025
    6DOPE    HB  663   1.693   4.821  17.135
    6DOPE    C2  664   1.597   4.802  16.943
    6DOPE    HS  665   1.547   4.718  16.996
    6DOPE   O21  666   1.633   4.765  16.808
    6DOPE   C21  667   1.652   4.640  16.780
    6DOPE   O22  668   1.648   4.545  16.856
    6DOPE   C22  669   1.653   4.618  16.628
    6DOPE   H2R  670   1.548   4.606  16.591
    6DOPE   H2S  671   1.703   4.519  16.616
    6DOPE    C3  672   1.498   4.921  16.937
    6DOPE    HX  673   1.481   4.958  17.040
    6DOPE    HY  674   1.400   4.888  16.898
    6DOPE   O31  675   1.551   5.029  16.857
    6DOPE   C31  676   1.532   5.010  16.727
    6DOPE   O32  677   1.455   4.929  16.677
    6DOPE   C32  678   1.630   5.098  16.653
    6DOPE   H2X  679   1.635   5.195  16.705
    6DOPE   H2Y  680   1.729   5.048  16.663
    6DOPE   C23  681   1.728   4.719  16.541
    6DOPE   H3R  682   1.784   4.787  16.608
    6DOPE   H3S  683   1.654   4.781  16.486
    6DOPE   C24  684   1.835   4.659  16.444
    6DOPE   H4R  685   1.872   4.564  16.489
    6DOPE   H4S  686   1.924   4.725  16.448
    6DOPE   C25  687   1.801   4.636  16.294
    6DOPE   H5R  688   1.725   4.556  16.286
    6DOPE   H5S  689   1.892   4.596  16.244
    6DOPE   C26  690   1.757   4.760  16.216
    6DOPE   H6R  691   1.844   4.811  16.170
    6DOPE   H6S  692   1.715   4.826  16.295
    6DOPE   C27  693   1.641   4.760  16.116
    6DOPE   H7R  694   1.558   4.698  16.157
    6DOPE   H7S  695   1.673   4.716  16.019
    6DOPE   C28  696   1.591   4.906  16.096
    6DOPE   H8R  697   1.680   4.970  16.076
    6DOPE   H8S  698   1.549   4.938  16.193
    6DOPE   C29  699   1.483   4.934  15.996
    6DOPE   H9R  700   1.381   4.929  16.036
    6DOPE  C210  701   1.497   4.976  15.870
    6DOPE  H10R  702   1.406   4.989  15.809
    6DOPE  C211  703   1.625   5.004  15.797
    6DOPE  H11R  704   1.714   4.982  15.859
    6DOPE  H11S  705   1.633   5.111  15.768
    6DOPE  C212  706   1.629   4.919  15.670
    6DOPE  H12R  707   1.606   4.813  15.695
    6DOPE  H12S  708   1.732   4.922  15.628
    6DOPE  C213  709   1.531   4.965  15.562
    6DOPE  H13R  710   1.550   5.072  15.540
    6DOPE  H13S  711   1.426   4.955  15.598
    6DOPE  C214  712   1.546   4.886  15.433
    6DOPE  H14R  713   1.521   4.779  15.450
    6DOPE  H14S  714   1.652   4.891  15.399
    6DOPE  C215  715   1.456   4.945  15.324
    6DOPE  H15R  716   1.478   5.053  15.313
    6DOPE  H15S  717   1.350   4.936  15.357
    6DOPE  C216  718   1.473   4.876  15.189
    6DOPE  H16R  719   1.578   4.880  15.155
    6DOPE  H16S  720   1.411   4.932  15.115
    6DOPE  C217  721   1.424   4.731  15.192
    6DOPE  H17R  722   1.354   4.716  15.277
    6DOPE  H17S  723   1.511   4.663  15.210
    6DOPE  C218  724   1.352   4.694  15.064
    6DOPE  H18R  725   1.318   4.588  15.065
    6DOPE  H18S  726   1.419   4.710  14.976
    6DOPE  H18T  727   1.261   4.755  15.050
    6DOPE   C33  728   1.589   5.123  16.506
    6DOPE   H3X  729   1.595   5.232  16.488
    6DOPE   H3Y  730   1.483   5.094  16.491
    6DOPE   C34  731   1.666   5.049  16.396
    6DOPE   H4X  732   1.608   4.955  16.386
    6DOPE   H4Y  733   1.653   5.104  16.300
    6DOPE   C35  734   1.816   5.017  16.416
    6DOPE   H5X  735   1.826   4.908  16.435
    6DOPE   H5Y  736   1.856   5.057  16.511
    6DOPE   C36  737   1.910   5.041  16.297
    6DOPE   H6X  738   1.937   5.149  16.289
    6DOPE   H6Y  739   1.861   5.012  16.202
    6DOPE   C37  740   2.045   4.969  16.311
    6DOPE   H7X  741   2.111   5.033  16.375
    6DOPE   H7Y  742   2.032   4.874  16.367
    6DOPE   C38  743   2.115   4.942  16.177
    6DOPE   H8X  744   2.224   4.957  16.193
    6DOPE   H8Y  745   2.083   5.017  16.101
    6DOPE   C39  746   2.095   4.800  16.130
    6DOPE   H9X  747   2.104   4.725  16.210
    6DOPE  C310  748   2.070   4.756  16.006
    6DOPE  H10X  749   2.065   4.647  15.991
    6DOPE  C311  750   2.055   4.836  15.879
    6DOPE  H11X  751   1.996   4.929  15.896
    6DOPE  H11Y  752   2.154   4.865  15.838
    6DOPE  C312  753   1.983   4.748  15.775
    6DOPE  H12X  754   2.048   4.663  15.746
    6DOPE  H12Y  755   1.966   4.808  15.683
    6DOPE  C313  756   1.847   4.696  15.826
    6DOPE  H13X  757   1.859   4.633  15.917
    6DOPE  H13Y  758   1.787   4.785  15.854
    6DOPE  C314  759   1.769   4.614  15.724
    6DOPE  H14X  760   1.767   4.671  15.628
    6DOPE  H14Y  761   1.664   4.603  15.757
    6DOPE  C315  762   1.827   4.474  15.701
    6DOPE  H15X  763   1.788   4.407  15.781
    6DOPE  H15Y  764   1.938   4.475  15.710
    6DOPE  C316  765   1.790   4.421  15.563
    6DOPE  H16X  766   1.681   4.437  15.547
    6DOPE  H16Y  767   1.809   4.311  15.558
    6DOPE  C317  768   1.871   4.490  15.453
    6DOPE  H17X  769   1.892   4.596  15.482
    6DOPE  H17Y  770   1.970   4.440  15.444
    6DOPE  C318  771   1.799   4.493  15.319
    6DOPE  H18X  772   1.697   4.534  15.331
    6DOPE  H18Y  773   1.854   4.559  15.248
    6DOPE  H18Z  774   1.793   4.391  15.276
    7DOPE     N  775   4.909   5.774  17.179
    7DOPE   HN1  776   5.006   5.744  17.157
    7DOPE   HN2  777   4.905   5.876  17.201
    7DOPE   HN3  778   4.877   5.718  17.261
    7DOPE   C12  779   4.820   5.742  17.064
    7DOPE  H12A  780   4.716   5.750  17.103
    7DOPE  H12B  781   4.839   5.637  17.033
    7DOPE   C11  782   4.840   5.837  16.946
    7DOPE  H11A  783   4.944   5.828  16.908
    7DOPE  H11B  784   4.824   5.943  16.975
    7DOPE     P  785   4.597   5.833  16.840
    7DOPE   O13  786   4.576   5.977  16.817
    7DOPE   O14  787   4.536   5.779  16.964
    7DOPE   O11  788   4.545   5.749  16.717
    7DOPE   O12  789   4.752   5.801  16.841
    7DOPE    C1  790   4.604   5.623  16.684
    7DOPE    HA  791   4.522   5.549  16.684
    7DOPE    HB  792   4.680   5.587  16.757
    7DOPE    C2  793   4.666   5.619  16.542
    7DOPE    HS  794   4.652   5.514  16.511
    7DOPE   O21  795   4.807   5.656  16.546
    7DOPE   C21  796   4.867   5.611  16.435
    7DOPE   O22  797   4.817   5.527  16.362
    7DOPE   C22  798   5.000   5.682  16.410
    7DOPE   H2R  799   5.066   5.662  16.497
    7DOPE   H2S  800   4.980   5.791  16.404
    7DOPE    C3  801   4.589   5.710  16.440
    7DOPE    HX  802   4.483   5.708  16.471
    7DOPE    HY  803   4.596   5.661  16.341
    7DOPE   O31  804   4.634   5.848  16.440
    7DOPE   C31  805   4.700   5.888  16.332
    7DOPE   O32  806   4.726   5.820  16.235
    7DOPE   C32  807   4.743   6.034  16.349
    7DOPE   H2X  808   4.723   6.066  16.453
    7DOPE   H2Y  809   4.852   6.040  16.329
    7DOPE   C23  810   5.072   5.637  16.279
    7DOPE   H3R  811   5.103   5.530  16.288
    7DOPE   H3S  812   5.166   5.695  16.268
    7DOPE   C24  813   4.988   5.653  16.151
    7DOPE   H4R  814   4.962   5.760  16.135
    7DOPE   H4S  815   4.891   5.599  16.160
    7DOPE   C25  816   5.054   5.595  16.025
    7DOPE   H5R  817   5.079   5.488  16.044
    7DOPE   H5S  818   5.149   5.649  16.004
    7DOPE   C26  819   4.959   5.602  15.904
    7DOPE   H6R  820   4.941   5.708  15.876
    7DOPE   H6S  821   4.860   5.562  15.936
    7DOPE   C27  822   5.006   5.524  15.781
    7DOPE   H7R  823   4.936   5.541  15.696
    7DOPE   H7S  824   5.005   5.415  15.804
    7DOPE   C28  825   5.146   5.561  15.735
    7DOPE   H8R  826   5.180   5.493  15.654
    7DOPE   H8S  827   5.211   5.543  15.823
    7DOPE   C29  828   5.156   5.705  15.696
    7DOPE   H9R  829   5.137   5.777  15.778
    7DOPE  C210  830   5.185   5.753  15.575
    7DOPE  H10R  831   5.194   5.862  15.563
    7DOPE  C211  832   5.214   5.673  15.451
    7DOPE  H11R  833   5.300   5.606  15.471
    7DOPE  H11S  834   5.249   5.744  15.373
    7DOPE  C212  835   5.103   5.587  15.384
    7DOPE  H12R  836   5.066   5.506  15.452
    7DOPE  H12S  837   5.161   5.540  15.302
    7DOPE  C213  838   4.985   5.663  15.318
    7DOPE  H13R  839   5.029   5.758  15.281
    7DOPE  H13S  840   4.913   5.686  15.399
    7DOPE  C214  841   4.907   5.604  15.196
    7DOPE  H14R  842   4.808   5.654  15.194
    7DOPE  H14S  843   4.887   5.496  15.210
    7DOPE  C215  844   4.973   5.637  15.060
    7DOPE  H15R  845   5.065   5.575  15.044
    7DOPE  H15S  846   5.013   5.741  15.064
    7DOPE  C216  847   4.898   5.623  14.927
    7DOPE  H16R  848   4.801   5.674  14.936
    7DOPE  H16S  849   4.881   5.515  14.905
    7DOPE  C217  850   4.979   5.687  14.812
    7DOPE  H17R  851   5.021   5.783  14.850
    7DOPE  H17S  852   4.916   5.724  14.729
    7DOPE  C218  853   5.096   5.606  14.756
    7DOPE  H18R  854   5.156   5.669  14.688
    7DOPE  H18S  855   5.062   5.515  14.702
    7DOPE  H18T  856   5.165   5.576  14.838
    7DOPE   C33  857   4.668   6.126  16.250
    7DOPE   H3X  858   4.694   6.232  16.272
    7DOPE   H3Y  859   4.558   6.114  16.264
    7DOPE   C34  860   4.701   6.096  16.103
    7DOPE   H4X  861   4.798   6.042  16.097
    7DOPE   H4Y  862   4.624   6.027  16.063
    7DOPE   C35  863   4.709   6.220  16.014
    7DOPE   H5X  864   4.811   6.265  16.023
    7DOPE   H5Y  865   4.636   6.297  16.048
    7DOPE   C36  866   4.679   6.185  15.869
    7DOPE   H6X  867   4.570   6.192  15.852
    7DOPE   H6Y  868   4.709   6.079  15.850
    7DOPE   C37  869   4.751   6.273  15.767
    7DOPE   H7X  870   4.754   6.378  15.805
    7DOPE   H7Y  871   4.857   6.241  15.761
    7DOPE   C38  872   4.688   6.273  15.626
    7DOPE   H8X  873   4.770   6.305  15.558
    7DOPE   H8Y  874   4.611   6.353  15.619
    7DOPE   C39  875   4.622   6.149  15.575
    7DOPE   H9X  876   4.590   6.076  15.650
    7DOPE  C310  877   4.603   6.124  15.445
    7DOPE  H10X  878   4.562   6.026  15.417
    7DOPE  C311  879   4.642   6.212  15.328
    7DOPE  H11X  880   4.667   6.315  15.361
    7DOPE  H11Y  881   4.735   6.174  15.281
    7DOPE  C312  882   4.537   6.224  15.216
    7DOPE  H12X  883   4.587   6.256  15.121
    7DOPE  H12Y  884   4.471   6.308  15.247
    7DOPE  C313  885   4.445   6.105  15.189
    7DOPE  H13X  886   4.414   6.054  15.283
    7DOPE  H13Y  887   4.350   6.142  15.145
    7DOPE  C314  888   4.506   6.004  15.092
    7DOPE  H14X  889   4.617   6.016  15.093
    7DOPE  H14Y  890   4.478   6.029  14.987
    7DOPE  C315  891   4.468   5.859  15.123
    7DOPE  H15X  892   4.358   5.849  15.125
    7DOPE  H15Y  893   4.504   5.831  15.224
    7DOPE  C316  894   4.527   5.766  15.018
    7DOPE  H16X  895   4.634   5.790  15.005
    7DOPE  H16Y  896   4.475   5.786  14.922
    7DOPE  C317  897   4.512   5.618  15.050
    7DOPE  H17X  898   4.611   5.568  15.046
    7DOPE  H17Y  899   4.475   5.609  15.154
    7DOPE  C318  900   4.415   5.546  14.957
    7DOPE  H18X  901   4.441   5.556  14.849
    7DOPE  H18Y  902   4.405   5.439  14.982
    7DOPE  H18Z  903   4.315   5.596  14.959
    8DOPE     N  904   5.480   5.542  17.170
    8DOPE   HN1  905   5.408   5.496  17.229
    8DOPE   HN2  906   5.513   5.470  17.103
    8DOPE   HN3  907   5.560   5.574  17.228
    8DOPE   C12  908   5.425   5.655  17.087
    8DOPE  H12A  909   5.512   5.710  17.045
    8DOPE  H12B  910   5.366   5.723  17.153
    8DOPE   C11  911   5.343   5.599  16.972
    8DOPE  H11A  912   5.314   5.681  16.902
    8DOPE  H11B  913   5.249   5.555  17.012
    8DOPE     P  914   5.353   5.373  16.845
    8DOPE   O13  915   5.226   5.410  16.779
    8DOPE   O14  916   5.346   5.285  16.964
    8DOPE   O11  917   5.462   5.320  16.745
    8DOPE   O12  918   5.422   5.504  16.901
    8DOPE    C1  919   5.592   5.291  16.798
    8DOPE    HA  920   5.584   5.224  16.886
    8DOPE    HB  921   5.645   5.384  16.828
    8DOPE    C2  922   5.681   5.211  16.698
    8DOPE    HS  923   5.779   5.191  16.747
    8DOPE   O21  924   5.702   5.286  16.578
    8DOPE   C21  925   5.789   5.384  16.591
    8DOPE   O22  926   5.844   5.420  16.694
    8DOPE   C22  927   5.814   5.449  16.456
    8DOPE   H2R  928   5.924   5.466  16.449
    8DOPE   H2S  929   5.760   5.546  16.455
    8DOPE    C3  930   5.618   5.072  16.667
    8DOPE    HX  931   5.604   5.020  16.764
    8DOPE    HY  932   5.693   5.012  16.610
    8DOPE   O31  933   5.490   5.079  16.600
    8DOPE   C31  934   5.498   5.077  16.467
    8DOPE   O32  935   5.598   5.056  16.402
    8DOPE   C32  936   5.359   5.090  16.407
    8DOPE   H2X  937   5.338   4.989  16.366
    8DOPE   H2Y  938   5.284   5.116  16.485
    8DOPE   C23  939   5.772   5.365  16.334
    8DOPE   H3R  940   5.665   5.338  16.337
    8DOPE   H3S  941   5.830   5.271  16.332
    8DOPE   C24  942   5.807   5.437  16.205
    8DOPE   H4R  943   5.915   5.465  16.204
    8DOPE   H4S  944   5.747   5.530  16.204
    8DOPE   C25  945   5.777   5.353  16.082
    8DOPE   H5R  946   5.765   5.420  15.993
    8DOPE   H5S  947   5.681   5.299  16.096
    8DOPE   C26  948   5.891   5.257  16.054
    8DOPE   H6R  949   5.952   5.245  16.147
    8DOPE   H6S  950   5.958   5.300  15.977
    8DOPE   C27  951   5.845   5.118  16.012
    8DOPE   H7R  952   5.770   5.082  16.086
    8DOPE   H7S  953   5.933   5.051  16.017
    8DOPE   C28  954   5.787   5.119  15.871
    8DOPE   H8R  955   5.866   5.148  15.799
    8DOPE   H8S  956   5.705   5.194  15.865
    8DOPE   C29  957   5.737   4.982  15.840
    8DOPE   H9R  958   5.808   4.917  15.786
    8DOPE  C210  959   5.615   4.935  15.863
    8DOPE  H10R  960   5.590   4.833  15.829
    8DOPE  C211  961   5.502   5.013  15.922
    8DOPE  H11R  962   5.536   5.088  15.997
    8DOPE  H11S  963   5.430   4.945  15.973
    8DOPE  C212  964   5.434   5.083  15.804
    8DOPE  H12R  965   5.494   5.170  15.770
    8DOPE  H12S  966   5.335   5.122  15.837
    8DOPE  C213  967   5.416   4.988  15.685
    8DOPE  H13R  968   5.392   4.886  15.724
    8DOPE  H13S  969   5.510   4.979  15.627
    8DOPE  C214  970   5.306   5.028  15.591
    8DOPE  H14R  971   5.211   5.045  15.646
    8DOPE  H14S  972   5.292   4.940  15.525
    8DOPE  C215  973   5.342   5.151  15.509
    8DOPE  H15R  974   5.442   5.135  15.464
    8DOPE  H15S  975   5.349   5.241  15.574
    8DOPE  C216  976   5.242   5.177  15.396
    8DOPE  H16R  977   5.292   5.249  15.328
    8DOPE  H16S  978   5.150   5.226  15.436
    8DOPE  C217  979   5.202   5.050  15.319
    8DOPE  H17R  980   5.288   4.980  15.317
    8DOPE  H17S  981   5.184   5.077  15.213
    8DOPE  C218  982   5.077   4.981  15.374
    8DOPE  H18R  983   4.988   5.045  15.355
    8DOPE  H18S  984   5.083   4.963  15.483
    8DOPE  H18T  985   5.064   4.882  15.324
    8DOPE   C33  986   5.358   5.189  16.290
    8DOPE   H3X  987   5.270   5.168  16.224
    8DOPE   H3Y  988   5.449   5.174  16.229
    8DOPE   C34  989   5.348   5.335  16.336
    8DOPE   H4X  990   5.241   5.358  16.358
    8DOPE   H4Y  991   5.404   5.348  16.431
    8DOPE   C35  992   5.403   5.436  16.235
    8DOPE   H5X  993   5.512   5.448  16.253
    8DOPE   H5Y  994   5.357   5.535  16.253
    8DOPE   C36  995   5.387   5.397  16.087
    8DOPE   H6X  996   5.280   5.385  16.062
    8DOPE   H6Y  997   5.439   5.302  16.064
    8DOPE   C37  998   5.450   5.506  16.000
    8DOPE   H7X  999   5.394   5.599  16.020
    8DOPE   H7Y 1000   5.555   5.522  16.033
    8DOPE   C38 1001   5.456   5.472  15.850
    8DOPE   H8X 1002   5.366   5.414  15.822
    8DOPE   H8Y 1003   5.543   5.406  15.831
    8DOPE   C39 1004   5.462   5.604  15.775
    8DOPE   H9X 1005   5.391   5.679  15.810
    8DOPE  C310 1006   5.548   5.638  15.679
    8DOPE  H10X 1007   5.542   5.737  15.632
    8DOPE  C311 1008   5.654   5.545  15.629
    8DOPE  H11X 1009   5.609   5.445  15.610
    8DOPE  H11Y 1010   5.694   5.583  15.532
    8DOPE  C312 1011   5.774   5.531  15.722
    8DOPE  H12X 1012   5.738   5.531  15.828
    8DOPE  H12Y 1013   5.842   5.618  15.711
    8DOPE  C313 1014   5.847   5.399  15.696
    8DOPE  H13X 1015   5.918   5.377  15.779
    8DOPE  H13Y 1016   5.770   5.320  15.696
    8DOPE  C314 1017   5.923   5.395  15.563
    8DOPE  H14X 1018   6.028   5.430  15.579
    8DOPE  H14Y 1019   5.877   5.467  15.493
    8DOPE  C315 1020   5.926   5.256  15.497
    8DOPE  H15X 1021   5.965   5.180  15.568
    8DOPE  H15Y 1022   5.997   5.261  15.411
    8DOPE  C316 1023   5.789   5.210  15.444
    8DOPE  H16X 1024   5.723   5.188  15.530
    8DOPE  H16Y 1025   5.804   5.114  15.391
    8DOPE  C317 1026   5.721   5.313  15.352
    8DOPE  H17X 1027   5.619   5.275  15.328
    8DOPE  H17Y 1028   5.702   5.404  15.412
    8DOPE  C318 1029   5.796   5.349  15.222
    8DOPE  H18X 1030   5.905   5.326  15.230
    8DOPE  H18Y 1031   5.784   5.457  15.196
    8DOPE  H18Z 1032   5.756   5.297  15.133
    9DOPE     N 1033   1.307   4.678  16.684
    9DOPE   HN1 1034   1.399   4.678  16.636
    9DOPE   HN2 1035   1.232   4.713  16.620
    9DOPE   HN3 1036   1.313   4.745  16.763
    9DOPE   C12 1037   1.259   4.549  16.743
    9DOPE  H12A 1038   1.286   4.465  16.675
    9DOPE  H12B 1039   1.148   4.555  16.748
    9DOPE   C11 1040   1.313   4.531  16.886
    9DOPE  H11A 1041   1.412   4.481  16.882
    9DOPE  H11B 1042   1.246   4.462  16.942
    9DOPE     P 1043   1.214   4.716  17.045
    9DOPE   O13 1044   1.226   4.863  17.051
    9DOPE   O14 1045   1.208   4.639  17.171
    9DOPE   O11 1046   1.095   4.679  16.952
    9DOPE   O12 1047   1.329   4.657  16.953
    9DOPE    C1 1048   0.962   4.670  17.000
    9DOPE    HA 1049   0.934   4.756  17.064
    9DOPE    HB 1050   0.949   4.576  17.058
    9DOPE    C2 1051   0.865   4.667  16.879
    9DOPE    HS 1052   0.764   4.638  16.915
    9DOPE   O21 1053   0.912   4.580  16.776
    9DOPE   C21 1054   0.859   4.460  16.771
    9DOPE   O22 1055   0.784   4.412  16.854
    9DOPE   C22 1056   0.906   4.390  16.643
    9DOPE   H2R 1057   0.829   4.314  16.619
    9DOPE   H2S 1058   1.002   4.339  16.667
    9DOPE    C3 1059   0.850   4.808  16.816
    9DOPE    HX 1060   0.782   4.865  16.884
    9DOPE    HY 1061   0.796   4.794  16.720
    9DOPE   O31 1062   0.969   4.889  16.797
    9DOPE   C31 1063   1.045   4.861  16.693
    9DOPE   O32 1064   1.053   4.755  16.635
    9DOPE   C32 1065   1.122   4.983  16.646
    9DOPE   H2X 1066   1.049   5.065  16.632
    9DOPE   H2Y 1067   1.194   5.013  16.725
    9DOPE   C23 1068   0.922   4.482  16.519
    9DOPE   H3R 1069   1.001   4.558  16.537
    9DOPE   H3S 1070   0.826   4.536  16.500
    9DOPE   C24 1071   0.961   4.408  16.390
    9DOPE   H4R 1072   0.963   4.480  16.306
    9DOPE   H4S 1073   0.884   4.331  16.367
    9DOPE   C25 1074   1.099   4.340  16.400
    9DOPE   H5R 1075   1.101   4.276  16.491
    9DOPE   H5S 1076   1.178   4.417  16.411
    9DOPE   C26 1077   1.132   4.248  16.282
    9DOPE   H6R 1078   1.049   4.177  16.260
    9DOPE   H6S 1079   1.218   4.187  16.316
    9DOPE   C27 1080   1.178   4.322  16.156
    9DOPE   H7R 1081   1.261   4.265  16.108
    9DOPE   H7S 1082   1.221   4.418  16.192
    9DOPE   C28 1083   1.072   4.352  16.050
    9DOPE   H8R 1084   1.122   4.416  15.973
    9DOPE   H8S 1085   0.992   4.415  16.095
    9DOPE   C29 1086   1.011   4.231  15.984
    9DOPE   H9R 1087   0.929   4.186  16.040
    9DOPE  C210 1088   1.051   4.173  15.869
    9DOPE  H10R 1089   0.996   4.085  15.832
    9DOPE  C211 1090   1.166   4.217  15.781
    9DOPE  H11R 1091   1.247   4.141  15.789
    9DOPE  H11S 1092   1.211   4.313  15.816
    9DOPE  C212 1093   1.136   4.233  15.631
    9DOPE  H12R 1094   1.072   4.323  15.615
    9DOPE  H12S 1095   1.080   4.145  15.592
    9DOPE  C213 1096   1.267   4.247  15.552
    9DOPE  H13R 1097   1.318   4.148  15.551
    9DOPE  H13S 1098   1.334   4.318  15.605
    9DOPE  C214 1099   1.248   4.296  15.409
    9DOPE  H14R 1100   1.218   4.403  15.412
    9DOPE  H14S 1101   1.166   4.240  15.359
    9DOPE  C215 1102   1.377   4.281  15.328
    9DOPE  H15R 1103   1.397   4.173  15.309
    9DOPE  H15S 1104   1.460   4.322  15.389
    9DOPE  C216 1105   1.373   4.356  15.195
    9DOPE  H16R 1106   1.332   4.456  15.218
    9DOPE  H16S 1107   1.304   4.307  15.123
    9DOPE  C217 1108   1.512   4.374  15.132
    9DOPE  H17R 1109   1.585   4.391  15.214
    9DOPE  H17S 1110   1.513   4.467  15.071
    9DOPE  C218 1111   1.560   4.258  15.045
    9DOPE  H18R 1112   1.560   4.163  15.102
    9DOPE  H18S 1113   1.662   4.278  15.005
    9DOPE  H18T 1114   1.493   4.242  14.957
    9DOPE   C33 1115   1.199   4.955  16.513
    9DOPE   H3X 1116   1.272   4.872  16.524
    9DOPE   H3Y 1117   1.261   5.044  16.489
    9DOPE   C34 1118   1.110   4.922  16.392
    9DOPE   H4X 1119   1.047   4.832  16.413
    9DOPE   H4Y 1120   1.038   5.005  16.373
    9DOPE   C35 1121   1.185   4.891  16.262
    9DOPE   H5X 1122   1.283   4.945  16.259
    9DOPE   H5Y 1123   1.124   4.931  16.178
    9DOPE   C36 1124   1.203   4.740  16.242
    9DOPE   H6X 1125   1.103   4.691  16.251
    9DOPE   H6Y 1126   1.268   4.701  16.323
    9DOPE   C37 1127   1.264   4.698  16.107
    9DOPE   H7X 1128   1.370   4.733  16.108
    9DOPE   H7Y 1129   1.270   4.588  16.099
    9DOPE   C38 1130   1.198   4.753  15.980
    9DOPE   H8X 1131   1.275   4.744  15.900
    9DOPE   H8Y 1132   1.176   4.862  15.989
    9DOPE   C39 1133   1.075   4.677  15.940
    9DOPE   H9X 1134   1.024   4.623  16.021
    9DOPE  C310 1135   1.023   4.677  15.817
    9DOPE  H10X 1136   0.931   4.620  15.797
    9DOPE  C311 1137   1.080   4.755  15.701
    9DOPE  H11X 1138   1.035   4.856  15.696
    9DOPE  H11Y 1139   1.190   4.769  15.711
    9DOPE  C312 1140   1.055   4.685  15.567
    9DOPE  H12X 1141   0.947   4.688  15.540
    9DOPE  H12Y 1142   1.085   4.579  15.574
    9DOPE  C313 1143   1.139   4.751  15.456
    9DOPE  H13X 1144   1.243   4.766  15.492
    9DOPE  H13Y 1145   1.147   4.677  15.373
    9DOPE  C314 1146   1.082   4.884  15.403
    9DOPE  H14X 1147   1.145   4.967  15.441
    9DOPE  H14Y 1148   0.979   4.900  15.442
    9DOPE  C315 1149   1.077   4.888  15.249
    9DOPE  H15X 1150   0.978   4.851  15.215
    9DOPE  H15Y 1151   1.154   4.819  15.210
    9DOPE  C316 1152   1.104   5.026  15.189
    9DOPE  H16X 1153   1.210   5.052  15.208
    9DOPE  H16Y 1154   1.040   5.100  15.241
    9DOPE  C317 1155   1.076   5.035  15.037
    9DOPE  H17X 1156   1.000   4.958  15.011
    9DOPE  H17Y 1157   1.030   5.134  15.018
    9DOPE  C318 1158   1.197   5.022  14.944
    9DOPE  H18X 1159   1.282   5.084  14.979
    9DOPE  H18Y 1160   1.232   4.917  14.937
    9DOPE  H18Z 1161   1.170   5.054  14.841
   10DOPE     N 1162   2.098   6.187  16.999
   10DOPE   HN1 1163   2.048   6.177  17.090
   10DOPE   HN2 1164   2.188   6.138  17.014
   10DOPE   HN3 1165   2.113   6.287  16.979
   10DOPE   C12 1166   2.019   6.115  16.893
   10DOPE  H12A 1167   2.037   6.167  16.797
   10DOPE  H12B 1168   1.912   6.125  16.922
   10DOPE   C11 1169   2.057   5.966  16.886
   10DOPE  H11A 1170   2.166   5.957  16.865
   10DOPE  H11B 1171   2.006   5.922  16.798
   10DOPE     P 1172   1.977   5.748  17.005
   10DOPE   O13 1173   1.979   5.694  17.142
   10DOPE   O14 1174   2.055   5.675  16.905
   10DOPE   O11 1175   1.825   5.768  16.961
   10DOPE   O12 1176   2.026   5.900  17.009
   10DOPE    C1 1177   1.722   5.672  16.988
   10DOPE    HA 1178   1.643   5.717  17.051
   10DOPE    HB 1179   1.762   5.585  17.045
   10DOPE    C2 1180   1.652   5.610  16.862
   10DOPE    HS 1181   1.613   5.511  16.892
   10DOPE   O21 1182   1.750   5.594  16.757
   10DOPE   C21 1183   1.842   5.500  16.775
   10DOPE   O22 1184   1.838   5.413  16.862
   10DOPE   C22 1185   1.950   5.512  16.666
   10DOPE   H2R 1186   2.032   5.577  16.703
   10DOPE   H2S 1187   1.907   5.563  16.577
   10DOPE    C3 1188   1.522   5.688  16.808
   10DOPE    HX 1189   1.452   5.705  16.893
   10DOPE    HY 1190   1.480   5.610  16.741
   10DOPE   O31 1191   1.537   5.810  16.730
   10DOPE   C31 1192   1.432   5.854  16.652
   10DOPE   O32 1193   1.321   5.805  16.662
   10DOPE   C32 1194   1.459   5.981  16.551
   10DOPE   H2X 1195   1.355   6.010  16.524
   10DOPE   H2Y 1196   1.490   6.056  16.627
   10DOPE   C23 1197   2.011   5.379  16.622
   10DOPE   H3R 1198   2.065   5.328  16.704
   10DOPE   H3S 1199   2.084   5.396  16.540
   10DOPE   C24 1200   1.913   5.288  16.552
   10DOPE   H4R 1201   1.843   5.245  16.627
   10DOPE   H4S 1202   1.976   5.207  16.510
   10DOPE   C25 1203   1.833   5.352  16.437
   10DOPE   H5R 1204   1.766   5.432  16.474
   10DOPE   H5S 1205   1.766   5.274  16.393
   10DOPE   C26 1206   1.917   5.398  16.318
   10DOPE   H6R 1207   2.015   5.345  16.320
   10DOPE   H6S 1208   1.937   5.506  16.332
   10DOPE   C27 1209   1.851   5.367  16.181
   10DOPE   H7R 1210   1.823   5.260  16.174
   10DOPE   H7S 1211   1.924   5.385  16.099
   10DOPE   C28 1212   1.722   5.444  16.155
   10DOPE   H8R 1213   1.654   5.429  16.241
   10DOPE   H8S 1214   1.670   5.399  16.067
   10DOPE   C29 1215   1.757   5.589  16.132
   10DOPE   H9R 1216   1.828   5.631  16.205
   10DOPE  C210 1217   1.708   5.671  16.039
   10DOPE  H10R 1218   1.745   5.774  16.034
   10DOPE  C211 1219   1.606   5.632  15.936
   10DOPE  H11R 1220   1.565   5.723  15.887
   10DOPE  H11S 1221   1.522   5.582  15.987
   10DOPE  C212 1222   1.663   5.539  15.827
   10DOPE  H12R 1223   1.584   5.519  15.752
   10DOPE  H12S 1224   1.693   5.441  15.870
   10DOPE  C213 1225   1.784   5.599  15.755
   10DOPE  H13R 1226   1.860   5.632  15.829
   10DOPE  H13S 1227   1.750   5.689  15.699
   10DOPE  C214 1228   1.855   5.502  15.660
   10DOPE  H14R 1229   1.903   5.421  15.718
   10DOPE  H14S 1230   1.936   5.559  15.609
   10DOPE  C215 1231   1.764   5.439  15.553
   10DOPE  H15R 1232   1.690   5.514  15.518
   10DOPE  H15S 1233   1.708   5.355  15.599
   10DOPE  C216 1234   1.846   5.389  15.434
   10DOPE  H16R 1235   1.952   5.377  15.466
   10DOPE  H16S 1236   1.844   5.465  15.353
   10DOPE  C217 1237   1.800   5.255  15.375
   10DOPE  H17R 1238   1.790   5.180  15.457
   10DOPE  H17S 1239   1.879   5.219  15.306
   10DOPE  C218 1240   1.668   5.266  15.298
   10DOPE  H18R 1241   1.585   5.293  15.365
   10DOPE  H18S 1242   1.645   5.169  15.249
   10DOPE  H18T 1243   1.676   5.343  15.219
   10DOPE   C33 1244   1.548   5.998  16.413
   10DOPE   H3X 1245   1.472   6.018  16.335
   10DOPE   H3Y 1246   1.609   5.907  16.390
   10DOPE   C34 1247   1.661   6.094  16.356
   10DOPE   H4X 1248   1.655   6.078  16.246
   10DOPE   H4Y 1249   1.638   6.202  16.364
   10DOPE   C35 1250   1.814   6.075  16.380
   10DOPE   H5X 1251   1.837   6.068  16.488
   10DOPE   H5Y 1252   1.862   6.170  16.349
   10DOPE   C36 1253   1.895   5.964  16.307
   10DOPE   H6X 1254   1.901   5.989  16.199
   10DOPE   H6Y 1255   1.846   5.865  16.317
   10DOPE   C37 1256   2.038   5.956  16.365
   10DOPE   H7X 1257   2.078   6.060  16.370
   10DOPE   H7Y 1258   2.037   5.919  16.469
   10DOPE   C38 1259   2.141   5.874  16.285
   10DOPE   H8X 1260   2.241   5.896  16.329
   10DOPE   H8Y 1261   2.144   5.916  16.182
   10DOPE   C39 1262   2.125   5.724  16.286
   10DOPE   H9X 1263   2.136   5.677  16.384
   10DOPE  C310 1264   2.096   5.648  16.179
   10DOPE  H10X 1265   2.092   5.539  16.190
   10DOPE  C311 1266   2.074   5.695  16.038
   10DOPE  H11X 1267   2.032   5.611  15.978
   10DOPE  H11Y 1268   1.998   5.777  16.035
   10DOPE  C312 1269   2.202   5.743  15.970
   10DOPE  H12X 1270   2.285   5.673  15.994
   10DOPE  H12Y 1271   2.231   5.844  16.006
   10DOPE  C313 1272   2.188   5.747  15.818
   10DOPE  H13X 1273   2.285   5.777  15.773
   10DOPE  H13Y 1274   2.164   5.645  15.783
   10DOPE  C314 1275   2.079   5.839  15.764
   10DOPE  H14X 1276   2.095   5.944  15.796
   10DOPE  H14Y 1277   1.980   5.807  15.801
   10DOPE  C315 1278   2.082   5.829  15.611
   10DOPE  H15X 1279   2.096   5.723  15.583
   10DOPE  H15Y 1280   2.170   5.885  15.572
   10DOPE  C316 1281   1.955   5.879  15.544
   10DOPE  H16X 1282   1.942   5.987  15.567
   10DOPE  H16Y 1283   1.866   5.825  15.583
   10DOPE  C317 1284   1.963   5.858  15.393
   10DOPE  H17X 1285   1.887   5.925  15.348
   10DOPE  H17Y 1286   2.064   5.891  15.358
   10DOPE  C318 1287   1.938   5.715  15.346
   10DOPE  H18X 1288   2.012   5.645  15.389
   10DOPE  H18Y 1289   1.836   5.683  15.376
   10DOPE  H18Z 1290   1.945   5.709  15.235
   11DOPE     N 1291   1.485   2.962  17.163
   11DOPE   HN1 1292   1.490   2.936  17.264
   11DOPE   HN2 1293   1.528   3.055  17.145
   11DOPE   HN3 1294   1.385   2.965  17.134
   11DOPE   C12 1295   1.542   2.856  17.073
   11DOPE  H12A 1296   1.512   2.757  17.113
   11DOPE  H12B 1297   1.653   2.865  17.073
   11DOPE   C11 1298   1.486   2.873  16.931
   11DOPE  H11A 1299   1.487   2.775  16.880
   11DOPE  H11B 1300   1.553   2.939  16.872
   11DOPE     P 1301   1.285   2.972  16.801
   11DOPE   O13 1302   1.379   3.065  16.735
   11DOPE   O14 1303   1.150   3.023  16.834
   11DOPE   O11 1304   1.278   2.832  16.725
   11DOPE   O12 1305   1.354   2.929  16.938
   11DOPE    C1 1306   1.230   2.717  16.798
   11DOPE    HA 1307   1.145   2.743  16.865
   11DOPE    HB 1308   1.311   2.673  16.860
   11DOPE    C2 1309   1.179   2.602  16.706
   11DOPE    HS 1310   1.176   2.508  16.765
   11DOPE   O21 1311   1.257   2.583  16.589
   11DOPE   C21 1312   1.385   2.566  16.587
   11DOPE   O22 1313   1.459   2.541  16.682
   11DOPE   C22 1314   1.428   2.577  16.440
   11DOPE   H2R 1315   1.497   2.663  16.431
   11DOPE   H2S 1316   1.338   2.601  16.380
   11DOPE    C3 1317   1.036   2.632  16.656
   11DOPE    HX 1318   0.967   2.631  16.743
   11DOPE    HY 1319   1.006   2.549  16.589
   11DOPE   O31 1320   1.024   2.761  16.592
   11DOPE   C31 1321   1.074   2.775  16.470
   11DOPE   O32 1322   1.111   2.687  16.395
   11DOPE   C32 1323   1.067   2.921  16.430
   11DOPE   H2X 1324   0.959   2.947  16.420
   11DOPE   H2Y 1325   1.111   2.983  16.510
   11DOPE   C23 1326   1.490   2.448  16.381
   11DOPE   H3R 1327   1.438   2.359  16.423
   11DOPE   H3S 1328   1.596   2.439  16.411
   11DOPE   C24 1329   1.481   2.433  16.228
   11DOPE   H4R 1330   1.393   2.371  16.200
   11DOPE   H4S 1331   1.569   2.374  16.197
   11DOPE   C25 1332   1.477   2.562  16.146
   11DOPE   H5R 1333   1.538   2.542  16.055
   11DOPE   H5S 1334   1.526   2.644  16.203
   11DOPE   C26 1335   1.341   2.614  16.098
   11DOPE   H6R 1336   1.301   2.688  16.170
   11DOPE   H6S 1337   1.269   2.530  16.092
   11DOPE   C27 1338   1.356   2.678  15.958
   11DOPE   H7R 1339   1.381   2.599  15.884
   11DOPE   H7S 1340   1.444   2.745  15.965
   11DOPE   C28 1341   1.237   2.763  15.909
   11DOPE   H8R 1342   1.278   2.831  15.832
   11DOPE   H8S 1343   1.205   2.829  15.993
   11DOPE   C29 1344   1.118   2.688  15.856
   11DOPE   H9R 1345   1.045   2.657  15.932
   11DOPE  C210 1346   1.095   2.656  15.727
   11DOPE  H10R 1347   1.005   2.599  15.701
   11DOPE  C211 1348   1.185   2.690  15.611
   11DOPE  H11R 1349   1.238   2.786  15.629
   11DOPE  H11S 1350   1.128   2.704  15.517
   11DOPE  C212 1351   1.291   2.581  15.590
   11DOPE  H12R 1352   1.246   2.495  15.536
   11DOPE  H12S 1353   1.327   2.542  15.688
   11DOPE  C213 1354   1.414   2.633  15.515
   11DOPE  H13R 1355   1.454   2.723  15.566
   11DOPE  H13S 1356   1.383   2.663  15.413
   11DOPE  C214 1357   1.525   2.527  15.507
   11DOPE  H14R 1358   1.490   2.431  15.551
   11DOPE  H14S 1359   1.611   2.560  15.569
   11DOPE  C215 1360   1.569   2.501  15.363
   11DOPE  H15R 1361   1.664   2.444  15.362
   11DOPE  H15S 1362   1.586   2.598  15.312
   11DOPE  C216 1363   1.464   2.420  15.288
   11DOPE  H16R 1364   1.369   2.422  15.346
   11DOPE  H16S 1365   1.499   2.315  15.282
   11DOPE  C217 1366   1.432   2.470  15.147
   11DOPE  H17R 1367   1.397   2.576  15.154
   11DOPE  H17S 1368   1.347   2.412  15.106
   11DOPE  C218 1369   1.548   2.460  15.049
   11DOPE  H18R 1370   1.627   2.535  15.071
   11DOPE  H18S 1371   1.511   2.476  14.946
   11DOPE  H18T 1372   1.594   2.358  15.054
   11DOPE   C33 1373   1.138   2.945  16.295
   11DOPE   H3X 1374   1.106   2.870  16.220
   11DOPE   H3Y 1375   1.248   2.936  16.307
   11DOPE   C34 1376   1.100   3.083  16.244
   11DOPE   H4X 1377   0.989   3.086  16.239
   11DOPE   H4Y 1378   1.133   3.159  16.319
   11DOPE   C35 1379   1.156   3.117  16.106
   11DOPE   H5X 1380   1.071   3.143  16.039
   11DOPE   H5Y 1381   1.204   3.027  16.063
   11DOPE   C36 1382   1.257   3.233  16.108
   11DOPE   H6X 1383   1.323   3.217  16.196
   11DOPE   H6Y 1384   1.208   3.332  16.122
   11DOPE   C37 1385   1.346   3.236  15.983
   11DOPE   H7X 1386   1.447   3.273  16.012
   11DOPE   H7Y 1387   1.356   3.132  15.946
   11DOPE   C38 1388   1.299   3.321  15.865
   11DOPE   H8X 1389   1.362   3.299  15.776
   11DOPE   H8Y 1390   1.317   3.427  15.894
   11DOPE   C39 1391   1.153   3.300  15.836
   11DOPE   H9X 1392   1.092   3.391  15.851
   11DOPE  C310 1393   1.094   3.196  15.777
   11DOPE  H10X 1394   0.985   3.199  15.762
   11DOPE  C311 1395   1.161   3.074  15.721
   11DOPE  H11X 1396   1.267   3.061  15.753
   11DOPE  H11Y 1397   1.105   2.981  15.739
   11DOPE  C312 1398   1.156   3.118  15.575
   11DOPE  H12X 1399   1.215   3.211  15.562
   11DOPE  H12Y 1400   1.051   3.138  15.545
   11DOPE  C313 1401   1.208   3.025  15.468
   11DOPE  H13X 1402   1.314   2.994  15.484
   11DOPE  H13Y 1403   1.145   2.933  15.463
   11DOPE  C314 1404   1.194   3.109  15.342
   11DOPE  H14X 1405   1.282   3.177  15.332
   11DOPE  H14Y 1406   1.104   3.173  15.351
   11DOPE  C315 1407   1.172   3.029  15.217
   11DOPE  H15X 1408   1.245   2.945  15.220
   11DOPE  H15Y 1409   1.193   3.096  15.131
   11DOPE  C316 1410   1.033   2.969  15.207
   11DOPE  H16X 1411   0.961   3.053  15.195
   11DOPE  H16Y 1412   1.007   2.912  15.299
   11DOPE  C317 1413   1.022   2.878  15.087
   11DOPE  H17X 1414   1.073   2.782  15.111
   11DOPE  H17Y 1415   0.915   2.855  15.065
   11DOPE  C318 1416   1.088   2.939  14.964
   11DOPE  H18X 1417   1.051   3.041  14.944
   11DOPE  H18Y 1418   1.199   2.944  14.977
   11DOPE  H18Z 1419   1.070   2.877  14.873
   12DOPE     N 1420   3.076   6.503  16.889
   12DOPE   HN1 1421   2.995   6.515  16.826
   12DOPE   HN2 1422   3.163   6.483  16.836
   12DOPE   HN3 1423   3.056   6.426  16.956
   12DOPE   C12 1424   3.107   6.630  16.963
   12DOPE  H12A 1425   3.040   6.639  17.051
   12DOPE  H12B 1426   3.090   6.715  16.894
   12DOPE   C11 1427   3.255   6.627  17.001
   12DOPE  H11A 1428   3.277   6.543  17.071
   12DOPE  H11B 1429   3.278   6.722  17.055
   12DOPE     P 1430   3.452   6.708  16.855
   12DOPE   O13 1431   3.512   6.673  16.725
   12DOPE   O14 1432   3.539   6.704  16.976
   12DOPE   O11 1433   3.369   6.843  16.849
   12DOPE   O12 1434   3.333   6.606  16.883
   12DOPE    C1 1435   3.403   6.951  16.760
   12DOPE    HA 1436   3.485   6.924  16.690
   12DOPE    HB 1437   3.442   7.035  16.821
   12DOPE    C2 1438   3.284   7.007  16.674
   12DOPE    HS 1439   3.283   7.117  16.686
   12DOPE   O21 1440   3.157   6.951  16.716
   12DOPE   C21 1441   3.052   7.007  16.657
   12DOPE   O22 1442   3.053   7.114  16.598
   12DOPE   C22 1443   2.928   6.922  16.679
   12DOPE   H2R 1444   2.840   6.990  16.676
   12DOPE   H2S 1445   2.934   6.875  16.780
   12DOPE    C3 1446   3.309   6.976  16.523
   12DOPE    HX 1447   3.401   7.032  16.493
   12DOPE    HY 1448   3.226   7.011  16.458
   12DOPE   O31 1449   3.331   6.836  16.508
   12DOPE   C31 1450   3.375   6.798  16.390
   12DOPE   O32 1451   3.382   6.868  16.290
   12DOPE   C32 1452   3.412   6.651  16.402
   12DOPE   H2X 1453   3.487   6.641  16.484
   12DOPE   H2Y 1454   3.320   6.598  16.434
   12DOPE   C23 1455   2.906   6.812  16.573
   12DOPE   H3R 1456   2.891   6.859  16.474
   12DOPE   H3S 1457   2.813   6.757  16.598
   12DOPE   C24 1458   3.024   6.714  16.569
   12DOPE   H4R 1459   3.052   6.684  16.672
   12DOPE   H4S 1460   3.111   6.768  16.526
   12DOPE   C25 1461   3.002   6.589  16.484
   12DOPE   H5R 1462   2.928   6.524  16.535
   12DOPE   H5S 1463   3.097   6.533  16.475
   12DOPE   C26 1464   2.947   6.618  16.343
   12DOPE   H6R 1465   2.845   6.661  16.354
   12DOPE   H6S 1466   2.940   6.520  16.291
   12DOPE   C27 1467   3.020   6.716  16.252
   12DOPE   H7R 1468   3.124   6.681  16.233
   12DOPE   H7S 1469   3.027   6.817  16.299
   12DOPE   C28 1470   2.942   6.726  16.119
   12DOPE   H8R 1471   2.847   6.782  16.137
   12DOPE   H8S 1472   2.913   6.623  16.089
   12DOPE   C29 1473   3.024   6.793  16.012
   12DOPE   H9R 1474   3.066   6.890  16.041
   12DOPE  C210 1475   3.050   6.744  15.890
   12DOPE  H10R 1476   3.118   6.801  15.825
   12DOPE  C211 1477   3.004   6.614  15.828
   12DOPE  H11R 1478   2.942   6.552  15.897
   12DOPE  H11S 1479   3.094   6.554  15.803
   12DOPE  C212 1480   2.925   6.635  15.698
   12DOPE  H12R 1481   2.825   6.677  15.719
   12DOPE  H12S 1482   2.910   6.536  15.649
   12DOPE  C213 1483   2.997   6.727  15.599
   12DOPE  H13R 1484   3.104   6.698  15.592
   12DOPE  H13S 1485   2.993   6.832  15.634
   12DOPE  C214 1486   2.936   6.721  15.459
   12DOPE  H14R 1487   2.827   6.741  15.464
   12DOPE  H14S 1488   2.950   6.619  15.417
   12DOPE  C215 1489   3.002   6.822  15.367
   12DOPE  H15R 1490   3.112   6.805  15.366
   12DOPE  H15S 1491   2.985   6.925  15.405
   12DOPE  C216 1492   2.947   6.812  15.225
   12DOPE  H16R 1493   2.837   6.827  15.228
   12DOPE  H16S 1494   2.966   6.710  15.184
   12DOPE  C217 1495   3.008   6.916  15.133
   12DOPE  H17R 1496   2.989   7.017  15.174
   12DOPE  H17S 1497   2.949   6.912  15.039
   12DOPE  C218 1498   3.158   6.898  15.106
   12DOPE  H18R 1499   3.199   6.983  15.048
   12DOPE  H18S 1500   3.174   6.806  15.045
   12DOPE  H18T 1501   3.216   6.889  15.200
   12DOPE   C33 1502   3.469   6.589  16.273
   12DOPE   H3X 1503   3.580   6.592  16.278
   12DOPE   H3Y 1504   3.438   6.645  16.182
   12DOPE   C34 1505   3.420   6.445  16.260
   12DOPE   H4X 1506   3.488   6.388  16.193
   12DOPE   H4Y 1507   3.430   6.397  16.360
   12DOPE   C35 1508   3.274   6.437  16.212
   12DOPE   H5X 1509   3.210   6.503  16.273
   12DOPE   H5Y 1510   3.236   6.333  16.227
   12DOPE   C36 1511   3.255   6.466  16.062
   12DOPE   H6X 1512   3.282   6.571  16.039
   12DOPE   H6Y 1513   3.148   6.453  16.037
   12DOPE   C37 1514   3.339   6.370  15.978
   12DOPE   H7X 1515   3.447   6.393  15.992
   12DOPE   H7Y 1516   3.322   6.267  16.016
   12DOPE   C38 1517   3.308   6.376  15.829
   12DOPE   H8X 1518   3.333   6.478  15.792
   12DOPE   H8Y 1519   3.200   6.362  15.811
   12DOPE   C39 1520   3.387   6.267  15.761
   12DOPE   H9X 1521   3.352   6.165  15.782
   12DOPE  C310 1522   3.492   6.284  15.679
   12DOPE  H10X 1523   3.539   6.195  15.633
   12DOPE  C311 1524   3.551   6.416  15.639
   12DOPE  H11X 1525   3.532   6.495  15.715
   12DOPE  H11Y 1526   3.662   6.407  15.631
   12DOPE  C312 1527   3.496   6.466  15.503
   12DOPE  H12X 1528   3.516   6.389  15.425
   12DOPE  H12Y 1529   3.552   6.558  15.475
   12DOPE  C313 1530   3.346   6.500  15.505
   12DOPE  H13X 1531   3.287   6.407  15.518
   12DOPE  H13Y 1532   3.326   6.566  15.593
   12DOPE  C314 1533   3.298   6.573  15.379
   12DOPE  H14X 1534   3.351   6.670  15.372
   12DOPE  H14Y 1535   3.190   6.594  15.390
   12DOPE  C315 1536   3.320   6.494  15.250
   12DOPE  H15X 1537   3.264   6.398  15.256
   12DOPE  H15Y 1538   3.428   6.470  15.237
   12DOPE  C316 1539   3.273   6.573  15.128
   12DOPE  H16X 1540   3.332   6.667  15.123
   12DOPE  H16Y 1541   3.166   6.600  15.142
   12DOPE  C317 1542   3.288   6.499  14.995
   12DOPE  H17X 1543   3.395   6.471  14.981
   12DOPE  H17Y 1544   3.229   6.405  14.999
   12DOPE  C318 1545   3.242   6.581  14.874
   12DOPE  H18X 1546   3.255   6.525  14.780
   12DOPE  H18Y 1547   3.134   6.608  14.884
   12DOPE  H18Z 1548   3.300   6.676  14.867
   13DOPE     N 1549   2.503   1.095  17.199
   13DOPE   HN1 1550   2.499   1.199  17.204
   13DOPE   HN2 1551   2.466   1.053  17.286
   13DOPE   HN3 1552   2.605   1.074  17.193
   13DOPE   C12 1553   2.431   1.042  17.078
   13DOPE  H12A 1554   2.324   1.030  17.103
   13DOPE  H12B 1555   2.475   0.943  17.054
   13DOPE   C11 1556   2.448   1.136  16.958
   13DOPE  H11A 1557   2.393   1.231  16.976
   13DOPE  H11B 1558   2.402   1.086  16.871
   13DOPE     P 1559   2.631   1.214  16.794
   13DOPE   O13 1560   2.742   1.311  16.807
   13DOPE   O14 1561   2.510   1.255  16.721
   13DOPE   O11 1562   2.687   1.077  16.735
   13DOPE   O12 1563   2.587   1.164  16.938
   13DOPE    C1 1564   2.795   1.013  16.803
   13DOPE    HA 1565   2.770   0.995  16.910
   13DOPE    HB 1566   2.885   1.078  16.800
   13DOPE    C2 1567   2.834   0.875  16.741
   13DOPE    HS 1568   2.923   0.836  16.795
   13DOPE   O21 1569   2.863   0.886  16.601
   13DOPE   C21 1570   2.971   0.955  16.572
   13DOPE   O22 1571   3.056   0.992  16.651
   13DOPE   C22 1572   2.975   0.984  16.422
   13DOPE   H2R 1573   2.887   0.937  16.373
   13DOPE   H2S 1574   3.068   0.940  16.380
   13DOPE    C3 1575   2.722   0.768  16.759
   13DOPE    HX 1576   2.729   0.726  16.861
   13DOPE    HY 1577   2.744   0.683  16.691
   13DOPE   O31 1578   2.588   0.818  16.739
   13DOPE   C31 1579   2.553   0.831  16.611
   13DOPE   O32 1580   2.612   0.785  16.516
   13DOPE   C32 1581   2.421   0.907  16.602
   13DOPE   H2X 1582   2.340   0.837  16.634
   13DOPE   H2Y 1583   2.425   0.992  16.673
   13DOPE   C23 1584   2.971   1.136  16.404
   13DOPE   H3R 1585   2.967   1.158  16.295
   13DOPE   H3S 1586   3.064   1.183  16.444
   13DOPE   C24 1587   2.849   1.195  16.478
   13DOPE   H4R 1588   2.857   1.177  16.587
   13DOPE   H4S 1589   2.758   1.143  16.441
   13DOPE   C25 1590   2.827   1.345  16.461
   13DOPE   H5R 1591   2.914   1.401  16.503
   13DOPE   H5S 1592   2.737   1.374  16.519
   13DOPE   C26 1593   2.808   1.377  16.314
   13DOPE   H6R 1594   2.794   1.280  16.261
   13DOPE   H6S 1595   2.903   1.418  16.274
   13DOPE   C27 1596   2.683   1.460  16.281
   13DOPE   H7R 1597   2.703   1.569  16.295
   13DOPE   H7S 1598   2.601   1.432  16.351
   13DOPE   C28 1599   2.640   1.429  16.137
   13DOPE   H8R 1600   2.639   1.318  16.126
   13DOPE   H8S 1601   2.720   1.464  16.068
   13DOPE   C29 1602   2.508   1.479  16.089
   13DOPE   H9R 1603   2.442   1.527  16.163
   13DOPE  C210 1604   2.469   1.462  15.962
   13DOPE  H10R 1605   2.370   1.498  15.930
   13DOPE  C211 1606   2.550   1.393  15.855
   13DOPE  H11R 1607   2.514   1.289  15.843
   13DOPE  H11S 1608   2.659   1.388  15.878
   13DOPE  C212 1609   2.534   1.467  15.722
   13DOPE  H12R 1610   2.578   1.569  15.728
   13DOPE  H12S 1611   2.426   1.479  15.702
   13DOPE  C213 1612   2.595   1.394  15.602
   13DOPE  H13R 1613   2.572   1.285  15.608
   13DOPE  H13S 1614   2.706   1.406  15.600
   13DOPE  C214 1615   2.531   1.453  15.478
   13DOPE  H14R 1616   2.547   1.563  15.478
   13DOPE  H14S 1617   2.422   1.434  15.487
   13DOPE  C215 1618   2.574   1.398  15.342
   13DOPE  H15R 1619   2.551   1.290  15.336
   13DOPE  H15S 1620   2.682   1.412  15.325
   13DOPE  C216 1621   2.493   1.475  15.236
   13DOPE  H16R 1622   2.528   1.580  15.235
   13DOPE  H16S 1623   2.387   1.480  15.270
   13DOPE  C217 1624   2.503   1.413  15.097
   13DOPE  H17R 1625   2.460   1.311  15.096
   13DOPE  H17S 1626   2.613   1.403  15.084
   13DOPE  C218 1627   2.451   1.496  14.979
   13DOPE  H18R 1628   2.347   1.469  14.952
   13DOPE  H18S 1629   2.513   1.479  14.889
   13DOPE  H18T 1630   2.452   1.605  15.002
   13DOPE   C33 1631   2.396   0.960  16.459
   13DOPE   H3X 1632   2.296   1.008  16.456
   13DOPE   H3Y 1633   2.397   0.878  16.384
   13DOPE   C34 1634   2.501   1.065  16.424
   13DOPE   H4X 1635   2.510   1.135  16.509
   13DOPE   H4Y 1636   2.600   1.015  16.412
   13DOPE   C35 1637   2.469   1.148  16.300
   13DOPE   H5X 1638   2.534   1.239  16.304
   13DOPE   H5Y 1639   2.364   1.183  16.305
   13DOPE   C36 1640   2.494   1.079  16.166
   13DOPE   H6X 1641   2.469   1.151  16.085
   13DOPE   H6Y 1642   2.425   0.993  16.156
   13DOPE   C37 1643   2.640   1.033  16.146
   13DOPE   H7X 1644   2.708   1.114  16.180
   13DOPE   H7Y 1645   2.660   0.946  16.211
   13DOPE   C38 1646   2.673   1.001  16.000
   13DOPE   H8X 1647   2.779   0.969  15.992
   13DOPE   H8Y 1648   2.660   1.093  15.938
   13DOPE   C39 1649   2.581   0.890  15.958
   13DOPE   H9X 1650   2.581   0.806  16.029
   13DOPE  C310 1651   2.497   0.887  15.854
   13DOPE  H10X 1652   2.436   0.797  15.840
   13DOPE  C311 1653   2.473   0.993  15.749
   13DOPE  H11X 1654   2.364   1.013  15.741
   13DOPE  H11Y 1655   2.522   1.090  15.773
   13DOPE  C312 1656   2.525   0.942  15.614
   13DOPE  H12X 1657   2.511   0.832  15.606
   13DOPE  H12Y 1658   2.634   0.962  15.608
   13DOPE  C313 1659   2.452   1.002  15.493
   13DOPE  H13X 1660   2.344   0.983  15.504
   13DOPE  H13Y 1661   2.467   1.112  15.489
   13DOPE  C314 1662   2.501   0.938  15.362
   13DOPE  H14X 1663   2.429   0.960  15.280
   13DOPE  H14Y 1664   2.502   0.828  15.375
   13DOPE  C315 1665   2.640   0.988  15.321
   13DOPE  H15X 1666   2.686   1.041  15.408
   13DOPE  H15Y 1667   2.631   1.062  15.239
   13DOPE  C316 1668   2.737   0.877  15.280
   13DOPE  H16X 1669   2.707   0.839  15.180
   13DOPE  H16Y 1670   2.730   0.792  15.351
   13DOPE  C317 1671   2.883   0.927  15.278
   13DOPE  H17X 1672   2.882   1.038  15.275
   13DOPE  H17Y 1673   2.931   0.897  15.373
   13DOPE  C318 1674   2.966   0.878  15.160
   13DOPE  H18X 1675   3.071   0.857  15.190
   13DOPE  H18Y 1676   2.922   0.785  15.117
   13DOPE  H18Z 1677   2.967   0.954  15.079
   14DOPE     N 1678   6.751   4.529  17.183
   14DOPE   HN1 1679   6.746   4.493  17.280
   14DOPE   HN2 1680   6.757   4.633  17.184
   14DOPE   HN3 1681   6.664   4.506  17.131
   14DOPE   C12 1682   6.867   4.472  17.106
   14DOPE  H12A 1683   6.850   4.362  17.097
   14DOPE  H12B 1684   6.961   4.491  17.162
   14DOPE   C11 1685   6.877   4.533  16.966
   14DOPE  H11A 1686   6.942   4.469  16.903
   14DOPE  H11B 1687   6.923   4.634  16.973
   14DOPE     P 1688   6.733   4.612  16.768
   14DOPE   O13 1689   6.588   4.612  16.740
   14DOPE   O14 1690   6.828   4.546  16.677
   14DOPE   O11 1691   6.784   4.758  16.804
   14DOPE   O12 1692   6.746   4.543  16.910
   14DOPE    C1 1693   6.716   4.841  16.897
   14DOPE    HA 1694   6.787   4.879  16.973
   14DOPE    HB 1695   6.637   4.786  16.953
   14DOPE    C2 1696   6.643   4.964  16.833
   14DOPE    HS 1697   6.573   5.001  16.911
   14DOPE   O21 1698   6.576   4.926  16.713
   14DOPE   C21 1699   6.452   4.885  16.730
   14DOPE   O22 1700   6.401   4.861  16.838
   14DOPE   C22 1701   6.384   4.900  16.593
   14DOPE   H2R 1702   6.410   5.001  16.555
   14DOPE   H2S 1703   6.273   4.896  16.606
   14DOPE    C3 1704   6.731   5.085  16.795
   14DOPE    HX 1705   6.785   5.117  16.887
   14DOPE    HY 1706   6.663   5.170  16.771
   14DOPE   O31 1707   6.824   5.058  16.687
   14DOPE   C31 1708   6.778   5.086  16.565
   14DOPE   O32 1709   6.675   5.147  16.542
   14DOPE   C32 1710   6.878   5.042  16.458
   14DOPE   H2X 1711   6.899   5.132  16.396
   14DOPE   H2Y 1712   6.972   5.008  16.505
   14DOPE   C23 1713   6.429   4.794  16.490
   14DOPE   H3R 1714   6.365   4.704  16.501
   14DOPE   H3S 1715   6.533   4.762  16.510
   14DOPE   C24 1716   6.424   4.845  16.345
   14DOPE   H4R 1717   6.510   4.913  16.328
   14DOPE   H4S 1718   6.332   4.905  16.327
   14DOPE   C25 1719   6.429   4.729  16.245
   14DOPE   H5R 1720   6.327   4.691  16.224
   14DOPE   H5S 1721   6.481   4.645  16.297
   14DOPE   C26 1722   6.505   4.754  16.114
   14DOPE   H6R 1723   6.508   4.657  16.060
   14DOPE   H6S 1724   6.611   4.782  16.135
   14DOPE   C27 1725   6.446   4.857  16.017
   14DOPE   H7R 1726   6.512   4.946  16.016
   14DOPE   H7S 1727   6.347   4.893  16.055
   14DOPE   C28 1728   6.434   4.800  15.874
   14DOPE   H8R 1729   6.526   4.744  15.846
   14DOPE   H8S 1730   6.424   4.883  15.802
   14DOPE   C29 1731   6.314   4.711  15.869
   14DOPE   H9R 1732   6.232   4.754  15.927
   14DOPE  C210 1733   6.293   4.593  15.810
   14DOPE  H10R 1734   6.195   4.544  15.826
   14DOPE  C211 1735   6.384   4.507  15.728
   14DOPE  H11R 1736   6.412   4.423  15.795
   14DOPE  H11S 1737   6.479   4.557  15.700
   14DOPE  C212 1738   6.311   4.442  15.608
   14DOPE  H12R 1739   6.204   4.422  15.632
   14DOPE  H12S 1740   6.354   4.340  15.597
   14DOPE  C213 1741   6.320   4.512  15.471
   14DOPE  H13R 1742   6.225   4.567  15.455
   14DOPE  H13S 1743   6.324   4.434  15.392
   14DOPE  C214 1744   6.437   4.610  15.452
   14DOPE  H14R 1745   6.533   4.554  15.456
   14DOPE  H14S 1746   6.436   4.683  15.536
   14DOPE  C215 1747   6.432   4.694  15.322
   14DOPE  H15R 1748   6.525   4.755  15.317
   14DOPE  H15S 1749   6.349   4.767  15.330
   14DOPE  C216 1750   6.419   4.614  15.192
   14DOPE  H16R 1751   6.332   4.544  15.198
   14DOPE  H16S 1752   6.511   4.552  15.181
   14DOPE  C217 1753   6.403   4.703  15.068
   14DOPE  H17R 1754   6.454   4.654  14.982
   14DOPE  H17S 1755   6.455   4.800  15.085
   14DOPE  C218 1756   6.258   4.729  15.028
   14DOPE  H18R 1757   6.205   4.790  15.105
   14DOPE  H18S 1758   6.203   4.633  15.015
   14DOPE  H18T 1759   6.252   4.785  14.931
   14DOPE   C33 1760   6.826   4.928  16.368
   14DOPE   H3X 1761   6.889   4.924  16.276
   14DOPE   H3Y 1762   6.722   4.949  16.335
   14DOPE   C34 1763   6.833   4.791  16.438
   14DOPE   H4X 1764   6.936   4.769  16.471
   14DOPE   H4Y 1765   6.770   4.798  16.530
   14DOPE   C35 1766   6.779   4.674  16.354
   14DOPE   H5X 1767   6.679   4.704  16.317
   14DOPE   H5Y 1768   6.765   4.586  16.420
   14DOPE   C36 1769   6.867   4.632  16.234
   14DOPE   H6X 1770   6.958   4.583  16.274
   14DOPE   H6Y 1771   6.894   4.723  16.176
   14DOPE   C37 1772   6.797   4.535  16.138
   14DOPE   H7X 1773   6.759   4.452  16.201
   14DOPE   H7Y 1774   6.710   4.586  16.092
   14DOPE   C38 1775   6.883   4.474  16.024
   14DOPE   H8X 1776   6.817   4.414  15.958
   14DOPE   H8Y 1777   6.953   4.401  16.070
   14DOPE   C39 1778   6.960   4.570  15.938
   14DOPE   H9X 1779   7.068   4.562  15.953
   14DOPE  C310 1780   6.914   4.650  15.840
   14DOPE  H10X 1781   6.984   4.720  15.792
   14DOPE  C311 1782   6.773   4.664  15.793
   14DOPE  H11X 1783   6.718   4.568  15.799
   14DOPE  H11Y 1784   6.722   4.736  15.861
   14DOPE  C312 1785   6.761   4.721  15.649
   14DOPE  H12X 1786   6.794   4.827  15.650
   14DOPE  H12Y 1787   6.654   4.720  15.620
   14DOPE  C313 1788   6.842   4.646  15.541
   14DOPE  H13X 1789   6.949   4.645  15.570
   14DOPE  H13Y 1790   6.808   4.541  15.533
   14DOPE  C314 1791   6.830   4.716  15.404
   14DOPE  H14X 1792   6.838   4.826  15.421
   14DOPE  H14Y 1793   6.730   4.696  15.361
   14DOPE  C315 1794   6.939   4.678  15.301
   14DOPE  H15X 1795   7.040   4.683  15.348
   14DOPE  H15Y 1796   6.936   4.755  15.221
   14DOPE  C316 1797   6.920   4.541  15.237
   14DOPE  H16X 1798   6.814   4.530  15.204
   14DOPE  H16Y 1799   6.940   4.462  15.313
   14DOPE  C317 1800   7.010   4.518  15.114
   14DOPE  H17X 1801   7.113   4.551  15.140
   14DOPE  H17Y 1802   7.014   4.409  15.092
   14DOPE  C318 1803   6.964   4.592  14.988
   14DOPE  H18X 1804   6.960   4.701  15.005
   14DOPE  H18Y 1805   7.034   4.572  14.904
   14DOPE  H18Z 1806   6.863   4.557  14.958
   15DOPE     N 1807   1.181   1.829  16.832
   15DOPE   HN1 1808   1.082   1.827  16.866
   15DOPE   HN2 1809   1.201   1.928  16.808
   15DOPE   HN3 1810   1.194   1.771  16.747
   15DOPE   C12 1811   1.276   1.796  16.944
   15DOPE  H12A 1812   1.380   1.800  16.905
   15DOPE  H12B 1813   1.255   1.692  16.978
   15DOPE   C11 1814   1.261   1.895  17.061
   15DOPE  H11A 1815   1.318   1.855  17.148
   15DOPE  H11B 1816   1.155   1.901  17.095
   15DOPE     P 1817   1.226   2.134  16.958
   15DOPE   O13 1818   1.286   2.266  16.978
   15DOPE   O14 1819   1.084   2.110  16.993
   15DOPE   O11 1820   1.249   2.078  16.811
   15DOPE   O12 1821   1.313   2.024  17.031
   15DOPE    C1 1822   1.382   2.076  16.758
   15DOPE    HA 1823   1.399   1.979  16.706
   15DOPE    HB 1824   1.460   2.084  16.836
   15DOPE    C2 1825   1.408   2.188  16.655
   15DOPE    HS 1826   1.395   2.287  16.705
   15DOPE   O21 1827   1.321   2.175  16.540
   15DOPE   C21 1828   1.201   2.233  16.554
   15DOPE   O22 1829   1.158   2.285  16.654
   15DOPE   C22 1830   1.126   2.232  16.421
   15DOPE   H2R 1831   1.020   2.208  16.441
   15DOPE   H2S 1832   1.169   2.155  16.354
   15DOPE    C3 1833   1.557   2.176  16.610
   15DOPE    HX 1834   1.620   2.184  16.701
   15DOPE    HY 1835   1.584   2.262  16.546
   15DOPE   O31 1836   1.578   2.046  16.550
   15DOPE   C31 1837   1.577   2.049  16.416
   15DOPE   O32 1838   1.609   2.144  16.347
   15DOPE   C32 1839   1.530   1.915  16.363
   15DOPE   H2X 1840   1.619   1.864  16.322
   15DOPE   H2Y 1841   1.487   1.853  16.444
   15DOPE   C23 1842   1.135   2.372  16.358
   15DOPE   H3R 1843   1.241   2.400  16.344
   15DOPE   H3S 1844   1.091   2.447  16.428
   15DOPE   C24 1845   1.068   2.389  16.222
   15DOPE   H4R 1846   1.083   2.494  16.191
   15DOPE   H4S 1847   0.959   2.373  16.230
   15DOPE   C25 1848   1.129   2.295  16.117
   15DOPE   H5R 1849   1.075   2.198  16.125
   15DOPE   H5S 1850   1.235   2.270  16.141
   15DOPE   C26 1851   1.127   2.353  15.975
   15DOPE   H6R 1852   1.227   2.389  15.945
   15DOPE   H6S 1853   1.060   2.441  15.973
   15DOPE   C27 1854   1.078   2.254  15.869
   15DOPE   H7R 1855   1.154   2.174  15.856
   15DOPE   H7S 1856   1.070   2.307  15.772
   15DOPE   C28 1857   0.943   2.190  15.905
   15DOPE   H8R 1858   0.954   2.118  15.990
   15DOPE   H8S 1859   0.915   2.126  15.818
   15DOPE   C29 1860   0.840   2.295  15.940
   15DOPE   H9R 1861   0.864   2.359  16.025
   15DOPE  C210 1862   0.724   2.313  15.876
   15DOPE  H10R 1863   0.655   2.392  15.910
   15DOPE  C211 1864   0.678   2.230  15.762
   15DOPE  H11R 1865   0.568   2.212  15.771
   15DOPE  H11S 1866   0.727   2.131  15.764
   15DOPE  C212 1867   0.709   2.277  15.621
   15DOPE  H12R 1868   0.668   2.379  15.605
   15DOPE  H12S 1869   0.655   2.208  15.553
   15DOPE  C213 1870   0.856   2.269  15.583
   15DOPE  H13R 1871   0.898   2.173  15.619
   15DOPE  H13S 1872   0.914   2.352  15.629
   15DOPE  C214 1873   0.869   2.270  15.432
   15DOPE  H14R 1874   0.870   2.375  15.395
   15DOPE  H14S 1875   0.779   2.220  15.389
   15DOPE  C215 1876   0.983   2.188  15.376
   15DOPE  H15R 1877   0.948   2.144  15.280
   15DOPE  H15S 1878   1.010   2.103  15.442
   15DOPE  C216 1879   1.104   2.274  15.347
   15DOPE  H16R 1880   1.163   2.287  15.440
   15DOPE  H16S 1881   1.074   2.375  15.313
   15DOPE  C217 1882   1.186   2.208  15.237
   15DOPE  H17R 1883   1.200   2.100  15.260
   15DOPE  H17S 1884   1.286   2.256  15.241
   15DOPE  C218 1885   1.128   2.226  15.097
   15DOPE  H18R 1886   1.050   2.149  15.076
   15DOPE  H18S 1887   1.208   2.216  15.021
   15DOPE  H18T 1888   1.081   2.326  15.086
   15DOPE   C33 1889   1.425   1.933  16.250
   15DOPE   H3X 1890   1.419   2.039  16.215
   15DOPE   H3Y 1891   1.323   1.905  16.285
   15DOPE   C34 1892   1.466   1.849  16.130
   15DOPE   H4X 1893   1.561   1.895  16.095
   15DOPE   H4Y 1894   1.483   1.744  16.161
   15DOPE   C35 1895   1.370   1.852  16.011
   15DOPE   H5X 1896   1.428   1.833  15.918
   15DOPE   H5Y 1897   1.329   1.955  16.004
   15DOPE   C36 1898   1.259   1.747  16.020
   15DOPE   H6X 1899   1.196   1.769  16.108
   15DOPE   H6Y 1900   1.304   1.646  16.034
   15DOPE   C37 1901   1.171   1.744  15.894
   15DOPE   H7X 1902   1.228   1.698  15.810
   15DOPE   H7Y 1903   1.082   1.681  15.913
   15DOPE   C38 1904   1.129   1.886  15.852
   15DOPE   H8X 1905   1.220   1.944  15.829
   15DOPE   H8Y 1906   1.081   1.935  15.940
   15DOPE   C39 1907   1.037   1.890  15.734
   15DOPE   H9X 1908   0.930   1.882  15.759
   15DOPE  C310 1909   1.074   1.898  15.605
   15DOPE  H10X 1910   0.997   1.903  15.528
   15DOPE  C311 1911   1.216   1.903  15.555
   15DOPE  H11X 1912   1.272   1.818  15.599
   15DOPE  H11Y 1913   1.215   1.885  15.445
   15DOPE  C312 1914   1.298   2.031  15.581
   15DOPE  H12X 1915   1.276   2.074  15.681
   15DOPE  H12Y 1916   1.270   2.108  15.507
   15DOPE  C313 1917   1.450   2.002  15.574
   15DOPE  H13X 1918   1.506   2.096  15.595
   15DOPE  H13Y 1919   1.474   1.930  15.655
   15DOPE  C314 1920   1.495   1.943  15.440
   15DOPE  H14X 1921   1.428   1.860  15.411
   15DOPE  H14Y 1922   1.597   1.901  15.450
   15DOPE  C315 1923   1.497   2.049  15.329
   15DOPE  H15X 1924   1.595   2.100  15.329
   15DOPE  H15Y 1925   1.421   2.127  15.354
   15DOPE  C316 1926   1.463   1.996  15.189
   15DOPE  H16X 1927   1.359   1.958  15.188
   15DOPE  H16Y 1928   1.531   1.911  15.164
   15DOPE  C317 1929   1.478   2.105  15.082
   15DOPE  H17X 1930   1.421   2.196  15.112
   15DOPE  H17Y 1931   1.585   2.136  15.081
   15DOPE  C318 1932   1.434   2.067  14.941
   15DOPE  H18X 1933   1.453   2.150  14.871
   15DOPE  H18Y 1934   1.491   1.978  14.907
   15DOPE  H18Z 1935   1.325   2.043  14.939
   16DOPE     N 1936   0.474   3.691  17.121
   16DOPE   HN1 1937   0.497   3.716  17.023
   16DOPE   HN2 1938   0.388   3.739  17.154
   16DOPE   HN3 1939   0.556   3.715  17.181
   16DOPE   C12 1940   0.458   3.543  17.114
   16DOPE  H12A 1941   0.363   3.521  17.061
   16DOPE  H12B 1942   0.456   3.500  17.217
   16DOPE   C11 1943   0.576   3.492  17.032
   16DOPE  H11A 1944   0.565   3.382  17.022
   16DOPE  H11B 1945   0.672   3.509  17.085
   16DOPE     P 1946   0.566   3.478  16.776
   16DOPE   O13 1947   0.664   3.367  16.785
   16DOPE   O14 1948   0.563   3.569  16.660
   16DOPE   O11 1949   0.419   3.421  16.800
   16DOPE   O12 1950   0.579   3.564  16.908
   16DOPE    C1 1951   0.386   3.287  16.760
   16DOPE    HA 1952   0.293   3.257  16.813
   16DOPE    HB 1953   0.465   3.214  16.790
   16DOPE    C2 1954   0.362   3.275  16.607
   16DOPE    HS 1955   0.304   3.181  16.591
   16DOPE   O21 1956   0.490   3.265  16.547
   16DOPE   C21 1957   0.488   3.231  16.421
   16DOPE   O22 1958   0.402   3.165  16.365
   16DOPE   C22 1959   0.610   3.292  16.356
   16DOPE   H2R 1960   0.660   3.361  16.427
   16DOPE   H2S 1961   0.576   3.351  16.268
   16DOPE    C3 1962   0.283   3.396  16.548
   16DOPE    HX 1963   0.351   3.484  16.553
   16DOPE    HY 1964   0.199   3.418  16.616
   16DOPE   O31 1965   0.238   3.383  16.411
   16DOPE   C31 1966   0.144   3.291  16.390
   16DOPE   O32 1967   0.094   3.220  16.476
   16DOPE   C32 1968   0.103   3.282  16.242
   16DOPE   H2X 1969   0.140   3.182  16.210
   16DOPE   H2Y 1970  -0.007   3.283  16.236
   16DOPE   C23 1971   0.703   3.177  16.314
   16DOPE   H3R 1972   0.725   3.109  16.399
   16DOPE   H3S 1973   0.800   3.222  16.284
   16DOPE   C24 1974   0.644   3.103  16.195
   16DOPE   H4R 1975   0.561   3.166  16.157
   16DOPE   H4S 1976   0.598   3.008  16.228
   16DOPE   C25 1977   0.745   3.078  16.082
   16DOPE   H5R 1978   0.773   2.971  16.084
   16DOPE   H5S 1979   0.838   3.135  16.099
   16DOPE   C26 1980   0.694   3.118  15.943
   16DOPE   H6R 1981   0.748   3.056  15.868
   16DOPE   H6S 1982   0.722   3.223  15.922
   16DOPE   C27 1983   0.542   3.102  15.923
   16DOPE   H7R 1984   0.488   3.193  15.955
   16DOPE   H7S 1985   0.507   3.018  15.987
   16DOPE   C28 1986   0.505   3.063  15.780
   16DOPE   H8R 1987   0.398   3.031  15.783
   16DOPE   H8S 1988   0.567   2.974  15.758
   16DOPE   C29 1989   0.519   3.168  15.673
   16DOPE   H9R 1990   0.437   3.242  15.673
   16DOPE  C210 1991   0.616   3.180  15.582
   16DOPE  H10R 1992   0.605   3.258  15.505
   16DOPE  C211 1993   0.739   3.097  15.558
   16DOPE  H11R 1994   0.750   3.016  15.632
   16DOPE  H11S 1995   0.828   3.163  15.571
   16DOPE  C212 1996   0.746   3.040  15.414
   16DOPE  H12R 1997   0.676   2.955  15.398
   16DOPE  H12S 1998   0.848   2.999  15.403
   16DOPE  C213 1999   0.719   3.139  15.301
   16DOPE  H13R 2000   0.773   3.106  15.210
   16DOPE  H13S 2001   0.759   3.239  15.329
   16DOPE  C214 2002   0.573   3.151  15.254
   16DOPE  H14R 2003   0.566   3.247  15.198
   16DOPE  H14S 2004   0.502   3.158  15.340
   16DOPE  C215 2005   0.527   3.039  15.159
   16DOPE  H15R 2006   0.511   2.947  15.218
   16DOPE  H15S 2007   0.607   3.017  15.085
   16DOPE  C216 2008   0.398   3.077  15.086
   16DOPE  H16R 2009   0.327   3.116  15.162
   16DOPE  H16S 2010   0.351   2.987  15.042
   16DOPE  C217 2011   0.415   3.183  14.975
   16DOPE  H17R 2012   0.465   3.272  15.017
   16DOPE  H17S 2013   0.314   3.214  14.942
   16DOPE  C218 2014   0.491   3.137  14.850
   16DOPE  H18R 2015   0.510   3.223  14.782
   16DOPE  H18S 2016   0.431   3.063  14.792
   16DOPE  H18T 2017   0.589   3.091  14.876
   16DOPE   C33 2018   0.163   3.387  16.144
   16DOPE   H3X 2019   0.132   3.360  16.040
   16DOPE   H3Y 2020   0.273   3.372  16.148
   16DOPE   C34 2021   0.119   3.532  16.171
   16DOPE   H4X 2022   0.009   3.532  16.158
   16DOPE   H4Y 2023   0.143   3.561  16.275
   16DOPE   C35 2024   0.170   3.644  16.077
   16DOPE   H5X 2025   0.105   3.733  16.091
   16DOPE   H5Y 2026   0.159   3.611  15.972
   16DOPE   C36 2027   0.316   3.689  16.102
   16DOPE   H6X 2028   0.327   3.732  16.204
   16DOPE   H6Y 2029   0.341   3.767  16.028
   16DOPE   C37 2030   0.411   3.570  16.086
   16DOPE   H7X 2031   0.411   3.511  16.181
   16DOPE   H7Y 2032   0.362   3.509  16.007
   16DOPE   C38 2033   0.556   3.599  16.048
   16DOPE   H8X 2034   0.616   3.614  16.139
   16DOPE   H8Y 2035   0.561   3.694  15.990
   16DOPE   C39 2036   0.601   3.479  15.969
   16DOPE   H9X 2037   0.618   3.388  16.029
   16DOPE  C310 2038   0.614   3.471  15.835
   16DOPE  H10X 2039   0.647   3.377  15.790
   16DOPE  C311 2040   0.586   3.583  15.738
   16DOPE  H11X 2041   0.568   3.679  15.790
   16DOPE  H11Y 2042   0.678   3.600  15.677
   16DOPE  C312 2043   0.470   3.560  15.640
   16DOPE  H12X 2044   0.428   3.659  15.612
   16DOPE  H12Y 2045   0.388   3.503  15.690
   16DOPE  C313 2046   0.515   3.490  15.511
   16DOPE  H13X 2047   0.618   3.450  15.528
   16DOPE  H13Y 2048   0.446   3.406  15.488
   16DOPE  C314 2049   0.522   3.584  15.391
   16DOPE  H14X 2050   0.592   3.667  15.417
   16DOPE  H14Y 2051   0.421   3.627  15.373
   16DOPE  C315 2052   0.571   3.519  15.261
   16DOPE  H15X 2053   0.494   3.447  15.226
   16DOPE  H15Y 2054   0.665   3.464  15.279
   16DOPE  C316 2055   0.592   3.627  15.155
   16DOPE  H16X 2056   0.679   3.690  15.184
   16DOPE  H16Y 2057   0.502   3.692  15.152
   16DOPE  C317 2058   0.616   3.575  15.014
   16DOPE  H17X 2059   0.706   3.511  15.014
   16DOPE  H17Y 2060   0.530   3.512  14.983
   16DOPE  C318 2061   0.635   3.689  14.914
   16DOPE  H18X 2062   0.636   3.649  14.810
   16DOPE  H18Y 2063   0.553   3.763  14.922
   16DOPE  H18Z 2064   0.731   3.742  14.933
   17DOPE     N 2065   2.752   7.199  17.143
   17DOPE   HN1 2066   2.668   7.152  17.104
   17DOPE   HN2 2067   2.796   7.134  17.211
   17DOPE   HN3 2068   2.729   7.291  17.185
   17DOPE   C12 2069   2.848   7.220  17.029
   17DOPE  H12A 2070   2.951   7.196  17.064
   17DOPE  H12B 2071   2.843   7.326  16.998
   17DOPE   C11 2072   2.806   7.131  16.913
   17DOPE  H11A 2073   2.878   7.147  16.830
   17DOPE  H11B 2074   2.708   7.169  16.877
   17DOPE     P 2075   2.670   6.907  16.936
   17DOPE   O13 2076   2.688   6.777  17.003
   17DOPE   O14 2077   2.631   6.906  16.794
   17DOPE   O11 2078   2.570   6.997  17.021
   17DOPE   O12 2079   2.803   6.993  16.951
   17DOPE    C1 2080   2.439   6.947  17.051
   17DOPE    HA 2081   2.406   6.997  17.144
   17DOPE    HB 2082   2.441   6.838  17.075
   17DOPE    C2 2083   2.328   6.980  16.944
   17DOPE    HS 2084   2.230   6.956  16.989
   17DOPE   O21 2085   2.344   6.906  16.821
   17DOPE   C21 2086   2.336   6.774  16.827
   17DOPE   O22 2087   2.304   6.711  16.927
   17DOPE   C22 2088   2.368   6.711  16.689
   17DOPE   H2R 2089   2.306   6.619  16.680
   17DOPE   H2S 2090   2.475   6.682  16.692
   17DOPE    C3 2091   2.330   7.131  16.909
   17DOPE    HX 2092   2.317   7.190  17.002
   17DOPE    HY 2093   2.242   7.149  16.843
   17DOPE   O31 2094   2.454   7.166  16.845
   17DOPE   C31 2095   2.447   7.259  16.752
   17DOPE   O32 2096   2.361   7.345  16.746
   17DOPE   C32 2097   2.559   7.236  16.650
   17DOPE   H2X 2098   2.611   7.333  16.634
   17DOPE   H2Y 2099   2.631   7.161  16.689
   17DOPE   C23 2100   2.344   6.805  16.568
   17DOPE   H3R 2101   2.410   6.893  16.581
   17DOPE   H3S 2102   2.239   6.840  16.570
   17DOPE   C24 2103   2.373   6.746  16.428
   17DOPE   H4R 2104   2.480   6.719  16.422
   17DOPE   H4S 2105   2.357   6.826  16.352
   17DOPE   C25 2106   2.288   6.624  16.387
   17DOPE   H5R 2107   2.180   6.640  16.409
   17DOPE   H5S 2108   2.320   6.539  16.451
   17DOPE   C26 2109   2.306   6.580  16.239
   17DOPE   H6R 2110   2.278   6.472  16.233
   17DOPE   H6S 2111   2.414   6.590  16.215
   17DOPE   C27 2112   2.228   6.652  16.127
   17DOPE   H7R 2113   2.241   6.762  16.134
   17DOPE   H7S 2114   2.120   6.626  16.137
   17DOPE   C28 2115   2.278   6.609  15.986
   17DOPE   H8R 2116   2.279   6.498  15.987
   17DOPE   H8S 2117   2.383   6.644  15.979
   17DOPE   C29 2118   2.200   6.654  15.865
   17DOPE   H9R 2119   2.093   6.676  15.882
   17DOPE  C210 2120   2.250   6.666  15.740
   17DOPE  H10R 2121   2.185   6.699  15.657
   17DOPE  C211 2122   2.393   6.635  15.701
   17DOPE  H11R 2123   2.435   6.566  15.776
   17DOPE  H11S 2124   2.455   6.727  15.706
   17DOPE  C212 2125   2.419   6.566  15.565
   17DOPE  H12R 2126   2.349   6.481  15.548
   17DOPE  H12S 2127   2.521   6.524  15.571
   17DOPE  C213 2128   2.426   6.657  15.442
   17DOPE  H13R 2129   2.470   6.755  15.472
   17DOPE  H13S 2130   2.324   6.675  15.401
   17DOPE  C214 2131   2.519   6.595  15.336
   17DOPE  H14R 2132   2.482   6.494  15.308
   17DOPE  H14S 2133   2.620   6.582  15.380
   17DOPE  C215 2134   2.533   6.680  15.210
   17DOPE  H15R 2135   2.620   6.644  15.151
   17DOPE  H15S 2136   2.553   6.785  15.239
   17DOPE  C216 2137   2.408   6.672  15.122
   17DOPE  H16R 2138   2.317   6.696  15.181
   17DOPE  H16S 2139   2.399   6.567  15.086
   17DOPE  C217 2140   2.418   6.765  15.001
   17DOPE  H17R 2141   2.526   6.781  14.983
   17DOPE  H17S 2142   2.375   6.865  15.026
   17DOPE  C218 2143   2.354   6.709  14.873
   17DOPE  H18R 2144   2.382   6.603  14.858
   17DOPE  H18S 2145   2.389   6.766  14.785
   17DOPE  H18T 2146   2.243   6.715  14.877
   17DOPE   C33 2147   2.503   7.181  16.517
   17DOPE   H3X 2148   2.443   7.261  16.468
   17DOPE   H3Y 2149   2.436   7.095  16.538
   17DOPE   C34 2150   2.608   7.130  16.418
   17DOPE   H4X 2151   2.693   7.202  16.414
   17DOPE   H4Y 2152   2.651   7.033  16.452
   17DOPE   C35 2153   2.549   7.117  16.277
   17DOPE   H5X 2154   2.464   7.189  16.268
   17DOPE   H5Y 2155   2.508   7.015  16.262
   17DOPE   C36 2156   2.647   7.154  16.165
   17DOPE   H6X 2157   2.724   7.075  16.154
   17DOPE   H6Y 2158   2.701   7.247  16.195
   17DOPE   C37 2159   2.575   7.182  16.032
   17DOPE   H7X 2160   2.499   7.261  16.048
   17DOPE   H7Y 2161   2.648   7.222  15.958
   17DOPE   C38 2162   2.505   7.059  15.972
   17DOPE   H8X 2163   2.444   7.093  15.885
   17DOPE   H8Y 2164   2.433   7.016  16.045
   17DOPE   C39 2165   2.606   6.956  15.931
   17DOPE   H9X 2166   2.658   6.906  16.015
   17DOPE  C310 2167   2.641   6.923  15.806
   17DOPE  H10X 2168   2.719   6.847  15.792
   17DOPE  C311 2169   2.586   6.982  15.678
   17DOPE  H11X 2170   2.512   6.912  15.633
   17DOPE  H11Y 2171   2.534   7.078  15.693
   17DOPE  C312 2172   2.698   7.003  15.575
   17DOPE  H12X 2173   2.772   6.920  15.583
   17DOPE  H12Y 2174   2.752   7.097  15.598
   17DOPE  C313 2175   2.650   7.004  15.429
   17DOPE  H13X 2176   2.727   6.950  15.370
   17DOPE  H13Y 2177   2.555   6.947  15.417
   17DOPE  C314 2178   2.636   7.144  15.368
   17DOPE  H14X 2179   2.687   7.218  15.434
   17DOPE  H14Y 2180   2.528   7.173  15.364
   17DOPE  C315 2181   2.700   7.153  15.230
   17DOPE  H15X 2182   2.807   7.123  15.238
   17DOPE  H15Y 2183   2.699   7.258  15.194
   17DOPE  C316 2184   2.636   7.064  15.123
   17DOPE  H16X 2185   2.525   7.072  15.129
   17DOPE  H16Y 2186   2.663   6.958  15.142
   17DOPE  C317 2187   2.682   7.103  14.983
   17DOPE  H17X 2188   2.634   7.200  14.956
   17DOPE  H17Y 2189   2.792   7.120  14.984
   17DOPE  C318 2190   2.651   6.998  14.877
   17DOPE  H18X 2191   2.711   6.907  14.894
   17DOPE  H18Y 2192   2.543   6.971  14.881
   17DOPE  H18Z 2193   2.672   7.037  14.775
   18DOPE     N 2194   7.527   3.097  17.125
   18DOPE   HN1 2195   7.477   3.187  17.131
   18DOPE   HN2 2196   7.529   3.056  17.221
   18DOPE   HN3 2197   7.624   3.113  17.091
   18DOPE   C12 2198   7.438   3.017  17.033
   18DOPE  H12A 2199   7.370   2.958  17.098
   18DOPE  H12B 2200   7.500   2.950  16.971
   18DOPE   C11 2201   7.353   3.113  16.949
   18DOPE  H11A 2202   7.257   3.064  16.919
   18DOPE  H11B 2203   7.407   3.134  16.854
   18DOPE     P 2204   7.304   3.369  16.950
   18DOPE   O13 2205   7.319   3.475  17.052
   18DOPE   O14 2206   7.178   3.357  16.874
   18DOPE   O11 2207   7.431   3.366  16.855
   18DOPE   O12 2208   7.326   3.231  17.025
   18DOPE    C1 2209   7.561   3.383  16.912
   18DOPE    HA 2210   7.576   3.321  17.003
   18DOPE    HB 2211   7.573   3.489  16.944
   18DOPE    C2 2212   7.675   3.348  16.812
   18DOPE    HS 2213   7.772   3.366  16.864
   18DOPE   O21 2214   7.668   3.429  16.696
   18DOPE   C21 2215   7.680   3.559  16.713
   18DOPE   O22 2216   7.724   3.615  16.812
   18DOPE   C22 2217   7.635   3.627  16.584
   18DOPE   H2R 2218   7.722   3.623  16.515
   18DOPE   H2S 2219   7.612   3.733  16.606
   18DOPE    C3 2220   7.675   3.198  16.766
   18DOPE    HX 2221   7.671   3.135  16.858
   18DOPE    HY 2222   7.773   3.181  16.716
   18DOPE   O31 2223   7.568   3.165  16.675
   18DOPE   C31 2224   7.562   3.038  16.639
   18DOPE   O32 2225   7.617   2.946  16.698
   18DOPE   C32 2226   7.458   3.020  16.527
   18DOPE   H2X 2227   7.369   2.974  16.575
   18DOPE   H2Y 2228   7.428   3.119  16.489
   18DOPE   C23 2229   7.513   3.556  16.519
   18DOPE   H3R 2230   7.421   3.616  16.537
   18DOPE   H3S 2231   7.491   3.456  16.561
   18DOPE   C24 2232   7.538   3.536  16.370
   18DOPE   H4R 2233   7.623   3.465  16.358
   18DOPE   H4S 2234   7.571   3.633  16.327
   18DOPE   C25 2235   7.418   3.483  16.292
   18DOPE   H5R 2236   7.327   3.532  16.335
   18DOPE   H5S 2237   7.406   3.374  16.307
   18DOPE   C26 2238   7.423   3.517  16.142
   18DOPE   H6R 2239   7.460   3.431  16.083
   18DOPE   H6S 2240   7.493   3.602  16.126
   18DOPE   C27 2241   7.285   3.562  16.093
   18DOPE   H7R 2242   7.256   3.653  16.150
   18DOPE   H7S 2243   7.214   3.481  16.117
   18DOPE   C28 2244   7.275   3.593  15.943
   18DOPE   H8R 2245   7.171   3.625  15.920
   18DOPE   H8S 2246   7.291   3.497  15.889
   18DOPE   C29 2247   7.371   3.701  15.898
   18DOPE   H9R 2248   7.353   3.801  15.939
   18DOPE  C210 2249   7.473   3.683  15.812
   18DOPE  H10R 2250   7.534   3.769  15.783
   18DOPE  C211 2251   7.510   3.552  15.747
   18DOPE  H11R 2252   7.512   3.470  15.823
   18DOPE  H11S 2253   7.613   3.558  15.705
   18DOPE  C212 2254   7.413   3.509  15.634
   18DOPE  H12R 2255   7.315   3.480  15.677
   18DOPE  H12S 2256   7.454   3.420  15.583
   18DOPE  C213 2257   7.388   3.617  15.528
   18DOPE  H13R 2258   7.337   3.702  15.579
   18DOPE  H13S 2259   7.317   3.578  15.452
   18DOPE  C214 2260   7.514   3.667  15.456
   18DOPE  H14R 2261   7.594   3.690  15.530
   18DOPE  H14S 2262   7.492   3.762  15.402
   18DOPE  C215 2263   7.564   3.567  15.352
   18DOPE  H15R 2264   7.486   3.557  15.274
   18DOPE  H15S 2265   7.578   3.468  15.400
   18DOPE  C216 2266   7.696   3.610  15.287
   18DOPE  H16R 2267   7.770   3.630  15.367
   18DOPE  H16S 2268   7.681   3.705  15.231
   18DOPE  C217 2269   7.751   3.503  15.192
   18DOPE  H17R 2270   7.759   3.407  15.248
   18DOPE  H17S 2271   7.854   3.533  15.163
   18DOPE  C218 2272   7.667   3.483  15.066
   18DOPE  H18R 2273   7.662   3.576  15.007
   18DOPE  H18S 2274   7.563   3.451  15.091
   18DOPE  H18T 2275   7.711   3.403  15.002
   18DOPE   C33 2276   7.503   2.929  16.408
   18DOPE   H3X 2277   7.412   2.880  16.367
   18DOPE   H3Y 2278   7.571   2.848  16.441
   18DOPE   C34 2279   7.566   3.009  16.293
   18DOPE   H4X 2280   7.499   3.094  16.268
   18DOPE   H4Y 2281   7.663   3.051  16.328
   18DOPE   C35 2282   7.592   2.928  16.165
   18DOPE   H5X 2283   7.499   2.876  16.134
   18DOPE   H5Y 2284   7.669   2.851  16.184
   18DOPE   C36 2285   7.637   3.017  16.047
   18DOPE   H6X 2286   7.736   3.060  16.072
   18DOPE   H6Y 2287   7.565   3.101  16.033
   18DOPE   C37 2288   7.652   2.942  15.914
   18DOPE   H7X 2289   7.701   2.844  15.935
   18DOPE   H7Y 2290   7.552   2.919  15.871
   18DOPE   C38 2291   7.739   3.017  15.811
   18DOPE   H8X 2292   7.762   2.946  15.728
   18DOPE   H8Y 2293   7.837   3.040  15.858
   18DOPE   C39 2294   7.677   3.144  15.757
   18DOPE   H9X 2295   7.690   3.232  15.821
   18DOPE  C310 2296   7.608   3.157  15.642
   18DOPE  H10X 2297   7.571   3.257  15.615
   18DOPE  C311 2298   7.576   3.049  15.542
   18DOPE  H11X 2299   7.630   3.068  15.446
   18DOPE  H11Y 2300   7.610   2.949  15.578
   18DOPE  C312 2301   7.425   3.037  15.512
   18DOPE  H12X 2302   7.371   3.033  15.609
   18DOPE  H12Y 2303   7.406   2.941  15.460
   18DOPE  C313 2304   7.367   3.150  15.426
   18DOPE  H13X 2305   7.256   3.149  15.438
   18DOPE  H13Y 2306   7.403   3.248  15.464
   18DOPE  C314 2307   7.398   3.138  15.276
   18DOPE  H14X 2308   7.336   3.057  15.232
   18DOPE  H14Y 2309   7.505   3.108  15.265
   18DOPE  C315 2310   7.377   3.269  15.198
   18DOPE  H15X 2311   7.398   3.254  15.090
   18DOPE  H15Y 2312   7.450   3.343  15.237
   18DOPE  C316 2313   7.237   3.327  15.214
   18DOPE  H16X 2314   7.219   3.339  15.323
   18DOPE  H16Y 2315   7.161   3.256  15.173
   18DOPE  C317 2316   7.215   3.466  15.152
   18DOPE  H17X 2317   7.310   3.523  15.153
   18DOPE  H17Y 2318   7.185   3.455  15.045
   18DOPE  C318 2319   7.109   3.546  15.228
   18DOPE  H18X 2320   7.013   3.491  15.231
   18DOPE  H18Y 2321   7.141   3.564  15.333
   18DOPE  H18Z 2322   7.091   3.644  15.179
   19DOPE     N 2323   7.530   4.289  17.135
   19DOPE   HN1 2324   7.457   4.217  17.146
   19DOPE   HN2 2325   7.615   4.266  17.189
   19DOPE   HN3 2326   7.495   4.383  17.163
   19DOPE   C12 2327   7.565   4.288  16.989
   19DOPE  H12A 2328   7.632   4.200  16.974
   19DOPE  H12B 2329   7.620   4.381  16.964
   19DOPE   C11 2330   7.438   4.271  16.906
   19DOPE  H11A 2331   7.464   4.257  16.799
   19DOPE  H11B 2332   7.376   4.364  16.911
   19DOPE     P 2333   7.379   4.017  16.896
   19DOPE   O13 2334   7.327   3.923  16.998
   19DOPE   O14 2335   7.521   4.005  16.859
   19DOPE   O11 2336   7.284   4.027  16.769
   19DOPE   O12 2337   7.361   4.163  16.959
   19DOPE    C1 2338   7.142   4.022  16.794
   19DOPE    HA 2339   7.109   4.111  16.852
   19DOPE    HB 2340   7.119   3.931  16.853
   19DOPE    C2 2341   7.049   4.008  16.668
   19DOPE    HS 2342   6.970   3.933  16.690
   19DOPE   O21 2343   7.118   3.970  16.549
   19DOPE   C21 2344   7.183   3.856  16.548
   19DOPE   O22 2345   7.202   3.781  16.641
   19DOPE   C22 2346   7.219   3.826  16.402
   19DOPE   H2R 2347   7.164   3.894  16.333
   19DOPE   H2S 2348   7.184   3.722  16.384
   19DOPE    C3 2349   6.976   4.143  16.636
   19DOPE    HX 2350   6.924   4.178  16.728
   19DOPE    HY 2351   6.898   4.126  16.560
   19DOPE   O31 2352   7.073   4.242  16.597
   19DOPE   C31 2353   7.102   4.238  16.467
   19DOPE   O32 2354   7.031   4.193  16.379
   19DOPE   C32 2355   7.245   4.288  16.450
   19DOPE   H2X 2356   7.249   4.392  16.490
   19DOPE   H2Y 2357   7.310   4.224  16.514
   19DOPE   C23 2358   7.370   3.831  16.377
   19DOPE   H3R 2359   7.395   3.755  16.301
   19DOPE   H3S 2360   7.427   3.808  16.470
   19DOPE   C24 2361   7.422   3.964  16.324
   19DOPE   H4R 2362   7.400   4.045  16.397
   19DOPE   H4S 2363   7.371   3.987  16.228
   19DOPE   C25 2364   7.573   3.954  16.303
   19DOPE   H5R 2365   7.594   3.876  16.227
   19DOPE   H5S 2366   7.621   3.922  16.398
   19DOPE   C26 2367   7.636   4.086  16.257
   19DOPE   H6R 2368   7.746   4.067  16.250
   19DOPE   H6S 2369   7.620   4.165  16.333
   19DOPE   C27 2370   7.581   4.132  16.122
   19DOPE   H7R 2371   7.482   4.180  16.137
   19DOPE   H7S 2372   7.564   4.044  16.057
   19DOPE   C28 2373   7.674   4.231  16.050
   19DOPE   H8R 2374   7.688   4.320  16.115
   19DOPE   H8S 2375   7.622   4.267  15.958
   19DOPE   C29 2376   7.805   4.165  16.017
   19DOPE   H9R 2377   7.887   4.186  16.087
   19DOPE  C210 2378   7.827   4.082  15.913
   19DOPE  H10R 2379   7.927   4.039  15.898
   19DOPE  C211 2380   7.723   4.042  15.811
   19DOPE  H11R 2381   7.620   4.073  15.839
   19DOPE  H11S 2382   7.721   3.931  15.801
   19DOPE  C212 2383   7.754   4.104  15.674
   19DOPE  H12R 2384   7.683   4.062  15.600
   19DOPE  H12S 2385   7.856   4.072  15.643
   19DOPE  C213 2386   7.748   4.258  15.673
   19DOPE  H13R 2387   7.838   4.299  15.622
   19DOPE  H13S 2388   7.752   4.299  15.776
   19DOPE  C214 2389   7.625   4.319  15.603
   19DOPE  H14R 2390   7.638   4.429  15.599
   19DOPE  H14S 2391   7.537   4.296  15.666
   19DOPE  C215 2392   7.599   4.266  15.461
   19DOPE  H15R 2393   7.547   4.168  15.470
   19DOPE  H15S 2394   7.695   4.249  15.408
   19DOPE  C216 2395   7.512   4.361  15.377
   19DOPE  H16R 2396   7.579   4.426  15.316
   19DOPE  H16S 2397   7.452   4.427  15.443
   19DOPE  C217 2398   7.416   4.286  15.286
   19DOPE  H17R 2399   7.349   4.224  15.350
   19DOPE  H17S 2400   7.474   4.216  15.221
   19DOPE  C218 2401   7.327   4.375  15.199
   19DOPE  H18R 2402   7.265   4.441  15.264
   19DOPE  H18S 2403   7.259   4.313  15.137
   19DOPE  H18T 2404   7.388   4.438  15.131
   19DOPE   C33 2405   7.293   4.283  16.304
   19DOPE   H3X 2406   7.278   4.182  16.259
   19DOPE   H3Y 2407   7.402   4.305  16.305
   19DOPE   C34 2408   7.223   4.386  16.217
   19DOPE   H4X 2409   7.124   4.348  16.182
   19DOPE   H4Y 2410   7.201   4.470  16.287
   19DOPE   C35 2411   7.307   4.439  16.100
   19DOPE   H5X 2412   7.415   4.440  16.127
   19DOPE   H5Y 2413   7.278   4.544  16.081
   19DOPE   C36 2414   7.283   4.362  15.970
   19DOPE   H6X 2415   7.173   4.356  15.955
   19DOPE   H6Y 2416   7.322   4.258  15.978
   19DOPE   C37 2417   7.345   4.435  15.850
   19DOPE   H7X 2418   7.317   4.542  15.859
   19DOPE   H7Y 2419   7.456   4.427  15.858
   19DOPE   C38 2420   7.300   4.385  15.711
   19DOPE   H8X 2421   7.317   4.275  15.708
   19DOPE   H8Y 2422   7.369   4.431  15.637
   19DOPE   C39 2423   7.159   4.421  15.671
   19DOPE   H9X 2424   7.150   4.513  15.612
   19DOPE  C310 2425   7.049   4.348  15.693
   19DOPE  H10X 2426   6.952   4.385  15.659
   19DOPE  C311 2427   7.047   4.215  15.764
   19DOPE  H11X 2428   7.145   4.190  15.809
   19DOPE  H11Y 2429   6.975   4.219  15.848
   19DOPE  C312 2430   7.009   4.099  15.670
   19DOPE  H12X 2431   6.901   4.106  15.646
   19DOPE  H12Y 2432   7.025   4.004  15.725
   19DOPE  C313 2433   7.087   4.093  15.538
   19DOPE  H13X 2434   7.039   4.015  15.475
   19DOPE  H13Y 2435   7.079   4.188  15.482
   19DOPE  C314 2436   7.234   4.057  15.559
   19DOPE  H14X 2437   7.249   4.029  15.666
   19DOPE  H14Y 2438   7.299   4.144  15.538
   19DOPE  C315 2439   7.276   3.937  15.473
   19DOPE  H15X 2440   7.200   3.857  15.486
   19DOPE  H15Y 2441   7.373   3.900  15.513
   19DOPE  C316 2442   7.293   3.969  15.324
   19DOPE  H16X 2443   7.397   4.008  15.310
   19DOPE  H16Y 2444   7.222   4.049  15.293
   19DOPE  C317 2445   7.272   3.848  15.234
   19DOPE  H17X 2446   7.296   3.755  15.291
   19DOPE  H17Y 2447   7.165   3.843  15.206
   19DOPE  C318 2448   7.358   3.849  15.108
   19DOPE  H18X 2449   7.336   3.939  15.046
   19DOPE  H18Y 2450   7.466   3.850  15.135
   19DOPE  H18Z 2451   7.339   3.758  15.046
   20DOPE     N 2452   6.311   6.952  16.979
   20DOPE   HN1 2453   6.391   7.012  17.009
   20DOPE   HN2 2454   6.344   6.886  16.906
   20DOPE   HN3 2455   6.238   7.010  16.932
   20DOPE   C12 2456   6.250   6.879  17.095
   20DOPE  H12A 2457   6.173   6.946  17.140
   20DOPE  H12B 2458   6.330   6.859  17.169
   20DOPE   C11 2459   6.185   6.748  17.049
   20DOPE  H11A 2460   6.138   6.698  17.137
   20DOPE  H11B 2461   6.267   6.682  17.013
   20DOPE     P 2462   6.042   6.644  16.865
   20DOPE   O13 2463   5.983   6.548  16.962
   20DOPE   O14 2464   6.161   6.601  16.788
   20DOPE   O11 2465   5.928   6.704  16.773
   20DOPE   O12 2466   6.086   6.772  16.949
   20DOPE    C1 2467   5.808   6.749  16.837
   20DOPE    HA 2468   5.828   6.807  16.930
   20DOPE    HB 2469   5.746   6.661  16.864
   20DOPE    C2 2470   5.722   6.840  16.744
   20DOPE    HS 2471   5.619   6.843  16.786
   20DOPE   O21 2472   5.721   6.790  16.609
   20DOPE   C21 2473   5.660   6.673  16.598
   20DOPE   O22 2474   5.576   6.631  16.676
   20DOPE   C22 2475   5.709   6.604  16.472
   20DOPE   H2R 2476   5.707   6.495  16.493
   20DOPE   H2S 2477   5.814   6.633  16.453
   20DOPE    C3 2478   5.772   6.987  16.739
   20DOPE    HX 2479   5.763   7.030  16.842
   20DOPE    HY 2480   5.703   7.041  16.671
   20DOPE   O31 2481   5.909   6.995  16.696
   20DOPE   C31 2482   5.944   7.101  16.628
   20DOPE   O32 2483   5.876   7.202  16.612
   20DOPE   C32 2484   6.089   7.090  16.582
   20DOPE   H2X 2485   6.121   7.192  16.551
   20DOPE   H2Y 2486   6.151   7.058  16.668
   20DOPE   C23 2487   5.620   6.633  16.349
   20DOPE   H3R 2488   5.517   6.597  16.371
   20DOPE   H3S 2489   5.659   6.573  16.264
   20DOPE   C24 2490   5.611   6.780  16.304
   20DOPE   H4R 2491   5.569   6.842  16.385
   20DOPE   H4S 2492   5.543   6.784  16.217
   20DOPE   C25 2493   5.744   6.841  16.258
   20DOPE   H5R 2494   5.799   6.767  16.197
   20DOPE   H5S 2495   5.805   6.863  16.348
   20DOPE   C26 2496   5.724   6.968  16.174
   20DOPE   H6R 2497   5.634   7.024  16.210
   20DOPE   H6S 2498   5.704   6.938  16.069
   20DOPE   C27 2499   5.845   7.061  16.180
   20DOPE   H7R 2500   5.935   6.996  16.192
   20DOPE   H7S 2501   5.840   7.126  16.270
   20DOPE   C28 2502   5.870   7.143  16.053
   20DOPE   H8R 2503   5.876   7.070  15.969
   20DOPE   H8S 2504   5.971   7.188  16.062
   20DOPE   C29 2505   5.771   7.254  16.027
   20DOPE   H9R 2506   5.753   7.322  16.111
   20DOPE  C210 2507   5.703   7.273  15.912
   20DOPE  H10R 2508   5.632   7.358  15.905
   20DOPE  C211 2509   5.712   7.188  15.788
   20DOPE  H11R 2510   5.622   7.124  15.785
   20DOPE  H11S 2511   5.800   7.120  15.791
   20DOPE  C212 2512   5.722   7.267  15.656
   20DOPE  H12R 2513   5.821   7.318  15.655
   20DOPE  H12S 2514   5.644   7.345  15.652
   20DOPE  C213 2515   5.711   7.178  15.530
   20DOPE  H13R 2516   5.803   7.192  15.470
   20DOPE  H13S 2517   5.627   7.215  15.466
   20DOPE  C214 2518   5.687   7.028  15.557
   20DOPE  H14R 2519   5.586   7.015  15.602
   20DOPE  H14S 2520   5.763   6.988  15.628
   20DOPE  C215 2521   5.694   6.943  15.431
   20DOPE  H15R 2522   5.630   6.990  15.354
   20DOPE  H15S 2523   5.651   6.842  15.451
   20DOPE  C216 2524   5.839   6.927  15.386
   20DOPE  H16R 2525   5.886   6.839  15.435
   20DOPE  H16S 2526   5.899   7.015  15.418
   20DOPE  C217 2527   5.853   6.918  15.235
   20DOPE  H17R 2528   5.799   6.829  15.196
   20DOPE  H17S 2529   5.961   6.904  15.213
   20DOPE  C218 2530   5.802   7.044  15.166
   20DOPE  H18R 2531   5.814   7.133  15.233
   20DOPE  H18S 2532   5.694   7.032  15.144
   20DOPE  H18T 2533   5.858   7.065  15.072
   20DOPE   C33 2534   6.111   6.992  16.464
   20DOPE   H3X 2535   6.209   7.015  16.418
   20DOPE   H3Y 2536   6.033   7.007  16.385
   20DOPE   C34 2537   6.114   6.845  16.507
   20DOPE   H4X 2538   6.180   6.834  16.596
   20DOPE   H4Y 2539   6.012   6.812  16.539
   20DOPE   C35 2540   6.167   6.750  16.398
   20DOPE   H5X 2541   6.183   6.650  16.444
   20DOPE   H5Y 2542   6.265   6.788  16.363
   20DOPE   C36 2543   6.073   6.736  16.279
   20DOPE   H6X 2544   6.059   6.836  16.231
   20DOPE   H6Y 2545   5.974   6.701  16.317
   20DOPE   C37 2546   6.121   6.637  16.172
   20DOPE   H7X 2547   6.215   6.673  16.126
   20DOPE   H7Y 2548   6.143   6.540  16.222
   20DOPE   C38 2549   6.015   6.610  16.063
   20DOPE   H8X 2550   5.922   6.577  16.113
   20DOPE   H8Y 2551   6.050   6.524  16.002
   20DOPE   C39 2552   5.986   6.731  15.977
   20DOPE   H9X 2553   5.969   6.825  16.033
   20DOPE  C310 2554   5.976   6.734  15.843
   20DOPE  H10X 2555   5.951   6.830  15.794
   20DOPE  C311 2556   5.991   6.617  15.749
   20DOPE  H11X 2557   6.037   6.649  15.654
   20DOPE  H11Y 2558   6.058   6.539  15.792
   20DOPE  C312 2559   5.855   6.551  15.719
   20DOPE  H12X 2560   5.805   6.521  15.813
   20DOPE  H12Y 2561   5.874   6.457  15.663
   20DOPE  C313 2562   5.761   6.639  15.635
   20DOPE  H13X 2563   5.674   6.668  15.698
   20DOPE  H13Y 2564   5.813   6.733  15.607
   20DOPE  C314 2565   5.711   6.570  15.508
   20DOPE  H14X 2566   5.629   6.630  15.463
   20DOPE  H14Y 2567   5.669   6.471  15.536
   20DOPE  C315 2568   5.820   6.548  15.402
   20DOPE  H15X 2569   5.885   6.465  15.436
   20DOPE  H15Y 2570   5.884   6.638  15.395
   20DOPE  C316 2571   5.766   6.517  15.261
   20DOPE  H16X 2572   5.852   6.493  15.195
   20DOPE  H16Y 2573   5.717   6.608  15.220
   20DOPE  C317 2574   5.666   6.402  15.257
   20DOPE  H17X 2575   5.705   6.316  15.315
   20DOPE  H17Y 2576   5.572   6.435  15.306
   20DOPE  C318 2577   5.635   6.354  15.115
   20DOPE  H18X 2578   5.598   6.439  15.053
   20DOPE  H18Y 2579   5.726   6.313  15.067
   20DOPE  H18Z 2580   5.558   6.275  15.117
   21DOPE     N 2581   3.354   7.396  16.811
   21DOPE   HN1 2582   3.327   7.443  16.722
   21DOPE   HN2 2583   3.418   7.316  16.796
   21DOPE   HN3 2584   3.266   7.360  16.855
   21DOPE   C12 2585   3.414   7.494  16.908
   21DOPE  H12A 2586   3.440   7.587  16.853
   21DOPE  H12B 2587   3.507   7.447  16.948
   21DOPE   C11 2588   3.319   7.524  17.026
   21DOPE  H11A 2589   3.377   7.588  17.097
   21DOPE  H11B 2590   3.295   7.430  17.080
   21DOPE     P 2591   3.065   7.526  16.953
   21DOPE   O13 2592   2.972   7.536  17.068
   21DOPE   O14 2593   3.098   7.391  16.904
   21DOPE   O11 2594   3.013   7.613  16.832
   21DOPE   O12 2595   3.203   7.597  16.988
   21DOPE    C1 2596   3.105   7.645  16.726
   21DOPE    HA 2597   3.159   7.555  16.691
   21DOPE    HB 2598   3.178   7.720  16.762
   21DOPE    C2 2599   3.033   7.704  16.602
   21DOPE    HS 2600   2.959   7.778  16.640
   21DOPE   O21 2601   2.970   7.600  16.525
   21DOPE   C21 2602   2.849   7.561  16.560
   21DOPE   O22 2603   2.784   7.602  16.655
   21DOPE   C22 2604   2.796   7.463  16.455
   21DOPE   H2R 2605   2.803   7.363  16.503
   21DOPE   H2S 2606   2.863   7.463  16.367
   21DOPE    C3 2607   3.131   7.783  16.509
   21DOPE    HX 2608   3.194   7.852  16.568
   21DOPE    HY 2609   3.067   7.847  16.443
   21DOPE   O31 2610   3.210   7.699  16.422
   21DOPE   C31 2611   3.318   7.643  16.472
   21DOPE   O32 2612   3.362   7.659  16.585
   21DOPE   C32 2613   3.382   7.549  16.372
   21DOPE   H2X 2614   3.490   7.547  16.398
   21DOPE   H2Y 2615   3.341   7.447  16.386
   21DOPE   C23 2616   2.648   7.488  16.413
   21DOPE   H3R 2617   2.590   7.532  16.497
   21DOPE   H3S 2618   2.600   7.390  16.389
   21DOPE   C24 2619   2.626   7.573  16.286
   21DOPE   H4R 2620   2.667   7.673  16.308
   21DOPE   H4S 2621   2.517   7.586  16.270
   21DOPE   C25 2622   2.686   7.516  16.156
   21DOPE   H5R 2623   2.615   7.443  16.113
   21DOPE   H5S 2624   2.781   7.462  16.177
   21DOPE   C26 2625   2.716   7.624  16.051
   21DOPE   H6R 2626   2.799   7.687  16.089
   21DOPE   H6S 2627   2.626   7.688  16.039
   21DOPE   C27 2628   2.758   7.571  15.913
   21DOPE   H7R 2629   2.760   7.656  15.841
   21DOPE   H7S 2630   2.681   7.500  15.877
   21DOPE   C28 2631   2.896   7.501  15.909
   21DOPE   H8R 2632   2.905   7.456  15.808
   21DOPE   H8S 2633   2.894   7.415  15.980
   21DOPE   C29 2634   3.015   7.589  15.939
   21DOPE   H9R 2635   3.036   7.603  16.046
   21DOPE  C210 2636   3.096   7.650  15.849
   21DOPE  H10R 2637   3.178   7.713  15.887
   21DOPE  C211 2638   3.083   7.646  15.699
   21DOPE  H11R 2639   3.016   7.562  15.668
   21DOPE  H11S 2640   3.181   7.627  15.650
   21DOPE  C212 2641   3.026   7.781  15.649
   21DOPE  H12R 2642   3.110   7.852  15.630
   21DOPE  H12S 2643   2.969   7.824  15.734
   21DOPE  C213 2644   2.926   7.785  15.532
   21DOPE  H13R 2645   2.977   7.825  15.441
   21DOPE  H13S 2646   2.848   7.861  15.555
   21DOPE  C214 2647   2.850   7.656  15.501
   21DOPE  H14R 2648   2.788   7.630  15.589
   21DOPE  H14S 2649   2.923   7.573  15.484
   21DOPE  C215 2650   2.761   7.661  15.375
   21DOPE  H15R 2651   2.826   7.663  15.285
   21DOPE  H15S 2652   2.699   7.753  15.375
   21DOPE  C216 2653   2.671   7.537  15.372
   21DOPE  H16R 2654   2.598   7.542  15.456
   21DOPE  H16S 2655   2.736   7.449  15.390
   21DOPE  C217 2656   2.595   7.511  15.240
   21DOPE  H17R 2657   2.562   7.405  15.241
   21DOPE  H17S 2658   2.664   7.524  15.154
   21DOPE  C218 2659   2.469   7.595  15.220
   21DOPE  H18R 2660   2.400   7.583  15.307
   21DOPE  H18S 2661   2.416   7.563  15.128
   21DOPE  H18T 2662   2.495   7.703  15.210
   21DOPE   C33 2663   3.370   7.590  16.223
   21DOPE   H3X 2664   3.369   7.701  16.213
   21DOPE   H3Y 2665   3.274   7.553  16.180
   21DOPE   C34 2666   3.490   7.538  16.144
   21DOPE   H4X 2667   3.487   7.577  16.040
   21DOPE   H4Y 2668   3.581   7.581  16.193
   21DOPE   C35 2669   3.508   7.386  16.140
   21DOPE   H5X 2670   3.529   7.350  16.243
   21DOPE   H5Y 2671   3.595   7.361  16.077
   21DOPE   C36 2672   3.385   7.311  16.087
   21DOPE   H6X 2673   3.301   7.327  16.158
   21DOPE   H6Y 2674   3.407   7.203  16.086
   21DOPE   C37 2675   3.341   7.358  15.948
   21DOPE   H7X 2676   3.339   7.469  15.943
   21DOPE   H7Y 2677   3.415   7.324  15.871
   21DOPE   C38 2678   3.200   7.311  15.913
   21DOPE   H8X 2679   3.169   7.365  15.821
   21DOPE   H8Y 2680   3.132   7.343  15.995
   21DOPE   C39 2681   3.192   7.162  15.896
   21DOPE   H9X 2682   3.253   7.102  15.965
   21DOPE  C310 2683   3.117   7.101  15.804
   21DOPE  H10X 2684   3.123   6.991  15.794
   21DOPE  C311 2685   3.029   7.167  15.702
   21DOPE  H11X 2686   2.935   7.108  15.693
   21DOPE  H11Y 2687   2.999   7.270  15.732
   21DOPE  C312 2688   3.099   7.173  15.566
   21DOPE  H12X 2689   3.143   7.075  15.541
   21DOPE  H12Y 2690   3.182   7.247  15.570
   21DOPE  C313 2691   3.002   7.211  15.454
   21DOPE  H13X 2692   2.920   7.136  15.453
   21DOPE  H13Y 2693   2.955   7.309  15.474
   21DOPE  C314 2694   3.069   7.208  15.317
   21DOPE  H14X 2695   2.990   7.217  15.239
   21DOPE  H14Y 2696   3.121   7.110  15.304
   21DOPE  C315 2697   3.169   7.320  15.290
   21DOPE  H15X 2698   3.198   7.315  15.182
   21DOPE  H15Y 2699   3.261   7.306  15.350
   21DOPE  C316 2700   3.108   7.456  15.320
   21DOPE  H16X 2701   3.107   7.471  15.430
   21DOPE  H16Y 2702   3.003   7.460  15.284
   21DOPE  C317 2703   3.187   7.567  15.255
   21DOPE  H17X 2704   3.295   7.544  15.268
   21DOPE  H17Y 2705   3.163   7.566  15.146
   21DOPE  C318 2706   3.156   7.704  15.311
   21DOPE  H18X 2707   3.053   7.733  15.280
   21DOPE  H18Y 2708   3.164   7.702  15.422
   21DOPE  H18Z 2709   3.226   7.782  15.273
   22DOPE     N 2710   7.360   4.762  16.918
   22DOPE   HN1 2711   7.274   4.704  16.933
   22DOPE   HN2 2712   7.353   4.819  16.832
   22DOPE   HN3 2713   7.444   4.701  16.912
   22DOPE   C12 2714   7.384   4.851  17.038
   22DOPE  H12A 2715   7.397   4.783  17.124
   22DOPE  H12B 2716   7.294   4.914  17.055
   22DOPE   C11 2717   7.508   4.942  17.023
   22DOPE  H11A 2718   7.565   4.945  17.119
   22DOPE  H11B 2719   7.472   5.046  17.006
   22DOPE     P 2720   7.690   4.783  16.919
   22DOPE   O13 2721   7.609   4.668  16.965
   22DOPE   O14 2722   7.807   4.820  17.001
   22DOPE   O11 2723   7.727   4.766  16.767
   22DOPE   O12 2724   7.592   4.906  16.913
   22DOPE    C1 2725   7.630   4.789  16.664
   22DOPE    HA 2726   7.574   4.884  16.677
   22DOPE    HB 2727   7.557   4.704  16.662
   22DOPE    C2 2728   7.699   4.794  16.525
   22DOPE    HS 2729   7.793   4.736  16.540
   22DOPE   O21 2730   7.725   4.932  16.486
   22DOPE   C21 2731   7.824   4.936  16.397
   22DOPE   O22 2732   7.906   4.847  16.380
   22DOPE   C22 2733   7.819   5.060  16.309
   22DOPE   H2R 2734   7.917   5.112  16.317
   22DOPE   H2S 2735   7.742   5.131  16.345
   22DOPE    C3 2736   7.616   4.723  16.413
   22DOPE    HX 2737   7.629   4.615  16.432
   22DOPE    HY 2738   7.663   4.743  16.314
   22DOPE   O31 2739   7.478   4.768  16.408
   22DOPE   C31 2740   7.388   4.670  16.398
   22DOPE   O32 2741   7.416   4.551  16.398
   22DOPE   C32 2742   7.246   4.725  16.404
   22DOPE   H2X 2743   7.188   4.653  16.465
   22DOPE   H2Y 2744   7.246   4.822  16.458
   22DOPE   C23 2745   7.801   5.011  16.163
   22DOPE   H3R 2746   7.697   4.974  16.148
   22DOPE   H3S 2747   7.869   4.925  16.146
   22DOPE   C24 2748   7.835   5.111  16.052
   22DOPE   H4R 2749   7.930   5.165  16.074
   22DOPE   H4S 2750   7.756   5.187  16.040
   22DOPE   C25 2751   7.852   5.033  15.920
   22DOPE   H5R 2752   7.763   4.969  15.905
   22DOPE   H5S 2753   7.939   4.965  15.931
   22DOPE   C26 2754   7.872   5.120  15.795
   22DOPE   H6R 2755   7.915   5.054  15.717
   22DOPE   H6S 2756   7.945   5.201  15.816
   22DOPE   C27 2757   7.742   5.178  15.739
   22DOPE   H7R 2758   7.722   5.276  15.787
   22DOPE   H7S 2759   7.659   5.110  15.767
   22DOPE   C28 2760   7.740   5.192  15.585
   22DOPE   H8R 2761   7.648   5.248  15.558
   22DOPE   H8S 2762   7.728   5.090  15.543
   22DOPE   C29 2763   7.861   5.257  15.523
   22DOPE   H9R 2764   7.939   5.291  15.592
   22DOPE  C210 2765   7.876   5.275  15.390
   22DOPE  H10R 2766   7.969   5.322  15.353
   22DOPE  C211 2767   7.776   5.234  15.285
   22DOPE  H11R 2768   7.674   5.267  15.317
   22DOPE  H11S 2769   7.771   5.124  15.275
   22DOPE  C212 2770   7.804   5.295  15.145
   22DOPE  H12R 2771   7.884   5.238  15.093
   22DOPE  H12S 2772   7.841   5.398  15.160
   22DOPE  C213 2773   7.679   5.308  15.055
   22DOPE  H13R 2774   7.693   5.398  14.990
   22DOPE  H13S 2775   7.592   5.329  15.121
   22DOPE  C214 2776   7.646   5.190  14.961
   22DOPE  H14R 2777   7.619   5.103  15.024
   22DOPE  H14S 2778   7.737   5.162  14.903
   22DOPE  C215 2779   7.529   5.219  14.863
   22DOPE  H15R 2780   7.496   5.124  14.817
   22DOPE  H15S 2781   7.564   5.287  14.782
   22DOPE  C216 2782   7.412   5.286  14.937
   22DOPE  H16R 2783   7.444   5.389  14.965
   22DOPE  H16S 2784   7.403   5.225  15.030
   22DOPE  C217 2785   7.268   5.295  14.882
   22DOPE  H17R 2786   7.209   5.357  14.953
   22DOPE  H17S 2787   7.224   5.194  14.888
   22DOPE  C218 2788   7.242   5.351  14.742
   22DOPE  H18R 2789   7.329   5.331  14.675
   22DOPE  H18S 2790   7.219   5.459  14.744
   22DOPE  H18T 2791   7.153   5.303  14.697
   22DOPE   C33 2792   7.169   4.741  16.270
   22DOPE   H3X 2793   7.070   4.783  16.296
   22DOPE   H3Y 2794   7.150   4.644  16.221
   22DOPE   C34 2795   7.224   4.833  16.162
   22DOPE   H4X 2796   7.203   4.939  16.190
   22DOPE   H4Y 2797   7.333   4.819  16.145
   22DOPE   C35 2798   7.148   4.812  16.033
   22DOPE   H5X 2799   7.039   4.804  16.058
   22DOPE   H5Y 2800   7.181   4.717  15.985
   22DOPE   C36 2801   7.161   4.925  15.935
   22DOPE   H6X 2802   7.142   5.022  15.987
   22DOPE   H6Y 2803   7.081   4.913  15.860
   22DOPE   C37 2804   7.297   4.931  15.866
   22DOPE   H7X 2805   7.293   5.020  15.800
   22DOPE   H7Y 2806   7.377   4.946  15.942
   22DOPE   C38 2807   7.336   4.812  15.777
   22DOPE   H8X 2808   7.361   4.728  15.845
   22DOPE   H8Y 2809   7.430   4.837  15.724
   22DOPE   C39 2810   7.227   4.777  15.680
   22DOPE   H9X 2811   7.164   4.691  15.710
   22DOPE  C310 2812   7.200   4.842  15.566
   22DOPE  H10X 2813   7.117   4.808  15.502
   22DOPE  C311 2814   7.276   4.962  15.516
   22DOPE  H11X 2815   7.208   5.036  15.470
   22DOPE  H11Y 2816   7.330   5.014  15.598
   22DOPE  C312 2817   7.383   4.921  15.415
   22DOPE  H12X 2818   7.441   4.835  15.455
   22DOPE  H12Y 2819   7.455   5.006  15.403
   22DOPE  C313 2820   7.327   4.888  15.277
   22DOPE  H13X 2821   7.255   4.803  15.283
   22DOPE  H13Y 2822   7.271   4.976  15.238
   22DOPE  C314 2823   7.438   4.854  15.178
   22DOPE  H14X 2824   7.518   4.932  15.178
   22DOPE  H14Y 2825   7.392   4.856  15.077
   22DOPE  C315 2826   7.497   4.714  15.199
   22DOPE  H15X 2827   7.536   4.679  15.101
   22DOPE  H15Y 2828   7.413   4.645  15.224
   22DOPE  C316 2829   7.610   4.693  15.303
   22DOPE  H16X 2830   7.673   4.609  15.268
   22DOPE  H16Y 2831   7.561   4.659  15.397
   22DOPE  C317 2832   7.704   4.809  15.340
   22DOPE  H17X 2833   7.645   4.898  15.372
   22DOPE  H17Y 2834   7.762   4.776  15.428
   22DOPE  C318 2835   7.804   4.852  15.232
   22DOPE  H18X 2836   7.879   4.922  15.275
   22DOPE  H18Y 2837   7.858   4.764  15.191
   22DOPE  H18Z 2838   7.752   4.904  15.149
   23DOPE     N 2839   4.687   7.507  17.186
   23DOPE   HN1 2840   4.690   7.488  17.288
   23DOPE   HN2 2841   4.757   7.579  17.162
   23DOPE   HN3 2842   4.594   7.541  17.154
   23DOPE   C12 2843   4.717   7.383  17.108
   23DOPE  H12A 2844   4.629   7.315  17.116
   23DOPE  H12B 2845   4.807   7.334  17.151
   23DOPE   C11 2846   4.738   7.422  16.962
   23DOPE  H11A 2847   4.741   7.330  16.900
   23DOPE  H11B 2848   4.836   7.474  16.951
   23DOPE     P 2849   4.635   7.565  16.775
   23DOPE   O13 2850   4.505   7.630  16.748
   23DOPE   O14 2851   4.680   7.455  16.687
   23DOPE   O11 2852   4.750   7.673  16.791
   23DOPE   O12 2853   4.631   7.508  16.923
   23DOPE    C1 2854   4.752   7.764  16.901
   23DOPE    HA 2855   4.799   7.716  16.989
   23DOPE    HB 2856   4.649   7.795  16.930
   23DOPE    C2 2857   4.832   7.894  16.870
   23DOPE    HS 2858   4.813   7.968  16.951
   23DOPE   O21 2859   4.794   7.949  16.744
   23DOPE   C21 2860   4.672   7.994  16.733
   23DOPE   O22 2861   4.595   8.016  16.825
   23DOPE   C22 2862   4.652   8.034  16.587
   23DOPE   H2R 2863   4.750   8.032  16.536
   23DOPE   H2S 2864   4.614   8.139  16.584
   23DOPE    C3 2865   4.987   7.871  16.867
   23DOPE    HX 2866   5.021   7.864  16.973
   23DOPE    HY 2867   5.035   7.961  16.824
   23DOPE   O31 2868   5.028   7.751  16.798
   23DOPE   C31 2869   5.020   7.758  16.664
   23DOPE   O32 2870   4.996   7.859  16.601
   23DOPE   C32 2871   5.064   7.626  16.602
   23DOPE   H2X 2872   5.176   7.627  16.600
   23DOPE   H2Y 2873   5.029   7.542  16.666
   23DOPE   C23 2874   4.554   7.944  16.509
   23DOPE   H3R 2875   4.449   7.971  16.534
   23DOPE   H3S 2876   4.569   7.838  16.536
   23DOPE   C24 2877   4.581   7.960  16.359
   23DOPE   H4R 2878   4.682   7.921  16.337
   23DOPE   H4S 2879   4.579   8.068  16.332
   23DOPE   C25 2880   4.479   7.885  16.274
   23DOPE   H5R 2881   4.382   7.939  16.278
   23DOPE   H5S 2882   4.462   7.784  16.318
   23DOPE   C26 2883   4.523   7.867  16.128
   23DOPE   H6R 2884   4.442   7.808  16.079
   23DOPE   H6S 2885   4.615   7.805  16.124
   23DOPE   C27 2886   4.548   7.998  16.052
   23DOPE   H7R 2887   4.652   8.030  16.070
   23DOPE   H7S 2888   4.482   8.077  16.094
   23DOPE   C28 2889   4.523   7.985  15.900
   23DOPE   H8R 2890   4.583   7.900  15.861
   23DOPE   H8S 2891   4.560   8.077  15.850
   23DOPE   C29 2892   4.376   7.968  15.875
   23DOPE   H9R 2893   4.317   8.060  15.890
   23DOPE  C210 2894   4.310   7.855  15.841
   23DOPE  H10R 2895   4.200   7.861  15.841
   23DOPE  C211 2896   4.365   7.716  15.819
   23DOPE  H11R 2897   4.336   7.654  15.906
   23DOPE  H11S 2898   4.476   7.716  15.819
   23DOPE  C212 2899   4.316   7.639  15.693
   23DOPE  H12R 2900   4.207   7.620  15.701
   23DOPE  H12S 2901   4.366   7.540  15.694
   23DOPE  C213 2902   4.342   7.703  15.554
   23DOPE  H13R 2903   4.266   7.782  15.535
   23DOPE  H13S 2904   4.325   7.627  15.474
   23DOPE  C214 2905   4.483   7.763  15.537
   23DOPE  H14R 2906   4.553   7.681  15.512
   23DOPE  H14S 2907   4.514   7.808  15.633
   23DOPE  C215 2908   4.494   7.877  15.435
   23DOPE  H15R 2909   4.591   7.929  15.452
   23DOPE  H15S 2910   4.413   7.950  15.456
   23DOPE  C216 2911   4.490   7.832  15.288
   23DOPE  H16R 2912   4.391   7.786  15.269
   23DOPE  H16S 2913   4.567   7.754  15.269
   23DOPE  C217 2914   4.512   7.948  15.190
   23DOPE  H17R 2915   4.498   7.911  15.087
   23DOPE  H17S 2916   4.617   7.985  15.198
   23DOPE  C218 2917   4.418   8.065  15.217
   23DOPE  H18R 2918   4.457   8.130  15.298
   23DOPE  H18S 2919   4.319   8.025  15.247
   23DOPE  H18T 2920   4.403   8.128  15.126
   23DOPE   C33 2921   5.009   7.611  16.458
   23DOPE   H3X 2922   5.062   7.529  16.405
   23DOPE   H3Y 2923   5.024   7.704  16.400
   23DOPE   C34 2924   4.860   7.577  16.464
   23DOPE   H4X 2925   4.847   7.471  16.494
   23DOPE   H4Y 2926   4.811   7.640  16.542
   23DOPE   C35 2927   4.781   7.603  16.335
   23DOPE   H5X 2928   4.783   7.711  16.310
   23DOPE   H5Y 2929   4.675   7.576  16.355
   23DOPE   C36 2930   4.831   7.522  16.216
   23DOPE   H6X 2931   4.854   7.418  16.250
   23DOPE   H6Y 2932   4.924   7.567  16.177
   23DOPE   C37 2933   4.725   7.514  16.105
   23DOPE   H7X 2934   4.630   7.476  16.150
   23DOPE   H7Y 2935   4.704   7.616  16.066
   23DOPE   C38 2936   4.765   7.421  15.991
   23DOPE   H8X 2937   4.681   7.412  15.919
   23DOPE   H8Y 2938   4.781   7.320  16.036
   23DOPE   C39 2939   4.892   7.465  15.924
   23DOPE   H9X 2940   4.982   7.406  15.947
   23DOPE  C310 2941   4.902   7.569  15.840
   23DOPE  H10X 2942   5.000   7.594  15.796
   23DOPE  C311 2943   4.789   7.659  15.798
   23DOPE  H11X 2944   4.690   7.609  15.808
   23DOPE  H11Y 2945   4.786   7.751  15.860
   23DOPE  C312 2946   4.808   7.699  15.651
   23DOPE  H12X 2947   4.905   7.750  15.638
   23DOPE  H12Y 2948   4.729   7.773  15.624
   23DOPE  C313 2949   4.801   7.580  15.554
   23DOPE  H13X 2950   4.881   7.507  15.579
   23DOPE  H13Y 2951   4.704   7.527  15.564
   23DOPE  C314 2952   4.821   7.626  15.410
   23DOPE  H14X 2953   4.909   7.694  15.409
   23DOPE  H14Y 2954   4.734   7.685  15.375
   23DOPE  C315 2955   4.850   7.511  15.313
   23DOPE  H15X 2956   4.923   7.443  15.360
   23DOPE  H15Y 2957   4.898   7.556  15.224
   23DOPE  C316 2958   4.726   7.431  15.268
   23DOPE  H16X 2959   4.643   7.502  15.246
   23DOPE  H16Y 2960   4.693   7.366  15.352
   23DOPE  C317 2961   4.752   7.346  15.143
   23DOPE  H17X 2962   4.834   7.274  15.163
   23DOPE  H17Y 2963   4.661   7.286  15.122
   23DOPE  C318 2964   4.786   7.428  15.018
   23DOPE  H18X 2965   4.884   7.479  15.029
   23DOPE  H18Y 2966   4.793   7.362  14.930
   23DOPE  H18Z 2967   4.709   7.505  14.999
   24DOPE     N 2968   6.859   6.213  17.168
   24DOPE   HN1 2969   6.804   6.126  17.183
   24DOPE   HN2 2970   6.931   6.194  17.096
   24DOPE   HN3 2971   6.902   6.245  17.257
   24DOPE   C12 2972   6.767   6.320  17.114
   24DOPE  H12A 2973   6.832   6.400  17.073
   24DOPE  H12B 2974   6.706   6.361  17.198
   24DOPE   C11 2975   6.678   6.262  17.004
   24DOPE  H11A 2976   6.627   6.344  16.949
   24DOPE  H11B 2977   6.598   6.200  17.049
   24DOPE     P 2978   6.832   6.244  16.795
   24DOPE   O13 2979   6.931   6.337  16.853
   24DOPE   O14 2980   6.734   6.296  16.698
   24DOPE   O11 2981   6.905   6.115  16.741
   24DOPE   O12 2982   6.754   6.179  16.917
   24DOPE    C1 2983   6.835   5.989  16.750
   24DOPE    HA 2984   6.732   5.998  16.710
   24DOPE    HB 2985   6.829   5.956  16.855
   24DOPE    C2 2986   6.904   5.876  16.669
   24DOPE    HS 2987   6.999   5.851  16.721
   24DOPE   O21 2988   6.930   5.920  16.534
   24DOPE   C21 2989   7.038   5.996  16.521
   24DOPE   O22 2990   7.130   6.002  16.602
   24DOPE   C22 2991   7.033   6.078  16.393
   24DOPE   H2R 2992   7.120   6.148  16.402
   24DOPE   H2S 2993   6.940   6.138  16.394
   24DOPE    C3 2994   6.817   5.746  16.671
   24DOPE    HX 2995   6.804   5.717  16.778
   24DOPE    HY 2996   6.870   5.662  16.622
   24DOPE   O31 2997   6.688   5.769  16.614
   24DOPE   C31 2998   6.675   5.724  16.489
   24DOPE   O32 2999   6.741   5.637  16.436
   24DOPE   C32 3000   6.573   5.810  16.419
   24DOPE   H2X 3001   6.570   5.774  16.314
   24DOPE   H2Y 3002   6.474   5.792  16.468
   24DOPE   C23 3003   7.051   6.004  16.258
   24DOPE   H3R 3004   7.139   5.936  16.258
   24DOPE   H3S 3005   7.072   6.080  16.180
   24DOPE   C24 3006   6.920   5.937  16.217
   24DOPE   H4R 3007   6.842   6.012  16.239
   24DOPE   H4S 3008   6.899   5.847  16.278
   24DOPE   C25 3009   6.908   5.906  16.068
   24DOPE   H5R 3010   6.915   5.797  16.049
   24DOPE   H5S 3011   6.989   5.956  16.011
   24DOPE   C26 3012   6.770   5.943  16.013
   24DOPE   H6R 3013   6.779   5.965  15.904
   24DOPE   H6S 3014   6.738   6.037  16.063
   24DOPE   C27 3015   6.667   5.832  16.039
   24DOPE   H7R 3016   6.570   5.878  16.065
   24DOPE   H7S 3017   6.700   5.772  16.127
   24DOPE   C28 3018   6.647   5.737  15.920
   24DOPE   H8R 3019   6.572   5.659  15.947
   24DOPE   H8S 3020   6.743   5.683  15.902
   24DOPE   C29 3021   6.599   5.815  15.800
   24DOPE   H9R 3022   6.511   5.878  15.818
   24DOPE  C210 3023   6.656   5.816  15.678
   24DOPE  H10R 3024   6.612   5.880  15.599
   24DOPE  C211 3025   6.778   5.739  15.636
   24DOPE  H11R 3026   6.842   5.714  15.723
   24DOPE  H11S 3027   6.841   5.800  15.567
   24DOPE  C212 3028   6.737   5.607  15.568
   24DOPE  H12R 3029   6.669   5.550  15.635
   24DOPE  H12S 3030   6.829   5.545  15.555
   24DOPE  C213 3031   6.669   5.625  15.431
   24DOPE  H13R 3032   6.588   5.700  15.440
   24DOPE  H13S 3033   6.622   5.529  15.400
   24DOPE  C214 3034   6.767   5.669  15.321
   24DOPE  H14R 3035   6.830   5.752  15.359
   24DOPE  H14S 3036   6.710   5.709  15.234
   24DOPE  C215 3037   6.856   5.555  15.271
   24DOPE  H15R 3038   6.797   5.490  15.204
   24DOPE  H15S 3039   6.892   5.494  15.357
   24DOPE  C216 3040   6.980   5.609  15.200
   24DOPE  H16R 3041   7.060   5.631  15.273
   24DOPE  H16S 3042   6.947   5.705  15.155
   24DOPE  C217 3043   7.033   5.524  15.084
   24DOPE  H17R 3044   6.987   5.423  15.086
   24DOPE  H17S 3045   7.143   5.512  15.096
   24DOPE  C218 3046   7.007   5.589  14.949
   24DOPE  H18R 3047   7.051   5.527  14.868
   24DOPE  H18S 3048   7.053   5.690  14.942
   24DOPE  H18T 3049   6.898   5.601  14.933
   24DOPE   C33 3050   6.612   5.959  16.428
   24DOPE   H3X 3051   6.713   5.971  16.382
   24DOPE   H3Y 3052   6.621   5.992  16.533
   24DOPE   C34 3053   6.515   6.054  16.358
   24DOPE   H4X 3054   6.495   6.014  16.256
   24DOPE   H4Y 3055   6.420   6.058  16.414
   24DOPE   C35 3056   6.572   6.196  16.338
   24DOPE   H5X 3057   6.673   6.201  16.385
   24DOPE   H5Y 3058   6.508   6.269  16.392
   24DOPE   C36 3059   6.581   6.233  16.189
   24DOPE   H6X 3060   6.494   6.296  16.162
   24DOPE   H6Y 3061   6.574   6.142  16.127
   24DOPE   C37 3062   6.712   6.303  16.151
   24DOPE   H7X 3063   6.715   6.403  16.201
   24DOPE   H7Y 3064   6.798   6.243  16.187
   24DOPE   C38 3065   6.722   6.318  15.998
   24DOPE   H8X 3066   6.628   6.365  15.961
   24DOPE   H8Y 3067   6.725   6.217  15.953
   24DOPE   C39 3068   6.839   6.401  15.953
   24DOPE   H9X 3069   6.829   6.509  15.969
   24DOPE  C310 3070   6.952   6.354  15.897
   24DOPE  H10X 3071   7.027   6.426  15.861
   24DOPE  C311 3072   6.984   6.210  15.868
   24DOPE  H11X 3073   7.094   6.193  15.871
   24DOPE  H11Y 3074   6.940   6.146  15.947
   24DOPE  C312 3075   6.932   6.161  15.731
   24DOPE  H12X 3076   6.821   6.167  15.729
   24DOPE  H12Y 3077   6.960   6.054  15.718
   24DOPE  C313 3078   6.991   6.243  15.615
   24DOPE  H13X 3079   6.970   6.351  15.632
   24DOPE  H13Y 3080   7.101   6.230  15.617
   24DOPE  C314 3081   6.939   6.207  15.475
   24DOPE  H14X 3082   6.831   6.232  15.466
   24DOPE  H14Y 3083   6.951   6.098  15.456
   24DOPE  C315 3084   7.023   6.286  15.373
   24DOPE  H15X 3085   7.127   6.254  15.395
   24DOPE  H15Y 3086   7.014   6.395  15.393
   24DOPE  C316 3087   7.001   6.260  15.223
   24DOPE  H16X 3088   6.939   6.341  15.180
   24DOPE  H16Y 3089   6.944   6.165  15.210
   24DOPE  C317 3090   7.138   6.251  15.150
   24DOPE  H17X 3091   7.203   6.332  15.189
   24DOPE  H17Y 3092   7.184   6.155  15.181
   24DOPE  C318 3093   7.144   6.263  14.997
   24DOPE  H18X 3094   7.110   6.363  14.962
   24DOPE  H18Y 3095   7.248   6.248  14.963
   24DOPE  H18Z 3096   7.081   6.187  14.946
   25DOPE     N 3097   7.656   5.986  16.794
   25DOPE   HN1 3098   7.715   5.923  16.852
   25DOPE   HN2 3099   7.583   5.926  16.752
   25DOPE   HN3 3100   7.714   6.033  16.721
   25DOPE   C12 3101   7.592   6.083  16.889
   25DOPE  H12A 3102   7.483   6.082  16.868
   25DOPE  H12B 3103   7.633   6.184  16.870
   25DOPE   C11 3104   7.621   6.037  17.032
   25DOPE  H11A 3105   7.554   6.089  17.104
   25DOPE  H11B 3106   7.725   6.067  17.057
   25DOPE     P 3107   7.477   5.821  17.063
   25DOPE   O13 3108   7.369   5.910  17.013
   25DOPE   O14 3109   7.469   5.772  17.202
   25DOPE   O11 3110   7.498   5.703  16.958
   25DOPE   O12 3111   7.614   5.895  17.045
   25DOPE    C1 3112   7.547   5.575  17.000
   25DOPE    HA 3113   7.463   5.514  17.039
   25DOPE    HB 3114   7.621   5.586  17.082
   25DOPE    C2 3115   7.621   5.494  16.888
   25DOPE    HS 3116   7.728   5.487  16.919
   25DOPE   O21 3117   7.612   5.559  16.760
   25DOPE   C21 3118   7.694   5.660  16.740
   25DOPE   O22 3119   7.763   5.718  16.822
   25DOPE   C22 3120   7.693   5.697  16.591
   25DOPE   H2R 3121   7.595   5.745  16.569
   25DOPE   H2S 3122   7.701   5.601  16.536
   25DOPE    C3 3123   7.571   5.345  16.878
   25DOPE    HX 3124   7.540   5.311  16.979
   25DOPE    HY 3125   7.655   5.279  16.847
   25DOPE   O31 3126   7.459   5.331  16.790
   25DOPE   C31 3127   7.491   5.328  16.660
   25DOPE   O32 3128   7.598   5.293  16.613
   25DOPE   C32 3129   7.376   5.395  16.590
   25DOPE   H2X 3130   7.283   5.342  16.620
   25DOPE   H2Y 3131   7.375   5.496  16.635
   25DOPE   C23 3132   7.808   5.790  16.546
   25DOPE   H3R 3133   7.905   5.737  16.561
   25DOPE   H3S 3134   7.813   5.882  16.608
   25DOPE   C24 3135   7.797   5.833  16.398
   25DOPE   H4R 3136   7.889   5.890  16.371
   25DOPE   H4S 3137   7.711   5.902  16.386
   25DOPE   C25 3138   7.782   5.713  16.302
   25DOPE   H5R 3139   7.690   5.654  16.325
   25DOPE   H5S 3140   7.866   5.645  16.326
   25DOPE   C26 3141   7.786   5.740  16.151
   25DOPE   H6R 3142   7.867   5.811  16.126
   25DOPE   H6S 3143   7.691   5.786  16.117
   25DOPE   C27 3144   7.803   5.610  16.070
   25DOPE   H7R 3145   7.708   5.586  16.018
   25DOPE   H7S 3146   7.821   5.525  16.139
   25DOPE   C28 3147   7.920   5.617  15.969
   25DOPE   H8R 3148   7.943   5.514  15.935
   25DOPE   H8S 3149   8.011   5.654  16.020
   25DOPE   C29 3150   7.891   5.705  15.850
   25DOPE   H9R 3151   7.938   5.804  15.851
   25DOPE  C210 3152   7.807   5.673  15.751
   25DOPE  H10R 3153   7.787   5.744  15.670
   25DOPE  C211 3154   7.730   5.545  15.745
   25DOPE  H11R 3155   7.767   5.472  15.821
   25DOPE  H11S 3156   7.741   5.495  15.646
   25DOPE  C212 3157   7.583   5.573  15.777
   25DOPE  H12R 3158   7.572   5.655  15.852
   25DOPE  H12S 3159   7.538   5.484  15.826
   25DOPE  C213 3160   7.500   5.608  15.654
   25DOPE  H13R 3161   7.546   5.698  15.608
   25DOPE  H13S 3162   7.398   5.637  15.687
   25DOPE  C214 3163   7.482   5.498  15.550
   25DOPE  H14R 3164   7.429   5.408  15.591
   25DOPE  H14S 3165   7.581   5.464  15.513
   25DOPE  C215 3166   7.398   5.551  15.434
   25DOPE  H15R 3167   7.418   5.659  15.423
   25DOPE  H15S 3168   7.289   5.539  15.457
   25DOPE  C216 3169   7.432   5.487  15.301
   25DOPE  H16R 3170   7.534   5.443  15.302
   25DOPE  H16S 3171   7.433   5.568  15.225
   25DOPE  C217 3172   7.327   5.386  15.262
   25DOPE  H17R 3173   7.340   5.365  15.153
   25DOPE  H17S 3174   7.225   5.430  15.272
   25DOPE  C218 3175   7.335   5.257  15.341
   25DOPE  H18R 3176   7.292   5.273  15.442
   25DOPE  H18S 3177   7.441   5.224  15.353
   25DOPE  H18T 3178   7.278   5.177  15.290
   25DOPE   C33 3179   7.377   5.419  16.438
   25DOPE   H3X 3180   7.276   5.463  16.424
   25DOPE   H3Y 3181   7.370   5.325  16.380
   25DOPE   C34 3182   7.481   5.521  16.388
   25DOPE   H4X 3183   7.495   5.592  16.473
   25DOPE   H4Y 3184   7.578   5.469  16.371
   25DOPE   C35 3185   7.445   5.610  16.266
   25DOPE   H5X 3186   7.346   5.581  16.224
   25DOPE   H5Y 3187   7.519   5.589  16.185
   25DOPE   C36 3188   7.444   5.762  16.293
   25DOPE   H6X 3189   7.536   5.789  16.349
   25DOPE   H6Y 3190   7.360   5.792  16.359
   25DOPE   C37 3191   7.439   5.852  16.167
   25DOPE   H7X 3192   7.478   5.796  16.080
   25DOPE   H7Y 3193   7.332   5.874  16.145
   25DOPE   C38 3194   7.519   5.983  16.183
   25DOPE   H8X 3195   7.627   5.961  16.196
   25DOPE   H8Y 3196   7.486   6.035  16.276
   25DOPE   C39 3197   7.500   6.076  16.066
   25DOPE   H9X 3198   7.424   6.154  16.084
   25DOPE  C310 3199   7.563   6.075  15.947
   25DOPE  H10X 3200   7.532   6.149  15.872
   25DOPE  C311 3201   7.671   5.981  15.898
   25DOPE  H11X 3202   7.745   5.960  15.978
   25DOPE  H11Y 3203   7.625   5.885  15.868
   25DOPE  C312 3204   7.747   6.037  15.774
   25DOPE  H12X 3205   7.821   5.961  15.742
   25DOPE  H12Y 3206   7.804   6.128  15.802
   25DOPE  C313 3207   7.655   6.067  15.655
   25DOPE  H13X 3208   7.574   5.991  15.649
   25DOPE  H13Y 3209   7.606   6.165  15.674
   25DOPE  C314 3210   7.726   6.081  15.519
   25DOPE  H14X 3211   7.819   6.140  15.533
   25DOPE  H14Y 3212   7.660   6.136  15.448
   25DOPE  C315 3213   7.768   5.951  15.453
   25DOPE  H15X 3214   7.832   5.893  15.523
   25DOPE  H15Y 3215   7.830   5.974  15.363
   25DOPE  C316 3216   7.648   5.867  15.408
   25DOPE  H16X 3217   7.596   5.916  15.323
   25DOPE  H16Y 3218   7.575   5.860  15.491
   25DOPE  C317 3219   7.692   5.726  15.370
   25DOPE  H17X 3220   7.788   5.703  15.420
   25DOPE  H17Y 3221   7.623   5.652  15.415
   25DOPE  C318 3222   7.694   5.700  15.220
   25DOPE  H18X 3223   7.736   5.600  15.197
   25DOPE  H18Y 3224   7.589   5.704  15.182
   25DOPE  H18Z 3225   7.750   5.779  15.166
   26DOPE     N 3226   0.641   6.405  16.753
   26DOPE   HN1 3227   0.676   6.481  16.815
   26DOPE   HN2 3228   0.701   6.321  16.770
   26DOPE   HN3 3229   0.649   6.439  16.655
   26DOPE   C12 3230   0.498   6.380  16.793
   26DOPE  H12A 3231   0.497   6.303  16.873
   26DOPE  H12B 3232   0.444   6.342  16.704
   26DOPE   C11 3233   0.434   6.509  16.846
   26DOPE  H11A 3234   0.328   6.486  16.870
   26DOPE  H11B 3235   0.431   6.587  16.766
   26DOPE     P 3236   0.600   6.674  16.966
   26DOPE   O13 3237   0.719   6.617  16.898
   26DOPE   O14 3238   0.618   6.725  17.104
   26DOPE   O11 3239   0.530   6.779  16.873
   26DOPE   O12 3240   0.497   6.554  16.967
   26DOPE    C1 3241   0.424   6.860  16.925
   26DOPE    HA 3242   0.467   6.954  16.965
   26DOPE    HB 3243   0.367   6.811  17.007
   26DOPE    C2 3244   0.320   6.897  16.815
   26DOPE    HS 3245   0.252   6.974  16.858
   26DOPE   O21 3246   0.243   6.778  16.789
   26DOPE   C21 3247   0.171   6.772  16.679
   26DOPE   O22 3248   0.128   6.865  16.614
   26DOPE   C22 3249   0.161   6.624  16.638
   26DOPE   H2R 3250   0.052   6.602  16.628
   26DOPE   H2S 3251   0.198   6.561  16.722
   26DOPE    C3 3252   0.387   6.962  16.691
   26DOPE    HX 3253   0.464   7.033  16.728
   26DOPE    HY 3254   0.311   7.023  16.637
   26DOPE   O31 3255   0.440   6.861  16.603
   26DOPE   C31 3256   0.557   6.884  16.549
   26DOPE   O32 3257   0.624   6.985  16.558
   26DOPE   C32 3258   0.594   6.759  16.470
   26DOPE   H2X 3259   0.613   6.678  16.543
   26DOPE   H2Y 3260   0.506   6.731  16.408
   26DOPE   C23 3261   0.240   6.596  16.508
   26DOPE   H3R 3262   0.340   6.643  16.522
   26DOPE   H3S 3263   0.194   6.649  16.422
   26DOPE   C24 3264   0.270   6.447  16.479
   26DOPE   H4R 3265   0.248   6.388  16.570
   26DOPE   H4S 3266   0.379   6.439  16.459
   26DOPE   C25 3267   0.199   6.377  16.360
   26DOPE   H5R 3268   0.113   6.318  16.400
   26DOPE   H5S 3269   0.268   6.302  16.316
   26DOPE   C26 3270   0.143   6.463  16.245
   26DOPE   H6R 3271   0.081   6.545  16.286
   26DOPE   H6S 3272   0.074   6.400  16.185
   26DOPE   C27 3273   0.249   6.520  16.150
   26DOPE   H7R 3274   0.293   6.437  16.090
   26DOPE   H7S 3275   0.331   6.566  16.209
   26DOPE   C28 3276   0.193   6.627  16.055
   26DOPE   H8R 3277   0.278   6.668  15.996
   26DOPE   H8S 3278   0.156   6.711  16.117
   26DOPE   C29 3279   0.081   6.576  15.967
   26DOPE   H9R 3280  -0.013   6.557  16.020
   26DOPE  C210 3281   0.086   6.553  15.834
   26DOPE  H10R 3282  -0.003   6.515  15.783
   26DOPE  C211 3283   0.207   6.575  15.746
   26DOPE  H11R 3284   0.276   6.650  15.790
   26DOPE  H11S 3285   0.175   6.616  15.648
   26DOPE  C212 3286   0.289   6.446  15.725
   26DOPE  H12R 3287   0.294   6.389  15.821
   26DOPE  H12S 3288   0.393   6.473  15.697
   26DOPE  C213 3289   0.233   6.355  15.615
   26DOPE  H13R 3290   0.123   6.345  15.627
   26DOPE  H13S 3291   0.279   6.255  15.627
   26DOPE  C214 3292   0.266   6.407  15.474
   26DOPE  H14R 3293   0.376   6.402  15.461
   26DOPE  H14S 3294   0.235   6.513  15.468
   26DOPE  C215 3295   0.200   6.333  15.356
   26DOPE  H15R 3296   0.090   6.330  15.371
   26DOPE  H15S 3297   0.238   6.228  15.350
   26DOPE  C216 3298   0.232   6.406  15.225
   26DOPE  H16R 3299   0.342   6.420  15.220
   26DOPE  H16S 3300   0.184   6.506  15.231
   26DOPE  C217 3301   0.188   6.341  15.093
   26DOPE  H17R 3302   0.078   6.325  15.095
   26DOPE  H17S 3303   0.237   6.242  15.083
   26DOPE  C218 3304   0.223   6.428  14.972
   26DOPE  H18R 3305   0.182   6.384  14.878
   26DOPE  H18S 3306   0.333   6.437  14.960
   26DOPE  H18T 3307   0.182   6.530  14.983
   26DOPE   C33 3308   0.715   6.779  16.377
   26DOPE   H3X 3309   0.808   6.793  16.437
   26DOPE   H3Y 3310   0.700   6.871  16.317
   26DOPE   C34 3311   0.729   6.661  16.282
   26DOPE   H4X 3312   0.750   6.568  16.340
   26DOPE   H4Y 3313   0.633   6.646  16.229
   26DOPE   C35 3314   0.840   6.682  16.178
   26DOPE   H5X 3315   0.933   6.712  16.231
   26DOPE   H5Y 3316   0.811   6.766  16.111
   26DOPE   C36 3317   0.869   6.556  16.095
   26DOPE   H6X 3318   0.908   6.477  16.163
   26DOPE   H6Y 3319   0.949   6.579  16.022
   26DOPE   C37 3320   0.749   6.501  16.017
   26DOPE   H7X 3321   0.667   6.476  16.088
   26DOPE   H7Y 3322   0.711   6.579  15.948
   26DOPE   C38 3323   0.788   6.375  15.938
   26DOPE   H8X 3324   0.833   6.302  16.008
   26DOPE   H8Y 3325   0.869   6.405  15.867
   26DOPE   C39 3326   0.671   6.312  15.868
   26DOPE   H9X 3327   0.581   6.299  15.930
   26DOPE  C310 3328   0.665   6.273  15.739
   26DOPE  H10X 3329   0.571   6.231  15.701
   26DOPE  C311 3330   0.775   6.285  15.636
   26DOPE  H11X 3331   0.872   6.317  15.679
   26DOPE  H11Y 3332   0.793   6.185  15.590
   26DOPE  C312 3333   0.737   6.383  15.523
   26DOPE  H12X 3334   0.643   6.349  15.474
   26DOPE  H12Y 3335   0.817   6.381  15.446
   26DOPE  C313 3336   0.721   6.528  15.571
   26DOPE  H13X 3337   0.642   6.534  15.649
   26DOPE  H13Y 3338   0.816   6.561  15.617
   26DOPE  C314 3339   0.684   6.626  15.458
   26DOPE  H14X 3340   0.759   6.619  15.376
   26DOPE  H14Y 3341   0.690   6.729  15.500
   26DOPE  C315 3342   0.543   6.604  15.401
   26DOPE  H15X 3343   0.472   6.601  15.486
   26DOPE  H15Y 3344   0.538   6.507  15.348
   26DOPE  C316 3345   0.499   6.717  15.307
   26DOPE  H16X 3346   0.570   6.725  15.221
   26DOPE  H16Y 3347   0.504   6.811  15.366
   26DOPE  C317 3348   0.355   6.704  15.254
   26DOPE  H17X 3349   0.356   6.628  15.173
   26DOPE  H17Y 3350   0.292   6.667  15.338
   26DOPE  C318 3351   0.290   6.831  15.198
   26DOPE  H18X 3352   0.184   6.810  15.170
   26DOPE  H18Y 3353   0.289   6.912  15.274
   26DOPE  H18Z 3354   0.343   6.866  15.108
   27DOPE     N 3355   5.850   7.467  16.654
   27DOPE   HN1 3356   5.751   7.497  16.648
   27DOPE   HN2 3357   5.907   7.516  16.583
   27DOPE   HN3 3358   5.855   7.364  16.636
   27DOPE   C12 3359   5.906   7.494  16.792
   27DOPE  H12A 3360   5.840   7.445  16.866
   27DOPE  H12B 3361   5.903   7.604  16.808
   27DOPE   C11 3362   6.049   7.440  16.805
   27DOPE  H11A 3363   6.118   7.492  16.735
   27DOPE  H11B 3364   6.051   7.333  16.778
   27DOPE     P 3365   6.123   7.595  17.003
   27DOPE   O13 3366   6.248   7.594  17.081
   27DOPE   O14 3367   6.001   7.644  17.072
   27DOPE   O11 3368   6.143   7.682  16.873
   27DOPE   O12 3369   6.093   7.452  16.940
   27DOPE    C1 3370   6.170   7.821  16.891
   27DOPE    HA 3371   6.269   7.835  16.940
   27DOPE    HB 3372   6.093   7.869  16.954
   27DOPE    C2 3373   6.170   7.900  16.757
   27DOPE    HS 3374   6.165   8.008  16.785
   27DOPE   O21 3375   6.053   7.864  16.681
   27DOPE   C21 3376   6.029   7.944  16.578
   27DOPE   O22 3377   6.098   8.037  16.543
   27DOPE   C22 3378   5.897   7.899  16.514
   27DOPE   H2R 3379   5.816   7.928  16.585
   27DOPE   H2S 3380   5.899   7.789  16.503
   27DOPE    C3 3381   6.305   7.882  16.679
   27DOPE    HX 3382   6.384   7.902  16.754
   27DOPE    HY 3383   6.311   7.962  16.601
   27DOPE   O31 3384   6.322   7.754  16.614
   27DOPE   C31 3385   6.449   7.736  16.577
   27DOPE   O32 3386   6.542   7.808  16.610
   27DOPE   C32 3387   6.464   7.610  16.494
   27DOPE   H2X 3388   6.535   7.548  16.554
   27DOPE   H2Y 3389   6.366   7.559  16.487
   27DOPE   C23 3390   5.871   7.967  16.378
   27DOPE   H3R 3391   5.886   8.076  16.385
   27DOPE   H3S 3392   5.765   7.950  16.351
   27DOPE   C24 3393   5.958   7.909  16.265
   27DOPE   H4R 3394   5.947   7.799  16.262
   27DOPE   H4S 3395   6.065   7.932  16.285
   27DOPE   C25 3396   5.918   7.967  16.129
   27DOPE   H5R 3397   5.939   8.077  16.128
   27DOPE   H5S 3398   5.808   7.955  16.117
   27DOPE   C26 3399   5.987   7.901  16.009
   27DOPE   H6R 3400   5.941   7.942  15.917
   27DOPE   H6S 3401   5.969   7.792  16.011
   27DOPE   C27 3402   6.139   7.926  16.001
   27DOPE   H7R 3403   6.189   7.865  16.079
   27DOPE   H7S 3404   6.160   8.033  16.023
   27DOPE   C28 3405   6.192   7.894  15.859
   27DOPE   H8R 3406   6.211   7.991  15.808
   27DOPE   H8S 3407   6.109   7.846  15.803
   27DOPE   C29 3408   6.312   7.804  15.852
   27DOPE   H9R 3409   6.331   7.742  15.941
   27DOPE  C210 3410   6.399   7.800  15.749
   27DOPE  H10R 3411   6.488   7.735  15.755
   27DOPE  C211 3412   6.388   7.886  15.626
   27DOPE  H11R 3413   6.402   7.991  15.658
   27DOPE  H11S 3414   6.285   7.878  15.583
   27DOPE  C212 3415   6.490   7.859  15.513
   27DOPE  H12R 3416   6.591   7.884  15.553
   27DOPE  H12S 3417   6.470   7.929  15.429
   27DOPE  C213 3418   6.496   7.715  15.460
   27DOPE  H13R 3419   6.521   7.654  15.550
   27DOPE  H13S 3420   6.581   7.707  15.389
   27DOPE  C214 3421   6.370   7.655  15.394
   27DOPE  H14R 3422   6.377   7.665  15.284
   27DOPE  H14S 3423   6.287   7.719  15.430
   27DOPE  C215 3424   6.322   7.512  15.434
   27DOPE  H15R 3425   6.226   7.496  15.380
   27DOPE  H15S 3426   6.300   7.513  15.542
   27DOPE  C216 3427   6.404   7.385  15.402
   27DOPE  H16R 3428   6.346   7.298  15.440
   27DOPE  H16S 3429   6.499   7.382  15.460
   27DOPE  C217 3430   6.436   7.358  15.255
   27DOPE  H17R 3431   6.521   7.287  15.253
   27DOPE  H17S 3432   6.470   7.452  15.205
   27DOPE  C218 3433   6.320   7.295  15.179
   27DOPE  H18R 3434   6.236   7.367  15.168
   27DOPE  H18S 3435   6.283   7.206  15.234
   27DOPE  H18T 3436   6.352   7.263  15.078
   27DOPE   C33 3437   6.525   7.631  16.353
   27DOPE   H3X 3438   6.590   7.544  16.329
   27DOPE   H3Y 3439   6.591   7.720  16.352
   27DOPE   C34 3440   6.420   7.640  16.242
   27DOPE   H4X 3441   6.346   7.720  16.264
   27DOPE   H4Y 3442   6.472   7.668  16.147
   27DOPE   C35 3443   6.349   7.507  16.214
   27DOPE   H5X 3444   6.297   7.470  16.305
   27DOPE   H5Y 3445   6.425   7.431  16.186
   27DOPE   C36 3446   6.249   7.518  16.098
   27DOPE   H6X 3447   6.304   7.555  16.009
   27DOPE   H6Y 3448   6.170   7.592  16.123
   27DOPE   C37 3449   6.186   7.383  16.060
   27DOPE   H7X 3450   6.266   7.307  16.057
   27DOPE   H7Y 3451   6.114   7.352  16.138
   27DOPE   C38 3452   6.118   7.387  15.921
   27DOPE   H8X 3453   6.080   7.286  15.897
   27DOPE   H8Y 3454   6.195   7.410  15.844
   27DOPE   C39 3455   6.006   7.487  15.918
   27DOPE   H9X 3456   5.946   7.490  16.010
   27DOPE  C310 3457   5.973   7.570  15.817
   27DOPE  H10X 3458   5.888   7.639  15.832
   27DOPE  C311 3459   6.037   7.584  15.681
   27DOPE  H11X 3460   6.091   7.681  15.674
   27DOPE  H11Y 3461   6.112   7.504  15.662
   27DOPE  C312 3462   5.930   7.579  15.570
   27DOPE  H12X 3463   5.835   7.627  15.603
   27DOPE  H12Y 3464   5.908   7.473  15.548
   27DOPE  C313 3465   5.971   7.646  15.438
   27DOPE  H13X 3466   6.075   7.618  15.413
   27DOPE  H13Y 3467   5.905   7.607  15.357
   27DOPE  C314 3468   5.959   7.799  15.438
   27DOPE  H14X 3469   6.031   7.841  15.513
   27DOPE  H14Y 3470   5.857   7.828  15.470
   27DOPE  C315 3471   5.988   7.861  15.300
   27DOPE  H15X 3472   5.964   7.969  15.304
   27DOPE  H15Y 3473   5.921   7.815  15.224
   27DOPE  C316 3474   6.134   7.844  15.257
   27DOPE  H16X 3475   6.152   7.737  15.234
   27DOPE  H16Y 3476   6.199   7.873  15.342
   27DOPE  C317 3477   6.180   7.928  15.137
   27DOPE  H17X 3478   6.189   8.034  15.169
   27DOPE  H17Y 3479   6.283   7.892  15.113
   27DOPE  C318 3480   6.094   7.919  15.012
   27DOPE  H18X 3481   5.990   7.953  15.033
   27DOPE  H18Y 3482   6.136   7.984  14.932
   27DOPE  H18Z 3483   6.091   7.814  14.974
   28DOPE     N 3484   7.522   6.967  17.065
   28DOPE   HN1 3485   7.515   6.949  16.963
   28DOPE   HN2 3486   7.438   7.019  17.097
   28DOPE   HN3 3487   7.609   7.023  17.081
   28DOPE   C12 3488   7.534   6.830  17.126
   28DOPE  H12A 3489   7.558   6.841  17.234
   28DOPE  H12B 3490   7.619   6.780  17.075
   28DOPE   C11 3491   7.406   6.743  17.107
   28DOPE  H11A 3492   7.338   6.764  17.193
   28DOPE  H11B 3493   7.433   6.636  17.114
   28DOPE     P 3494   7.394   6.741  16.845
   28DOPE   O13 3495   7.505   6.838  16.831
   28DOPE   O14 3496   7.282   6.747  16.750
   28DOPE   O11 3497   7.451   6.596  16.868
   28DOPE   O12 3498   7.332   6.770  16.988
   28DOPE    C1 3499   7.379   6.478  16.831
   28DOPE    HA 3500   7.270   6.496  16.817
   28DOPE    HB 3501   7.391   6.402  16.911
   28DOPE    C2 3502   7.435   6.418  16.701
   28DOPE    HS 3503   7.538   6.384  16.725
   28DOPE   O21 3504   7.436   6.523  16.602
   28DOPE   C21 3505   7.533   6.515  16.515
   28DOPE   O22 3506   7.610   6.422  16.504
   28DOPE   C22 3507   7.544   6.649  16.441
   28DOPE   H2R 3508   7.652   6.674  16.432
   28DOPE   H2S 3509   7.496   6.729  16.503
   28DOPE    C3 3510   7.352   6.294  16.654
   28DOPE    HX 3511   7.308   6.245  16.743
   28DOPE    HY 3512   7.420   6.219  16.608
   28DOPE   O31 3513   7.246   6.336  16.567
   28DOPE   C31 3514   7.275   6.330  16.437
   28DOPE   O32 3515   7.371   6.271  16.390
   28DOPE   C32 3516   7.171   6.409  16.358
   28DOPE   H2X 3517   7.072   6.387  16.403
   28DOPE   H2Y 3518   7.193   6.517  16.373
   28DOPE   C23 3519   7.481   6.645  16.301
   28DOPE   H3R 3520   7.371   6.643  16.312
   28DOPE   H3S 3521   7.513   6.552  16.249
   28DOPE   C24 3522   7.520   6.763  16.211
   28DOPE   H4R 3523   7.628   6.756  16.186
   28DOPE   H4S 3524   7.504   6.859  16.265
   28DOPE   C25 3525   7.435   6.761  16.084
   28DOPE   H5R 3526   7.333   6.797  16.108
   28DOPE   H5S 3527   7.427   6.655  16.051
   28DOPE   C26 3528   7.491   6.836  15.964
   28DOPE   H6R 3529   7.580   6.783  15.923
   28DOPE   H6S 3530   7.526   6.937  15.994
   28DOPE   C27 3531   7.384   6.848  15.855
   28DOPE   H7R 3532   7.304   6.915  15.893
   28DOPE   H7S 3533   7.337   6.749  15.837
   28DOPE   C28 3534   7.438   6.907  15.723
   28DOPE   H8R 3535   7.521   6.978  15.745
   28DOPE   H8S 3536   7.356   6.965  15.677
   28DOPE   C29 3537   7.487   6.798  15.631
   28DOPE   H9R 3538   7.556   6.725  15.677
   28DOPE  C210 3539   7.457   6.787  15.501
   28DOPE  H10R 3540   7.493   6.700  15.445
   28DOPE  C211 3541   7.370   6.882  15.424
   28DOPE  H11R 3542   7.404   6.886  15.318
   28DOPE  H11S 3543   7.386   6.984  15.465
   28DOPE  C212 3544   7.219   6.858  15.426
   28DOPE  H12R 3545   7.168   6.956  15.422
   28DOPE  H12S 3546   7.187   6.807  15.520
   28DOPE  C213 3547   7.175   6.779  15.304
   28DOPE  H13R 3548   7.235   6.685  15.298
   28DOPE  H13S 3549   7.198   6.840  15.214
   28DOPE  C214 3550   7.027   6.745  15.303
   28DOPE  H14R 3551   6.968   6.835  15.329
   28DOPE  H14S 3552   7.006   6.667  15.380
   28DOPE  C215 3553   6.979   6.696  15.166
   28DOPE  H15R 3554   6.975   6.781  15.095
   28DOPE  H15S 3555   6.875   6.659  15.181
   28DOPE  C216 3556   7.064   6.583  15.107
   28DOPE  H16R 3557   6.996   6.513  15.055
   28DOPE  H16S 3558   7.111   6.528  15.191
   28DOPE  C217 3559   7.172   6.626  15.006
   28DOPE  H17R 3560   7.237   6.537  14.990
   28DOPE  H17S 3561   7.237   6.706  15.049
   28DOPE  C218 3562   7.120   6.669  14.870
   28DOPE  H18R 3563   7.061   6.587  14.823
   28DOPE  H18S 3564   7.203   6.695  14.801
   28DOPE  H18T 3565   7.054   6.758  14.880
   28DOPE   C33 3566   7.170   6.372  16.208
   28DOPE   H3X 3567   7.080   6.417  16.162
   28DOPE   H3Y 3568   7.163   6.262  16.196
   28DOPE   C34 3569   7.294   6.421  16.132
   28DOPE   H4X 3570   7.295   6.532  16.139
   28DOPE   H4Y 3571   7.386   6.381  16.178
   28DOPE   C35 3572   7.293   6.379  15.985
   28DOPE   H5X 3573   7.214   6.437  15.932
   28DOPE   H5Y 3574   7.266   6.272  15.979
   28DOPE   C36 3575   7.426   6.400  15.912
   28DOPE   H6X 3576   7.505   6.340  15.961
   28DOPE   H6Y 3577   7.458   6.506  15.917
   28DOPE   C37 3578   7.413   6.362  15.764
   28DOPE   H7X 3579   7.513   6.334  15.724
   28DOPE   H7Y 3580   7.345   6.276  15.752
   28DOPE   C38 3581   7.365   6.483  15.682
   28DOPE   H8X 3582   7.457   6.543  15.662
   28DOPE   H8Y 3583   7.300   6.545  15.748
   28DOPE   C39 3584   7.291   6.460  15.554
   28DOPE   H9X 3585   7.187   6.496  15.556
   28DOPE  C310 3586   7.335   6.404  15.441
   28DOPE  H10X 3587   7.266   6.406  15.355
   28DOPE  C311 3588   7.470   6.347  15.406
   28DOPE  H11X 3589   7.549   6.382  15.476
   28DOPE  H11Y 3590   7.466   6.236  15.413
   28DOPE  C312 3591   7.509   6.384  15.261
   28DOPE  H12X 3592   7.434   6.344  15.189
   28DOPE  H12Y 3593   7.606   6.336  15.237
   28DOPE  C313 3594   7.522   6.536  15.244
   28DOPE  H13X 3595   7.421   6.581  15.254
   28DOPE  H13Y 3596   7.585   6.572  15.328
   28DOPE  C314 3597   7.586   6.591  15.115
   28DOPE  H14X 3598   7.697   6.584  15.124
   28DOPE  H14Y 3599   7.561   6.699  15.110
   28DOPE  C315 3600   7.544   6.524  14.984
   28DOPE  H15X 3601   7.435   6.504  14.985
   28DOPE  H15Y 3602   7.595   6.427  14.973
   28DOPE  C316 3603   7.578   6.614  14.864
   28DOPE  H16X 3604   7.683   6.648  14.875
   28DOPE  H16Y 3605   7.514   6.705  14.867
   28DOPE  C317 3606   7.563   6.546  14.727
   28DOPE  H17X 3607   7.611   6.611  14.651
   28DOPE  H17Y 3608   7.620   6.450  14.729
   28DOPE  C318 3609   7.419   6.519  14.685
   28DOPE  H18X 3610   7.366   6.457  14.760
   28DOPE  H18Y 3611   7.364   6.615  14.673
   28DOPE  H18Z 3612   7.416   6.466  14.587
   29DOPE     N 3613   7.040   0.838  16.999
   29DOPE   HN1 3614   7.041   0.937  17.032
   29DOPE   HN2 3615   7.021   0.839  16.897
   29DOPE   HN3 3616   6.960   0.793  17.049
   29DOPE   C12 3617   7.170   0.768  17.026
   29DOPE  H12A 3618   7.167   0.670  16.974
   29DOPE  H12B 3619   7.177   0.752  17.136
   29DOPE   C11 3620   7.290   0.850  16.977
   29DOPE  H11A 3621   7.279   0.956  17.008
   29DOPE  H11B 3622   7.293   0.847  16.866
   29DOPE     P 3623   7.546   0.792  16.961
   29DOPE   O13 3624   7.648   0.752  17.061
   29DOPE   O14 3625   7.565   0.917  16.886
   29DOPE   O11 3626   7.513   0.672  16.863
   29DOPE   O12 3627   7.407   0.796  17.037
   29DOPE    C1 3628   7.612   0.576  16.823
   29DOPE    HA 3629   7.569   0.474  16.836
   29DOPE    HB 3630   7.702   0.579  16.887
   29DOPE    C2 3631   7.656   0.588  16.673
   29DOPE    HS 3632   7.736   0.512  16.657
   29DOPE   O21 3633   7.705   0.719  16.645
   29DOPE   C21 3634   7.821   0.751  16.700
   29DOPE   O22 3635   7.891   0.675  16.766
   29DOPE   C22 3636   7.862   0.894  16.665
   29DOPE   H2R 3637   7.964   0.893  16.621
   29DOPE   H2S 3638   7.867   0.950  16.760
   29DOPE    C3 3639   7.542   0.553  16.571
   29DOPE    HX 3640   7.486   0.466  16.611
   29DOPE    HY 3641   7.595   0.519  16.479
   29DOPE   O31 3642   7.450   0.662  16.547
   29DOPE   C31 3643   7.436   0.701  16.420
   29DOPE   O32 3644   7.484   0.646  16.323
   29DOPE   C32 3645   7.346   0.825  16.413
   29DOPE   H2X 3646   7.286   0.824  16.507
   29DOPE   H2Y 3647   7.410   0.916  16.415
   29DOPE   C23 3648   7.767   0.968  16.570
   29DOPE   H3R 3649   7.801   1.074  16.563
   29DOPE   H3S 3650   7.664   0.971  16.613
   29DOPE   C24 3651   7.763   0.918  16.426
   29DOPE   H4R 3652   7.709   0.821  16.421
   29DOPE   H4S 3653   7.865   0.903  16.385
   29DOPE   C25 3654   7.689   1.022  16.343
   29DOPE   H5R 3655   7.755   1.109  16.322
   29DOPE   H5S 3656   7.603   1.058  16.404
   29DOPE   C26 3657   7.631   0.966  16.215
   29DOPE   H6R 3658   7.558   1.038  16.173
   29DOPE   H6S 3659   7.575   0.873  16.240
   29DOPE   C27 3660   7.736   0.936  16.108
   29DOPE   H7R 3661   7.809   0.861  16.144
   29DOPE   H7S 3662   7.792   1.029  16.085
   29DOPE   C28 3663   7.666   0.888  15.982
   29DOPE   H8R 3664   7.739   0.889  15.898
   29DOPE   H8S 3665   7.589   0.964  15.957
   29DOPE   C29 3666   7.600   0.754  16.002
   29DOPE   H9R 3667   7.522   0.749  16.080
   29DOPE  C210 3668   7.627   0.642  15.935
   29DOPE  H10R 3669   7.571   0.550  15.956
   29DOPE  C211 3670   7.730   0.635  15.828
   29DOPE  H11R 3671   7.774   0.533  15.832
   29DOPE  H11S 3672   7.813   0.706  15.849
   29DOPE  C212 3673   7.683   0.660  15.684
   29DOPE  H12R 3674   7.576   0.632  15.669
   29DOPE  H12S 3675   7.744   0.588  15.627
   29DOPE  C213 3676   7.711   0.800  15.625
   29DOPE  H13R 3677   7.820   0.824  15.634
   29DOPE  H13S 3678   7.657   0.876  15.685
   29DOPE  C214 3679   7.668   0.813  15.477
   29DOPE  H14R 3680   7.605   0.904  15.466
   29DOPE  H14S 3681   7.604   0.726  15.452
   29DOPE  C215 3682   7.784   0.823  15.376
   29DOPE  H15R 3683   7.872   0.772  15.419
   29DOPE  H15S 3684   7.813   0.929  15.361
   29DOPE  C216 3685   7.757   0.757  15.240
   29DOPE  H16R 3686   7.719   0.833  15.167
   29DOPE  H16S 3687   7.677   0.681  15.252
   29DOPE  C217 3688   7.880   0.686  15.180
   29DOPE  H17R 3689   7.928   0.625  15.260
   29DOPE  H17S 3690   7.958   0.759  15.150
   29DOPE  C218 3691   7.844   0.594  15.063
   29DOPE  H18R 3692   7.929   0.527  15.038
   29DOPE  H18S 3693   7.816   0.652  14.973
   29DOPE  H18T 3694   7.756   0.530  15.089
   29DOPE   C33 3695   7.248   0.828  16.292
   29DOPE   H3X 3696   7.147   0.858  16.330
   29DOPE   H3Y 3697   7.238   0.726  16.249
   29DOPE   C34 3698   7.284   0.924  16.177
   29DOPE   H4X 3699   7.290   1.028  16.215
   29DOPE   H4Y 3700   7.384   0.895  16.137
   29DOPE   C35 3701   7.181   0.915  16.063
   29DOPE   H5X 3702   7.086   0.961  16.098
   29DOPE   H5Y 3703   7.161   0.808  16.045
   29DOPE   C36 3704   7.220   0.979  15.927
   29DOPE   H6X 3705   7.251   1.084  15.941
   29DOPE   H6Y 3706   7.124   0.981  15.871
   29DOPE   C37 3707   7.322   0.899  15.843
   29DOPE   H7X 3708   7.396   0.863  15.918
   29DOPE   H7Y 3709   7.273   0.807  15.808
   29DOPE   C38 3710   7.409   0.960  15.725
   29DOPE   H8X 3711   7.439   0.871  15.667
   29DOPE   H8Y 3712   7.502   0.993  15.776
   29DOPE   C39 3713   7.383   1.073  15.626
   29DOPE   H9X 3714   7.374   1.171  15.675
   29DOPE  C310 3715   7.347   1.075  15.496
   29DOPE  H10X 3716   7.331   1.172  15.448
   29DOPE  C311 3717   7.318   0.958  15.407
   29DOPE  H11X 3718   7.376   0.868  15.436
   29DOPE  H11Y 3719   7.210   0.938  15.423
   29DOPE  C312 3720   7.323   0.974  15.255
   29DOPE  H12X 3721   7.245   1.046  15.221
   29DOPE  H12Y 3722   7.298   0.876  15.209
   29DOPE  C313 3723   7.460   1.019  15.209
   29DOPE  H13X 3724   7.458   1.130  15.212
   29DOPE  H13Y 3725   7.537   0.984  15.281
   29DOPE  C314 3726   7.498   0.969  15.070
   29DOPE  H14X 3727   7.508   0.858  15.072
   29DOPE  H14Y 3728   7.598   1.011  15.048
   29DOPE  C315 3729   7.400   1.007  14.957
   29DOPE  H15X 3730   7.307   0.947  14.968
   29DOPE  H15Y 3731   7.446   0.981  14.860
   29DOPE  C316 3732   7.362   1.156  14.956
   29DOPE  H16X 3733   7.309   1.181  15.050
   29DOPE  H16Y 3734   7.293   1.177  14.872
   29DOPE  C317 3735   7.481   1.249  14.939
   29DOPE  H17X 3736   7.554   1.224  15.018
   29DOPE  H17Y 3737   7.533   1.223  14.845
   29DOPE  C318 3738   7.445   1.398  14.946
   29DOPE  H18X 3739   7.375   1.426  14.865
   29DOPE  H18Y 3740   7.396   1.422  15.043
   29DOPE  H18Z 3741   7.536   1.462  14.938
   30DOPE     N 3742   0.669   7.307  17.119
   30DOPE   HN1 3743   0.764   7.329  17.083
   30DOPE   HN2 3744   0.677   7.235  17.193
   30DOPE   HN3 3745   0.617   7.264  17.039
   30DOPE   C12 3746   0.592   7.431  17.157
   30DOPE  H12A 3747   0.666   7.511  17.181
   30DOPE  H12B 3748   0.531   7.408  17.247
   30DOPE   C11 3749   0.499   7.474  17.042
   30DOPE  H11A 3750   0.553   7.483  16.945
   30DOPE  H11B 3751   0.459   7.575  17.065
   30DOPE     P 3752   0.390   7.251  16.950
   30DOPE   O13 3753   0.329   7.145  17.034
   30DOPE   O14 3754   0.530   7.228  16.907
   30DOPE   O11 3755   0.295   7.282  16.830
   30DOPE   O12 3756   0.389   7.384  17.033
   30DOPE    C1 3757   0.159   7.312  16.869
   30DOPE    HA 3758   0.152   7.372  16.962
   30DOPE    HB 3759   0.104   7.216  16.886
   30DOPE    C2 3760   0.083   7.395  16.762
   30DOPE    HS 3761  -0.023   7.397  16.795
   30DOPE   O21 3762   0.096   7.336  16.631
   30DOPE   C21 3763   0.030   7.223  16.614
   30DOPE   O22 3764  -0.038   7.168  16.699
   30DOPE   C22 3765   0.036   7.182  16.466
   30DOPE   H2R 3766  -0.013   7.264  16.410
   30DOPE   H2S 3767  -0.025   7.089  16.457
   30DOPE    C3 3768   0.134   7.542  16.759
   30DOPE    HX 3769   0.118   7.585  16.860
   30DOPE    HY 3770   0.072   7.603  16.690
   30DOPE   O31 3771   0.274   7.550  16.729
   30DOPE   C31 3772   0.302   7.543  16.599
   30DOPE   O32 3773   0.223   7.564  16.508
   30DOPE   C32 3774   0.451   7.513  16.582
   30DOPE   H2X 3775   0.506   7.578  16.654
   30DOPE   H2Y 3776   0.467   7.407  16.611
   30DOPE   C23 3777   0.174   7.160  16.402
   30DOPE   H3R 3778   0.229   7.080  16.456
   30DOPE   H3S 3779   0.234   7.253  16.406
   30DOPE   C24 3780   0.158   7.116  16.255
   30DOPE   H4R 3781   0.112   7.199  16.197
   30DOPE   H4S 3782   0.089   7.029  16.250
   30DOPE   C25 3783   0.291   7.075  16.190
   30DOPE   H5R 3784   0.344   7.003  16.257
   30DOPE   H5S 3785   0.355   7.166  16.183
   30DOPE   C26 3786   0.277   7.010  16.051
   30DOPE   H6R 3787   0.233   6.908  16.061
   30DOPE   H6S 3788   0.379   6.997  16.008
   30DOPE   C27 3789   0.191   7.089  15.952
   30DOPE   H7R 3790   0.200   7.197  15.978
   30DOPE   H7S 3791   0.084   7.061  15.965
   30DOPE   C28 3792   0.232   7.075  15.804
   30DOPE   H8R 3793   0.331   7.124  15.794
   30DOPE   H8S 3794   0.160   7.133  15.743
   30DOPE   C29 3795   0.240   6.936  15.748
   30DOPE   H9R 3796   0.178   6.860  15.799
   30DOPE  C210 3797   0.315   6.901  15.641
   30DOPE  H10R 3798   0.314   6.796  15.608
   30DOPE  C211 3799   0.402   6.992  15.558
   30DOPE  H11R 3800   0.366   7.097  15.560
   30DOPE  H11S 3801   0.395   6.960  15.452
   30DOPE  C212 3802   0.551   6.991  15.599
   30DOPE  H12R 3803   0.576   6.892  15.644
   30DOPE  H12S 3804   0.565   7.067  15.679
   30DOPE  C213 3805   0.656   7.014  15.487
   30DOPE  H13R 3806   0.659   6.929  15.417
   30DOPE  H13S 3807   0.754   7.015  15.539
   30DOPE  C214 3808   0.649   7.145  15.407
   30DOPE  H14R 3809   0.751   7.165  15.366
   30DOPE  H14S 3810   0.624   7.228  15.476
   30DOPE  C215 3811   0.552   7.148  15.288
   30DOPE  H15R 3812   0.559   7.249  15.242
   30DOPE  H15S 3813   0.449   7.136  15.328
   30DOPE  C216 3814   0.569   7.045  15.175
   30DOPE  H16R 3815   0.502   7.073  15.091
   30DOPE  H16S 3816   0.533   6.947  15.212
   30DOPE  C217 3817   0.710   7.023  15.119
   30DOPE  H17R 3818   0.778   6.992  15.201
   30DOPE  H17S 3819   0.748   7.119  15.078
   30DOPE  C218 3820   0.711   6.915  15.011
   30DOPE  H18R 3821   0.684   6.816  15.052
   30DOPE  H18S 3822   0.811   6.907  14.963
   30DOPE  H18T 3823   0.636   6.939  14.932
   30DOPE   C33 3824   0.502   7.540  16.439
   30DOPE   H3X 3825   0.599   7.593  16.444
   30DOPE   H3Y 3826   0.432   7.605  16.384
   30DOPE   C34 3827   0.521   7.415  16.353
   30DOPE   H4X 3828   0.609   7.357  16.390
   30DOPE   H4Y 3829   0.432   7.349  16.360
   30DOPE   C35 3830   0.541   7.455  16.206
   30DOPE   H5X 3831   0.556   7.565  16.203
   30DOPE   H5Y 3832   0.447   7.434  16.150
   30DOPE   C36 3833   0.664   7.394  16.140
   30DOPE   H6X 3834   0.747   7.410  16.211
   30DOPE   H6Y 3835   0.690   7.451  16.048
   30DOPE   C37 3836   0.656   7.243  16.108
   30DOPE   H7X 3837   0.759   7.207  16.090
   30DOPE   H7Y 3838   0.617   7.190  16.197
   30DOPE   C38 3839   0.571   7.207  15.985
   30DOPE   H8X 3840   0.464   7.224  16.011
   30DOPE   H8Y 3841   0.580   7.098  15.966
   30DOPE   C39 3842   0.608   7.283  15.860
   30DOPE   H9X 3843   0.693   7.243  15.803
   30DOPE  C310 3844   0.547   7.395  15.816
   30DOPE  H10X 3845   0.582   7.443  15.724
   30DOPE  C311 3846   0.431   7.464  15.884
   30DOPE  H11X 3847   0.378   7.399  15.957
   30DOPE  H11Y 3848   0.468   7.551  15.942
   30DOPE  C312 3849   0.325   7.510  15.784
   30DOPE  H12X 3850   0.374   7.559  15.698
   30DOPE  H12Y 3851   0.257   7.584  15.832
   30DOPE  C313 3852   0.243   7.392  15.733
   30DOPE  H13X 3853   0.313   7.313  15.698
   30DOPE  H13Y 3854   0.184   7.352  15.817
   30DOPE  C314 3855   0.151   7.427  15.617
   30DOPE  H14X 3856   0.087   7.515  15.642
   30DOPE  H14Y 3857   0.084   7.339  15.601
   30DOPE  C315 3858   0.227   7.452  15.486
   30DOPE  H15X 3859   0.299   7.369  15.474
   30DOPE  H15Y 3860   0.284   7.547  15.490
   30DOPE  C316 3861   0.130   7.453  15.368
   30DOPE  H16X 3862   0.062   7.541  15.375
   30DOPE  H16Y 3863   0.069   7.361  15.377
   30DOPE  C317 3864   0.194   7.444  15.230
   30DOPE  H17X 3865   0.115   7.456  15.152
   30DOPE  H17Y 3866   0.267   7.528  15.217
   30DOPE  C318 3867   0.263   7.310  15.211
   30DOPE  H18X 3868   0.353   7.308  15.276
   30DOPE  H18Y 3869   0.197   7.225  15.239
   30DOPE  H18Z 3870   0.296   7.292  15.106
   31DOPE     N 3871   3.190   3.216  12.786
   31DOPE   HN1 3872   3.201   3.152  12.704
   31DOPE   HN2 3873   3.089   3.226  12.807
   31DOPE   HN3 3874   3.232   3.309  12.765
   31DOPE   C12 3875   3.249   3.156  12.909
   31DOPE  H12A 3876   3.331   3.222  12.945
   31DOPE  H12B 3877   3.291   3.056  12.883
   31DOPE   C11 3878   3.136   3.140  13.011
   31DOPE  H11A 3879   3.100   3.241  13.042
   31DOPE  H11B 3880   3.176   3.091  13.102
   31DOPE     P 3881   2.884   3.070  13.009
   31DOPE   O13 3882   2.797   2.980  12.931
   31DOPE   O14 3883   2.846   3.214  13.010
   31DOPE   O11 3884   2.902   3.018  13.156
   31DOPE   O12 3885   3.031   3.063  12.951
   31DOPE    C1 3886   2.982   2.903  13.183
   31DOPE    HA 3887   3.083   2.910  13.138
   31DOPE    HB 3888   2.935   2.812  13.142
   31DOPE    C2 3889   3.005   2.889  13.336
   31DOPE    HS 3890   3.072   2.802  13.352
   31DOPE   O21 3891   2.882   2.868  13.405
   31DOPE   C21 3892   2.823   2.755  13.379
   31DOPE   O22 3893   2.870   2.660  13.318
   31DOPE   C22 3894   2.693   2.754  13.456
   31DOPE   H2R 3895   2.645   2.658  13.430
   31DOPE   H2S 3896   2.628   2.838  13.424
   31DOPE    C3 3897   3.073   3.013  13.400
   31DOPE    HX 3898   3.164   3.042  13.343
   31DOPE    HY 3899   3.103   2.978  13.501
   31DOPE   O31 3900   2.982   3.125  13.413
   31DOPE   C31 3901   3.016   3.205  13.512
   31DOPE   O32 3902   3.125   3.207  13.568
   31DOPE   C32 3903   2.895   3.288  13.554
   31DOPE   H2X 3904   2.842   3.324  13.464
   31DOPE   H2Y 3905   2.827   3.221  13.611
   31DOPE   C23 3906   2.724   2.760  13.606
   31DOPE   H3R 3907   2.818   2.704  13.629
   31DOPE   H3S 3908   2.642   2.706  13.659
   31DOPE   C24 3909   2.731   2.899  13.671
   31DOPE   H4R 3910   2.680   2.975  13.608
   31DOPE   H4S 3911   2.838   2.929  13.681
   31DOPE   C25 3912   2.662   2.893  13.808
   31DOPE   H5R 3913   2.674   2.791  13.850
   31DOPE   H5S 3914   2.553   2.907  13.793
   31DOPE   C26 3915   2.718   2.988  13.914
   31DOPE   H6R 3916   2.692   3.093  13.889
   31DOPE   H6S 3917   2.829   2.980  13.915
   31DOPE   C27 3918   2.666   2.950  14.054
   31DOPE   H7R 3919   2.702   3.025  14.127
   31DOPE   H7S 3920   2.709   2.851  14.081
   31DOPE   C28 3921   2.513   2.935  14.065
   31DOPE   H8R 3922   2.484   2.919  14.171
   31DOPE   H8S 3923   2.478   2.846  14.008
   31DOPE   C29 3924   2.453   3.060  14.009
   31DOPE   H9R 3925   2.434   3.058  13.901
   31DOPE  C210 3926   2.427   3.172  14.077
   31DOPE  H10R 3927   2.393   3.258  14.018
   31DOPE  C211 3928   2.447   3.200  14.224
   31DOPE  H11R 3929   2.495   3.116  14.278
   31DOPE  H11S 3930   2.348   3.216  14.271
   31DOPE  C212 3931   2.532   3.327  14.245
   31DOPE  H12R 3932   2.533   3.391  14.153
   31DOPE  H12S 3933   2.636   3.295  14.265
   31DOPE  C213 3934   2.487   3.419  14.359
   31DOPE  H13R 3935   2.387   3.461  14.335
   31DOPE  H13S 3936   2.558   3.503  14.368
   31DOPE  C214 3937   2.477   3.347  14.493
   31DOPE  H14R 3938   2.397   3.271  14.486
   31DOPE  H14S 3939   2.447   3.420  14.571
   31DOPE  C215 3940   2.607   3.277  14.537
   31DOPE  H15R 3941   2.694   3.345  14.531
   31DOPE  H15S 3942   2.625   3.190  14.471
   31DOPE  C216 3943   2.587   3.229  14.681
   31DOPE  H16R 3944   2.486   3.184  14.680
   31DOPE  H16S 3945   2.588   3.316  14.750
   31DOPE  C217 3946   2.680   3.119  14.729
   31DOPE  H17R 3947   2.786   3.138  14.701
   31DOPE  H17S 3948   2.643   3.027  14.679
   31DOPE  C218 3949   2.668   3.088  14.877
   31DOPE  H18R 3950   2.564   3.056  14.898
   31DOPE  H18S 3951   2.691   3.177  14.940
   31DOPE  H18T 3952   2.735   3.004  14.905
   31DOPE   C33 3953   2.942   3.405  13.643
   31DOPE   H3X 3954   3.000   3.475  13.578
   31DOPE   H3Y 3955   3.011   3.368  13.722
   31DOPE   C34 3956   2.828   3.482  13.708
   31DOPE   H4X 3957   2.862   3.584  13.734
   31DOPE   H4Y 3958   2.747   3.491  13.632
   31DOPE   C35 3959   2.773   3.416  13.836
   31DOPE   H5X 3960   2.738   3.313  13.813
   31DOPE   H5Y 3961   2.684   3.473  13.871
   31DOPE   C36 3962   2.872   3.411  13.953
   31DOPE   H6X 3963   2.912   3.512  13.976
   31DOPE   H6Y 3964   2.959   3.348  13.923
   31DOPE   C37 3965   2.805   3.353  14.078
   31DOPE   H7X 3966   2.745   3.435  14.124
   31DOPE   H7Y 3967   2.735   3.273  14.046
   31DOPE   C38 3968   2.898   3.294  14.186
   31DOPE   H8X 3969   2.836   3.247  14.265
   31DOPE   H8Y 3970   2.954   3.376  14.235
   31DOPE   C39 3971   2.990   3.189  14.128
   31DOPE   H9X 3972   2.951   3.138  14.039
   31DOPE  C310 3973   3.112   3.159  14.174
   31DOPE  H10X 3974   3.171   3.082  14.122
   31DOPE  C311 3975   3.180   3.222  14.292
   31DOPE  H11X 3976   3.258   3.291  14.254
   31DOPE  H11Y 3977   3.111   3.283  14.355
   31DOPE  C312 3978   3.249   3.119  14.382
   31DOPE  H12X 3979   3.331   3.176  14.434
   31DOPE  H12Y 3980   3.298   3.039  14.324
   31DOPE  C313 3981   3.160   3.060  14.492
   31DOPE  H13X 3982   3.106   3.143  14.542
   31DOPE  H13Y 3983   3.084   2.992  14.448
   31DOPE  C314 3984   3.244   2.986  14.597
   31DOPE  H14X 3985   3.334   3.047  14.620
   31DOPE  H14Y 3986   3.279   2.890  14.553
   31DOPE  C315 3987   3.169   2.959  14.728
   31DOPE  H15X 3988   3.092   2.882  14.709
   31DOPE  H15Y 3989   3.116   3.051  14.760
   31DOPE  C316 3990   3.264   2.915  14.841
   31DOPE  H16X 3991   3.271   2.997  14.916
   31DOPE  H16Y 3992   3.366   2.902  14.799
   31DOPE  C317 3993   3.224   2.784  14.910
   31DOPE  H17X 3994   3.229   2.703  14.834
   31DOPE  H17Y 3995   3.301   2.762  14.987
   31DOPE  C318 3996   3.086   2.782  14.976
   31DOPE  H18X 3997   3.009   2.827  14.910
   31DOPE  H18Y 3998   3.055   2.677  14.998
   31DOPE  H18Z 3999   3.087   2.838  15.072
   32DOPE     N 4000   4.653   2.893  13.287
   32DOPE   HN1 4001   4.666   2.896  13.390
   32DOPE   HN2 4002   4.674   2.799  13.248
   32DOPE   HN3 4003   4.719   2.959  13.240
   32DOPE   C12 4004   4.520   2.944  13.239
   32DOPE  H12A 4005   4.496   3.037  13.296
   32DOPE  H12B 4006   4.441   2.869  13.259
   32DOPE   C11 4007   4.533   2.979  13.090
   32DOPE  H11A 4008   4.453   3.050  13.062
   32DOPE  H11B 4009   4.521   2.888  13.028
   32DOPE     P 4010   4.696   3.115  12.936
   32DOPE   O13 4011   4.615   3.058  12.826
   32DOPE   O14 4012   4.843   3.115  12.924
   32DOPE   O11 4013   4.641   3.258  12.975
   32DOPE   O12 4014   4.663   3.034  13.069
   32DOPE    C1 4015   4.703   3.377  12.926
   32DOPE    HA 4016   4.629   3.438  12.871
   32DOPE    HB 4017   4.785   3.357  12.854
   32DOPE    C2 4018   4.763   3.467  13.039
   32DOPE    HS 4019   4.815   3.552  12.990
   32DOPE   O21 4020   4.853   3.391  13.121
   32DOPE   C21 4021   4.971   3.366  13.068
   32DOPE   O22 4022   5.013   3.405  12.960
   32DOPE   C22 4023   5.052   3.286  13.170
   32DOPE   H2R 4024   5.157   3.279  13.132
   32DOPE   H2S 4025   5.008   3.184  13.172
   32DOPE    C3 4026   4.656   3.532  13.132
   32DOPE    HX 4027   4.583   3.585  13.068
   32DOPE    HY 4028   4.706   3.610  13.193
   32DOPE   O31 4029   4.585   3.434  13.213
   32DOPE   C31 4030   4.635   3.413  13.334
   32DOPE   O32 4031   4.718   3.481  13.392
   32DOPE   C32 4032   4.571   3.284  13.390
   32DOPE   H2X 4033   4.463   3.288  13.365
   32DOPE   H2Y 4034   4.619   3.202  13.333
   32DOPE   C23 4035   5.049   3.351  13.310
   32DOPE   H3R 4036   4.945   3.372  13.342
   32DOPE   H3S 4037   5.102   3.449  13.304
   32DOPE   C24 4038   5.117   3.267  13.418
   32DOPE   H4R 4039   5.132   3.332  13.507
   32DOPE   H4S 4040   5.217   3.235  13.379
   32DOPE   C25 4041   5.041   3.143  13.467
   32DOPE   H5R 4042   5.110   3.083  13.530
   32DOPE   H5S 4043   5.013   3.081  13.380
   32DOPE   C26 4044   4.917   3.179  13.550
   32DOPE   H6R 4045   4.830   3.144  13.490
   32DOPE   H6S 4046   4.907   3.289  13.559
   32DOPE   C27 4047   4.911   3.117  13.691
   32DOPE   H7R 4048   4.982   3.032  13.698
   32DOPE   H7S 4049   4.809   3.075  13.706
   32DOPE   C28 4050   4.938   3.219  13.803
   32DOPE   H8R 4051   4.867   3.304  13.792
   32DOPE   H8S 4052   5.040   3.261  13.789
   32DOPE   C29 4053   4.924   3.160  13.942
   32DOPE   H9R 4054   4.881   3.059  13.947
   32DOPE  C210 4055   4.959   3.222  14.056
   32DOPE  H10R 4056   4.943   3.170  14.152
   32DOPE  C211 4057   5.019   3.360  14.068
   32DOPE  H11R 4058   5.064   3.393  13.972
   32DOPE  H11S 4059   5.102   3.359  14.142
   32DOPE  C212 4060   4.916   3.466  14.110
   32DOPE  H12R 4061   4.837   3.474  14.032
   32DOPE  H12S 4062   4.967   3.565  14.114
   32DOPE  C213 4063   4.849   3.442  14.246
   32DOPE  H13R 4064   4.787   3.350  14.241
   32DOPE  H13S 4065   4.780   3.527  14.267
   32DOPE  C214 4066   4.948   3.429  14.362
   32DOPE  H14R 4067   5.015   3.518  14.364
   32DOPE  H14S 4068   5.011   3.339  14.348
   32DOPE  C215 4069   4.874   3.418  14.495
   32DOPE  H15R 4070   4.796   3.340  14.487
   32DOPE  H15S 4071   4.823   3.514  14.514
   32DOPE  C216 4072   4.965   3.383  14.614
   32DOPE  H16R 4073   5.022   3.290  14.592
   32DOPE  H16S 4074   4.901   3.363  14.702
   32DOPE  C217 4075   5.062   3.496  14.650
   32DOPE  H17R 4076   5.006   3.592  14.655
   32DOPE  H17S 4077   5.140   3.506  14.571
   32DOPE  C218 4078   5.127   3.469  14.785
   32DOPE  H18R 4079   5.048   3.460  14.863
   32DOPE  H18S 4080   5.194   3.553  14.814
   32DOPE  H18T 4081   5.187   3.376  14.783
   32DOPE   C33 4082   4.589   3.261  13.542
   32DOPE   H3X 4083   4.652   3.342  13.586
   32DOPE   H3Y 4084   4.642   3.165  13.562
   32DOPE   C34 4085   4.457   3.253  13.620
   32DOPE   H4X 4086   4.383   3.316  13.567
   32DOPE   H4Y 4087   4.417   3.150  13.623
   32DOPE   C35 4088   4.471   3.311  13.761
   32DOPE   H5X 4089   4.372   3.328  13.807
   32DOPE   H5Y 4090   4.519   3.410  13.743
   32DOPE   C36 4091   4.559   3.230  13.857
   32DOPE   H6X 4092   4.602   3.297  13.935
   32DOPE   H6Y 4093   4.645   3.187  13.801
   32DOPE   C37 4094   4.479   3.120  13.926
   32DOPE   H7X 4095   4.409   3.167  13.999
   32DOPE   H7Y 4096   4.418   3.068  13.849
   32DOPE   C38 4097   4.570   3.020  13.998
   32DOPE   H8X 4098   4.622   3.072  14.082
   32DOPE   H8Y 4099   4.648   2.987  13.927
   32DOPE   C39 4100   4.490   2.904  14.049
   32DOPE   H9X 4101   4.380   2.914  14.043
   32DOPE  C310 4102   4.544   2.792  14.099
   32DOPE  H10X 4103   4.478   2.711  14.135
   32DOPE  C311 4104   4.691   2.766  14.112
   32DOPE  H11X 4105   4.714   2.664  14.076
   32DOPE  H11Y 4106   4.753   2.836  14.052
   32DOPE  C312 4107   4.737   2.777  14.258
   32DOPE  H12X 4108   4.843   2.744  14.265
   32DOPE  H12Y 4109   4.677   2.709  14.323
   32DOPE  C313 4110   4.737   2.919  14.317
   32DOPE  H13X 4111   4.788   2.990  14.248
   32DOPE  H13Y 4112   4.632   2.953  14.331
   32DOPE  C314 4113   4.811   2.915  14.451
   32DOPE  H14X 4114   4.919   2.897  14.434
   32DOPE  H14Y 4115   4.771   2.827  14.505
   32DOPE  C315 4116   4.793   3.041  14.536
   32DOPE  H15X 4117   4.685   3.066  14.541
   32DOPE  H15Y 4118   4.845   3.126  14.486
   32DOPE  C316 4119   4.847   3.024  14.679
   32DOPE  H16X 4120   4.820   3.115  14.738
   32DOPE  H16Y 4121   4.958   3.019  14.675
   32DOPE  C317 4122   4.794   2.900  14.753
   32DOPE  H17X 4123   4.839   2.809  14.708
   32DOPE  H17Y 4124   4.831   2.903  14.857
   32DOPE  C318 4125   4.641   2.885  14.752
   32DOPE  H18X 4126   4.603   2.867  14.649
   32DOPE  H18Y 4127   4.609   2.800  14.816
   32DOPE  H18Z 4128   4.593   2.978  14.789
   33DOPE     N 4129   3.561   2.177  12.894
   33DOPE   HN1 4130   3.638   2.173  12.824
   33DOPE   HN2 4131   3.537   2.082  12.930
   33DOPE   HN3 4132   3.475   2.218  12.852
   33DOPE   C12 4133   3.596   2.269  13.007
   33DOPE  H12A 4134   3.625   2.366  12.961
   33DOPE  H12B 4135   3.682   2.227  13.063
   33DOPE   C11 4136   3.476   2.292  13.100
   33DOPE  H11A 4137   3.497   2.388  13.152
   33DOPE  H11B 4138   3.472   2.212  13.177
   33DOPE     P 4139   3.228   2.370  13.089
   33DOPE   O13 4140   3.113   2.276  13.091
   33DOPE   O14 4141   3.214   2.496  13.013
   33DOPE   O11 4142   3.282   2.398  13.235
   33DOPE   O12 4143   3.353   2.294  13.026
   33DOPE    C1 4144   3.214   2.368  13.356
   33DOPE    HA 4145   3.288   2.334  13.433
   33DOPE    HB 4146   3.141   2.286  13.343
   33DOPE    C2 4147   3.141   2.492  13.413
   33DOPE    HS 4148   3.087   2.541  13.329
   33DOPE   O21 4149   3.233   2.582  13.478
   33DOPE   C21 4150   3.290   2.673  13.402
   33DOPE   O22 4151   3.281   2.684  13.281
   33DOPE   C22 4152   3.360   2.778  13.489
   33DOPE   H2R 4153   3.374   2.866  13.424
   33DOPE   H2S 4154   3.460   2.740  13.518
   33DOPE    C3 4155   3.032   2.451  13.517
   33DOPE    HX 4156   2.965   2.378  13.466
   33DOPE    HY 4157   2.972   2.541  13.539
   33DOPE   O31 4158   3.089   2.401  13.641
   33DOPE   C31 4159   3.024   2.302  13.700
   33DOPE   O32 4160   2.940   2.231  13.647
   33DOPE   C32 4161   3.068   2.292  13.847
   33DOPE   H2X 4162   3.160   2.229  13.852
   33DOPE   H2Y 4163   3.098   2.395  13.877
   33DOPE   C23 4164   3.276   2.822  13.612
   33DOPE   H3R 4165   3.168   2.814  13.590
   33DOPE   H3S 4166   3.298   2.929  13.633
   33DOPE   C24 4167   3.299   2.743  13.741
   33DOPE   H4R 4168   3.257   2.641  13.730
   33DOPE   H4S 4169   3.241   2.796  13.820
   33DOPE   C25 4170   3.443   2.735  13.790
   33DOPE   H5R 4171   3.483   2.837  13.807
   33DOPE   H5S 4172   3.506   2.683  13.715
   33DOPE   C26 4173   3.446   2.654  13.920
   33DOPE   H6R 4174   3.401   2.555  13.899
   33DOPE   H6S 4175   3.383   2.704  13.997
   33DOPE   C27 4176   3.587   2.633  13.975
   33DOPE   H7R 4177   3.619   2.725  14.029
   33DOPE   H7S 4178   3.656   2.618  13.889
   33DOPE   C28 4179   3.600   2.510  14.067
   33DOPE   H8R 4180   3.700   2.512  14.114
   33DOPE   H8S 4181   3.596   2.419  14.004
   33DOPE   C29 4182   3.488   2.506  14.168
   33DOPE   H9R 4183   3.390   2.475  14.127
   33DOPE  C210 4184   3.495   2.537  14.298
   33DOPE  H10R 4185   3.404   2.529  14.358
   33DOPE  C211 4186   3.618   2.583  14.372
   33DOPE  H11R 4187   3.701   2.609  14.304
   33DOPE  H11S 4188   3.654   2.499  14.435
   33DOPE  C212 4189   3.593   2.706  14.462
   33DOPE  H12R 4190   3.577   2.795  14.397
   33DOPE  H12S 4191   3.685   2.727  14.521
   33DOPE  C213 4192   3.473   2.697  14.559
   33DOPE  H13R 4193   3.381   2.710  14.498
   33DOPE  H13S 4194   3.478   2.783  14.629
   33DOPE  C214 4195   3.456   2.567  14.640
   33DOPE  H14R 4196   3.448   2.479  14.573
   33DOPE  H14S 4197   3.358   2.576  14.693
   33DOPE  C215 4198   3.561   2.539  14.748
   33DOPE  H15R 4199   3.517   2.465  14.818
   33DOPE  H15S 4200   3.581   2.632  14.806
   33DOPE  C216 4201   3.692   2.480  14.694
   33DOPE  H16R 4202   3.742   2.557  14.631
   33DOPE  H16S 4203   3.670   2.392  14.630
   33DOPE  C217 4204   3.791   2.440  14.804
   33DOPE  H17R 4205   3.798   2.527  14.873
   33DOPE  H17S 4206   3.891   2.424  14.759
   33DOPE  C218 4207   3.751   2.313  14.880
   33DOPE  H18R 4208   3.754   2.226  14.811
   33DOPE  H18S 4209   3.649   2.322  14.922
   33DOPE  H18T 4210   3.822   2.294  14.964
   33DOPE   C33 4211   2.958   2.233  13.940
   33DOPE   H3X 4212   2.967   2.122  13.941
   33DOPE   H3Y 4213   2.857   2.255  13.900
   33DOPE   C34 4214   2.960   2.279  14.087
   33DOPE   H4X 4215   2.901   2.373  14.100
   33DOPE   H4Y 4216   2.901   2.207  14.148
   33DOPE   C35 4217   3.101   2.299  14.146
   33DOPE   H5X 4218   3.094   2.356  14.241
   33DOPE   H5Y 4219   3.165   2.361  14.079
   33DOPE   C36 4220   3.170   2.165  14.171
   33DOPE   H6X 4221   3.273   2.183  14.210
   33DOPE   H6Y 4222   3.181   2.113  14.074
   33DOPE   C37 4223   3.090   2.077  14.269
   33DOPE   H7X 4224   2.993   2.046  14.223
   33DOPE   H7Y 4225   3.146   1.983  14.286
   33DOPE   C38 4226   3.057   2.145  14.402
   33DOPE   H8X 4227   2.994   2.079  14.465
   33DOPE   H8Y 4228   3.001   2.240  14.389
   33DOPE   C39 4229   3.193   2.169  14.459
   33DOPE   H9X 4230   3.247   2.258  14.424
   33DOPE  C310 4231   3.252   2.087  14.545
   33DOPE  H10X 4232   3.350   2.115  14.585
   33DOPE  C311 4233   3.196   1.962  14.606
   33DOPE  H11X 4234   3.119   1.916  14.540
   33DOPE  H11Y 4235   3.275   1.887  14.625
   33DOPE  C312 4236   3.131   2.009  14.737
   33DOPE  H12X 4237   3.103   1.921  14.799
   33DOPE  H12Y 4238   3.037   2.060  14.710
   33DOPE  C313 4239   3.220   2.105  14.819
   33DOPE  H13X 4240   3.306   2.050  14.861
   33DOPE  H13Y 4241   3.264   2.188  14.760
   33DOPE  C314 4242   3.146   2.180  14.929
   33DOPE  H14X 4243   3.225   2.238  14.980
   33DOPE  H14Y 4244   3.103   2.104  14.998
   33DOPE  C315 4245   3.042   2.281  14.880
   33DOPE  H15X 4246   2.977   2.315  14.963
   33DOPE  H15Y 4247   2.975   2.233  14.805
   33DOPE  C316 4248   3.102   2.405  14.815
   33DOPE  H16X 4249   3.193   2.380  14.758
   33DOPE  H16Y 4250   3.129   2.480  14.892
   33DOPE  C317 4251   3.001   2.465  14.718
   33DOPE  H17X 4252   2.968   2.386  14.647
   33DOPE  H17Y 4253   2.912   2.498  14.776
   33DOPE  C318 4254   3.058   2.581  14.639
   33DOPE  H18X 4255   3.052   2.675  14.698
   33DOPE  H18Y 4256   3.164   2.563  14.612
   33DOPE  H18Z 4257   3.000   2.593  14.545
   34DOPE     N 4258   2.415   4.360  12.936
   34DOPE   HN1 4259   2.514   4.350  12.905
   34DOPE   HN2 4260   2.355   4.288  12.892
   34DOPE   HN3 4261   2.380   4.454  12.909
   34DOPE   C12 4262   2.402   4.360  13.086
   34DOPE  H12A 4263   2.477   4.431  13.126
   34DOPE  H12B 4264   2.423   4.258  13.124
   34DOPE   C11 4265   2.261   4.407  13.125
   34DOPE  H11A 4266   2.258   4.427  13.234
   34DOPE  H11B 4267   2.188   4.326  13.103
   34DOPE     P 4268   2.082   4.589  13.060
   34DOPE   O13 4269   2.012   4.566  12.932
   34DOPE   O14 4270   2.094   4.728  13.109
   34DOPE   O11 4271   2.011   4.499  13.170
   34DOPE   O12 4272   2.227   4.525  13.051
   34DOPE    C1 4273   1.930   4.559  13.272
   34DOPE    HA 4274   1.841   4.495  13.290
   34DOPE    HB 4275   1.890   4.658  13.242
   34DOPE    C2 4276   2.004   4.579  13.408
   34DOPE    HS 4277   1.958   4.666  13.459
   34DOPE   O21 4278   2.146   4.590  13.391
   34DOPE   C21 4279   2.195   4.709  13.414
   34DOPE   O22 4280   2.133   4.814  13.414
   34DOPE   C22 4281   2.340   4.691  13.458
   34DOPE   H2R 4282   2.391   4.790  13.452
   34DOPE   H2S 4283   2.391   4.621  13.388
   34DOPE    C3 4284   1.985   4.460  13.505
   34DOPE    HX 4285   2.040   4.374  13.461
   34DOPE    HY 4286   1.878   4.434  13.512
   34DOPE   O31 4287   2.040   4.495  13.634
   34DOPE   C31 4288   2.039   4.392  13.718
   34DOPE   O32 4289   1.993   4.282  13.694
   34DOPE   C32 4290   2.104   4.437  13.847
   34DOPE   H2X 4291   2.214   4.443  13.831
   34DOPE   H2Y 4292   2.067   4.539  13.872
   34DOPE   C23 4293   2.345   4.636  13.603
   34DOPE   H3R 4294   2.303   4.533  13.606
   34DOPE   H3S 4295   2.282   4.700  13.668
   34DOPE   C24 4296   2.486   4.634  13.665
   34DOPE   H4R 4297   2.528   4.737  13.657
   34DOPE   H4S 4298   2.554   4.567  13.608
   34DOPE   C25 4299   2.482   4.595  13.814
   34DOPE   H5R 4300   2.383   4.623  13.856
   34DOPE   H5S 4301   2.558   4.654  13.870
   34DOPE   C26 4302   2.515   4.448  13.845
   34DOPE   H6R 4303   2.609   4.421  13.793
   34DOPE   H6S 4304   2.434   4.383  13.807
   34DOPE   C27 4305   2.535   4.425  13.997
   34DOPE   H7R 4306   2.622   4.484  14.031
   34DOPE   H7S 4307   2.558   4.318  14.013
   34DOPE   C28 4308   2.411   4.466  14.080
   34DOPE   H8R 4309   2.325   4.411  14.036
   34DOPE   H8S 4310   2.391   4.574  14.063
   34DOPE   C29 4311   2.417   4.435  14.227
   34DOPE   H9R 4312   2.466   4.340  14.254
   34DOPE  C210 4313   2.364   4.511  14.325
   34DOPE  H10R 4314   2.371   4.476  14.429
   34DOPE  C211 4315   2.290   4.641  14.307
   34DOPE  H11R 4316   2.338   4.700  14.226
   34DOPE  H11S 4317   2.299   4.704  14.398
   34DOPE  C212 4318   2.140   4.629  14.269
   34DOPE  H12R 4319   2.132   4.566  14.178
   34DOPE  H12S 4320   2.101   4.729  14.242
   34DOPE  C213 4321   2.048   4.570  14.378
   34DOPE  H13R 4322   2.086   4.468  14.400
   34DOPE  H13S 4323   1.945   4.560  14.338
   34DOPE  C214 4324   2.045   4.649  14.509
   34DOPE  H14R 4325   2.008   4.751  14.487
   34DOPE  H14S 4326   2.149   4.656  14.547
   34DOPE  C215 4327   1.959   4.586  14.621
   34DOPE  H15R 4328   2.001   4.487  14.648
   34DOPE  H15S 4329   1.856   4.570  14.583
   34DOPE  C216 4330   1.953   4.675  14.746
   34DOPE  H16R 4331   1.916   4.775  14.713
   34DOPE  H16S 4332   2.055   4.689  14.788
   34DOPE  C217 4333   1.858   4.630  14.857
   34DOPE  H17R 4334   1.766   4.588  14.810
   34DOPE  H17S 4335   1.827   4.720  14.914
   34DOPE  C218 4336   1.920   4.531  14.954
   34DOPE  H18R 4337   1.911   4.569  15.058
   34DOPE  H18S 4338   2.028   4.518  14.933
   34DOPE  H18T 4339   1.869   4.432  14.948
   34DOPE   C33 4340   2.073   4.341  13.964
   34DOPE   H3X 4341   1.964   4.321  13.970
   34DOPE   H3Y 4342   2.102   4.391  14.059
   34DOPE   C34 4343   2.149   4.209  13.953
   34DOPE   H4X 4344   2.122   4.158  13.858
   34DOPE   H4Y 4345   2.258   4.228  13.949
   34DOPE   C35 4346   2.118   4.115  14.069
   34DOPE   H5X 4347   2.183   4.025  14.055
   34DOPE   H5Y 4348   2.013   4.081  14.065
   34DOPE   C36 4349   2.151   4.172  14.207
   34DOPE   H6X 4350   2.219   4.259  14.199
   34DOPE   H6Y 4351   2.209   4.093  14.259
   34DOPE   C37 4352   2.027   4.210  14.288
   34DOPE   H7X 4353   1.987   4.307  14.251
   34DOPE   H7Y 4354   1.948   4.134  14.269
   34DOPE   C38 4355   2.055   4.218  14.439
   34DOPE   H8X 4356   1.965   4.255  14.493
   34DOPE   H8Y 4357   2.135   4.292  14.457
   34DOPE   C39 4358   2.097   4.083  14.488
   34DOPE   H9X 4359   2.019   4.006  14.477
   34DOPE  C310 4360   2.219   4.048  14.532
   34DOPE  H10X 4361   2.237   3.944  14.560
   34DOPE  C311 4362   2.339   4.138  14.544
   34DOPE  H11X 4363   2.415   4.112  14.467
   34DOPE  H11Y 4364   2.314   4.245  14.529
   34DOPE  C312 4365   2.398   4.121  14.685
   34DOPE  H12X 4366   2.430   4.015  14.698
   34DOPE  H12Y 4367   2.318   4.138  14.760
   34DOPE  C313 4368   2.515   4.215  14.717
   34DOPE  H13X 4369   2.547   4.195  14.822
   34DOPE  H13Y 4370   2.600   4.192  14.650
   34DOPE  C314 4371   2.481   4.364  14.704
   34DOPE  H14X 4372   2.372   4.377  14.689
   34DOPE  H14Y 4373   2.532   4.405  14.614
   34DOPE  C315 4374   2.521   4.447  14.827
   34DOPE  H15X 4375   2.629   4.433  14.849
   34DOPE  H15Y 4376   2.464   4.411  14.916
   34DOPE  C316 4377   2.492   4.596  14.805
   34DOPE  H16X 4378   2.386   4.611  14.775
   34DOPE  H16Y 4379   2.555   4.631  14.721
   34DOPE  C317 4380   2.520   4.681  14.929
   34DOPE  H17X 4381   2.608   4.638  14.983
   34DOPE  H17Y 4382   2.546   4.785  14.900
   34DOPE  C318 4383   2.402   4.690  15.024
   34DOPE  H18X 4384   2.360   4.588  15.038
   34DOPE  H18Y 4385   2.433   4.730  15.122
   34DOPE  H18Z 4386   2.322   4.754  14.982
   35DOPE     N 4387   5.785   2.847  13.127
   35DOPE   HN1 4388   5.800   2.906  13.212
   35DOPE   HN2 4389   5.788   2.747  13.153
   35DOPE   HN3 4390   5.859   2.869  13.058
   35DOPE   C12 4391   5.651   2.882  13.069
   35DOPE  H12A 4392   5.588   2.790  13.062
   35DOPE  H12B 4393   5.669   2.919  12.965
   35DOPE   C11 4394   5.580   2.989  13.153
   35DOPE  H11A 4395   5.652   3.064  13.192
   35DOPE  H11B 4396   5.533   2.942  13.243
   35DOPE     P 4397   5.512   3.180  12.994
   35DOPE   O13 4398   5.394   3.229  12.920
   35DOPE   O14 4399   5.637   3.155  12.919
   35DOPE   O11 4400   5.545   3.276  13.115
   35DOPE   O12 4401   5.477   3.048  13.074
   35DOPE    C1 4402   5.647   3.374  13.101
   35DOPE    HA 4403   5.613   3.453  13.031
   35DOPE    HB 4404   5.741   3.332  13.058
   35DOPE    C2 4405   5.679   3.442  13.237
   35DOPE    HS 4406   5.760   3.516  13.220
   35DOPE   O21 4407   5.720   3.348  13.339
   35DOPE   C21 4408   5.826   3.270  13.322
   35DOPE   O22 4409   5.900   3.267  13.226
   35DOPE   C22 4410   5.833   3.177  13.447
   35DOPE   H2R 4411   5.736   3.122  13.446
   35DOPE   H2S 4412   5.828   3.245  13.534
   35DOPE    C3 4413   5.552   3.521  13.285
   35DOPE    HX 4414   5.488   3.538  13.196
   35DOPE    HY 4415   5.582   3.621  13.321
   35DOPE   O31 4416   5.473   3.452  13.382
   35DOPE   C31 4417   5.494   3.481  13.509
   35DOPE   O32 4418   5.575   3.561  13.553
   35DOPE   C32 4419   5.388   3.407  13.589
   35DOPE   H2X 4420   5.317   3.480  13.632
   35DOPE   H2Y 4421   5.334   3.344  13.515
   35DOPE   C23 4422   5.947   3.069  13.462
   35DOPE   H3R 4423   5.989   3.056  13.360
   35DOPE   H3S 4424   5.902   2.973  13.493
   35DOPE   C24 4425   6.070   3.094  13.558
   35DOPE   H4R 4426   6.088   3.203  13.548
   35DOPE   H4S 4427   6.160   3.059  13.503
   35DOPE   C25 4428   6.082   3.025  13.702
   35DOPE   H5R 4429   6.138   2.934  13.673
   35DOPE   H5S 4430   5.984   2.979  13.728
   35DOPE   C26 4431   6.165   3.069  13.835
   35DOPE   H6R 4432   6.269   3.095  13.808
   35DOPE   H6S 4433   6.176   2.974  13.893
   35DOPE   C27 4434   6.141   3.179  13.948
   35DOPE   H7R 4435   6.094   3.274  13.914
   35DOPE   H7S 4436   6.243   3.211  13.980
   35DOPE   C28 4437   6.072   3.139  14.080
   35DOPE   H8R 4438   6.144   3.109  14.159
   35DOPE   H8S 4439   6.026   3.043  14.048
   35DOPE   C29 4440   5.959   3.226  14.131
   35DOPE   H9R 4441   5.941   3.311  14.064
   35DOPE  C210 4442   5.865   3.209  14.227
   35DOPE  H10R 4443   5.795   3.292  14.241
   35DOPE  C211 4444   5.834   3.098  14.324
   35DOPE  H11R 4445   5.736   3.055  14.292
   35DOPE  H11S 4446   5.814   3.144  14.423
   35DOPE  C212 4447   5.928   2.977  14.342
   35DOPE  H12R 4448   5.993   2.966  14.253
   35DOPE  H12S 4449   5.866   2.886  14.348
   35DOPE  C213 4450   6.018   2.982  14.466
   35DOPE  H13R 4451   6.083   3.071  14.461
   35DOPE  H13S 4452   6.086   2.894  14.465
   35DOPE  C214 4453   5.937   2.979  14.597
   35DOPE  H14R 4454   5.888   2.880  14.607
   35DOPE  H14S 4455   5.856   3.055  14.595
   35DOPE  C215 4456   6.022   3.008  14.721
   35DOPE  H15R 4457   6.082   3.100  14.705
   35DOPE  H15S 4458   6.092   2.924  14.736
   35DOPE  C216 4459   5.932   3.027  14.844
   35DOPE  H16R 4460   5.844   2.961  14.836
   35DOPE  H16S 4461   5.894   3.131  14.844
   35DOPE  C217 4462   6.005   2.999  14.975
   35DOPE  H17R 4463   6.113   2.986  14.955
   35DOPE  H17S 4464   5.968   2.903  15.016
   35DOPE  C218 4465   5.988   3.111  15.078
   35DOPE  H18R 4466   5.880   3.132  15.095
   35DOPE  H18S 4467   6.035   3.204  15.040
   35DOPE  H18T 4468   6.035   3.084  15.174
   35DOPE   C33 4469   5.440   3.309  13.696
   35DOPE   H3X 4470   5.457   3.364  13.790
   35DOPE   H3Y 4471   5.536   3.263  13.664
   35DOPE   C34 4472   5.335   3.198  13.711
   35DOPE   H4X 4473   5.237   3.247  13.729
   35DOPE   H4Y 4474   5.327   3.142  13.616
   35DOPE   C35 4475   5.359   3.098  13.825
   35DOPE   H5X 4476   5.445   3.033  13.799
   35DOPE   H5Y 4477   5.269   3.033  13.832
   35DOPE   C36 4478   5.383   3.165  13.961
   35DOPE   H6X 4479   5.301   3.236  13.984
   35DOPE   H6Y 4480   5.478   3.224  13.955
   35DOPE   C37 4481   5.398   3.062  14.073
   35DOPE   H7X 4482   5.460   2.978  14.034
   35DOPE   H7Y 4483   5.452   3.107  14.158
   35DOPE   C38 4484   5.261   3.010  14.123
   35DOPE   H8X 4485   5.192   3.001  14.037
   35DOPE   H8Y 4486   5.218   3.088  14.189
   35DOPE   C39 4487   5.275   2.876  14.191
   35DOPE   H9X 4488   5.284   2.790  14.122
   35DOPE  C310 4489   5.280   2.854  14.323
   35DOPE  H10X 4490   5.293   2.751  14.359
   35DOPE  C311 4491   5.273   2.959  14.431
   35DOPE  H11X 4492   5.206   3.043  14.402
   35DOPE  H11Y 4493   5.230   2.915  14.524
   35DOPE  C312 4494   5.412   3.017  14.464
   35DOPE  H12X 4495   5.455   3.066  14.374
   35DOPE  H12Y 4496   5.481   2.935  14.493
   35DOPE  C313 4497   5.407   3.120  14.577
   35DOPE  H13X 4498   5.345   3.206  14.544
   35DOPE  H13Y 4499   5.358   3.075  14.666
   35DOPE  C314 4500   5.546   3.171  14.616
   35DOPE  H14X 4501   5.598   3.206  14.524
   35DOPE  H14Y 4502   5.606   3.088  14.659
   35DOPE  C315 4503   5.542   3.289  14.715
   35DOPE  H15X 4504   5.474   3.367  14.673
   35DOPE  H15Y 4505   5.644   3.332  14.723
   35DOPE  C316 4506   5.492   3.254  14.855
   35DOPE  H16X 4507   5.557   3.175  14.898
   35DOPE  H16Y 4508   5.388   3.214  14.848
   35DOPE  C317 4509   5.492   3.377  14.947
   35DOPE  H17X 4510   5.596   3.414  14.958
   35DOPE  H17Y 4511   5.433   3.457  14.897
   35DOPE  C318 4512   5.431   3.355  15.086
   35DOPE  H18X 4513   5.332   3.306  15.078
   35DOPE  H18Y 4514   5.497   3.291  15.149
   35DOPE  H18Z 4515   5.419   3.452  15.139
   36DOPE     N 4516   5.780   4.511  13.217
   36DOPE   HN1 4517   5.780   4.540  13.118
   36DOPE   HN2 4518   5.834   4.580  13.274
   36DOPE   HN3 4519   5.822   4.416  13.222
   36DOPE   C12 4520   5.634   4.506  13.255
   36DOPE  H12A 4521   5.597   4.610  13.260
   36DOPE  H12B 4522   5.624   4.458  13.354
   36DOPE   C11 4523   5.557   4.430  13.146
   36DOPE  H11A 4524   5.448   4.451  13.154
   36DOPE  H11B 4525   5.569   4.321  13.161
   36DOPE     P 4526   5.556   4.591  12.937
   36DOPE   O13 4527   5.443   4.553  12.849
   36DOPE   O14 4528   5.674   4.657  12.878
   36DOPE   O11 4529   5.507   4.683  13.057
   36DOPE   O12 4530   5.608   4.464  13.017
   36DOPE    C1 4531   5.462   4.816  13.026
   36DOPE    HA 4532   5.369   4.812  12.965
   36DOPE    HB 4533   5.539   4.871  12.967
   36DOPE    C2 4534   5.433   4.903  13.153
   36DOPE    HS 4535   5.434   5.010  13.123
   36DOPE   O21 4536   5.531   4.877  13.256
   36DOPE   C21 4537   5.646   4.938  13.239
   36DOPE   O22 4538   5.675   5.011  13.145
   36DOPE   C22 4539   5.740   4.907  13.356
   36DOPE   H2R 4540   5.765   5.005  13.401
   36DOPE   H2S 4541   5.834   4.864  13.315
   36DOPE    C3 4542   5.291   4.878  13.211
   36DOPE    HX 4543   5.218   4.888  13.128
   36DOPE    HY 4544   5.266   4.957  13.284
   36DOPE   O31 4545   5.280   4.746  13.266
   36DOPE   C31 4546   5.315   4.735  13.393
   36DOPE   O32 4547   5.337   4.825  13.471
   36DOPE   C32 4548   5.322   4.586  13.424
   36DOPE   H2X 4549   5.216   4.558  13.445
   36DOPE   H2Y 4550   5.354   4.535  13.330
   36DOPE   C23 4551   5.680   4.815  13.465
   36DOPE   H3R 4552   5.667   4.712  13.425
   36DOPE   H3S 4553   5.579   4.853  13.494
   36DOPE   C24 4554   5.760   4.805  13.596
   36DOPE   H4R 4555   5.752   4.905  13.645
   36DOPE   H4S 4556   5.867   4.784  13.576
   36DOPE   C25 4557   5.700   4.699  13.689
   36DOPE   H5R 4558   5.712   4.598  13.645
   36DOPE   H5S 4559   5.591   4.721  13.697
   36DOPE   C26 4560   5.755   4.698  13.833
   36DOPE   H6R 4561   5.864   4.677  13.831
   36DOPE   H6S 4562   5.706   4.617  13.892
   36DOPE   C27 4563   5.730   4.830  13.904
   36DOPE   H7R 4564   5.624   4.864  13.895
   36DOPE   H7S 4565   5.791   4.906  13.850
   36DOPE   C28 4566   5.777   4.832  14.049
   36DOPE   H8R 4567   5.819   4.934  14.057
   36DOPE   H8S 4568   5.862   4.762  14.061
   36DOPE   C29 4569   5.681   4.827  14.165
   36DOPE   H9R 4570   5.609   4.911  14.169
   36DOPE  C210 4571   5.682   4.740  14.266
   36DOPE  H10R 4572   5.614   4.756  14.351
   36DOPE  C211 4573   5.777   4.625  14.282
   36DOPE  H11R 4574   5.816   4.594  14.183
   36DOPE  H11S 4575   5.717   4.540  14.320
   36DOPE  C212 4576   5.896   4.643  14.376
   36DOPE  H12R 4577   5.946   4.741  14.359
   36DOPE  H12S 4578   5.967   4.564  14.344
   36DOPE  C213 4579   5.869   4.619  14.525
   36DOPE  H13R 4580   5.790   4.542  14.537
   36DOPE  H13S 4581   5.830   4.712  14.573
   36DOPE  C214 4582   5.992   4.561  14.595
   36DOPE  H14R 4583   6.066   4.644  14.604
   36DOPE  H14S 4584   6.037   4.483  14.530
   36DOPE  C215 4585   5.972   4.496  14.732
   36DOPE  H15R 4586   6.072   4.475  14.775
   36DOPE  H15S 4587   5.922   4.397  14.717
   36DOPE  C216 4588   5.891   4.577  14.833
   36DOPE  H16R 4589   5.785   4.580  14.801
   36DOPE  H16S 4590   5.928   4.682  14.834
   36DOPE  C217 4591   5.902   4.521  14.975
   36DOPE  H17R 4592   5.826   4.572  15.038
   36DOPE  H17S 4593   6.003   4.546  15.013
   36DOPE  C218 4594   5.884   4.369  14.987
   36DOPE  H18R 4595   5.789   4.337  14.941
   36DOPE  H18S 4596   5.885   4.339  15.094
   36DOPE  H18T 4597   5.968   4.316  14.937
   36DOPE   C33 4598   5.415   4.541  13.539
   36DOPE   H3X 4599   5.517   4.584  13.526
   36DOPE   H3Y 4600   5.423   4.430  13.535
   36DOPE   C34 4601   5.359   4.579  13.675
   36DOPE   H4X 4602   5.371   4.689  13.688
   36DOPE   H4Y 4603   5.250   4.559  13.672
   36DOPE   C35 4604   5.421   4.505  13.796
   36DOPE   H5X 4605   5.525   4.540  13.810
   36DOPE   H5Y 4606   5.425   4.396  13.775
   36DOPE   C36 4607   5.345   4.528  13.928
   36DOPE   H6X 4608   5.412   4.507  14.014
   36DOPE   H6Y 4609   5.261   4.456  13.937
   36DOPE   C37 4610   5.286   4.670  13.941
   36DOPE   H7X 4611   5.238   4.704  13.847
   36DOPE   H7Y 4612   5.200   4.668  14.011
   36DOPE   C38 4613   5.393   4.772  13.979
   36DOPE   H8X 4614   5.420   4.826  13.886
   36DOPE   H8Y 4615   5.484   4.716  14.010
   36DOPE   C39 4616   5.362   4.872  14.087
   36DOPE   H9X 4617   5.386   4.976  14.061
   36DOPE  C310 4618   5.310   4.846  14.209
   36DOPE  H10X 4619   5.299   4.931  14.278
   36DOPE  C311 4620   5.270   4.712  14.266
   36DOPE  H11X 4621   5.180   4.726  14.329
   36DOPE  H11Y 4622   5.240   4.636  14.191
   36DOPE  C312 4623   5.378   4.641  14.347
   36DOPE  H12X 4624   5.423   4.711  14.421
   36DOPE  H12Y 4625   5.457   4.609  14.276
   36DOPE  C313 4626   5.324   4.517  14.419
   36DOPE  H13X 4627   5.273   4.546  14.513
   36DOPE  H13Y 4628   5.251   4.468  14.351
   36DOPE  C314 4629   5.432   4.414  14.449
   36DOPE  H14X 4630   5.468   4.378  14.350
   36DOPE  H14Y 4631   5.391   4.326  14.503
   36DOPE  C315 4632   5.552   4.476  14.521
   36DOPE  H15X 4633   5.566   4.583  14.495
   36DOPE  H15Y 4634   5.642   4.427  14.477
   36DOPE  C316 4635   5.566   4.462  14.673
   36DOPE  H16X 4636   5.594   4.565  14.706
   36DOPE  H16Y 4637   5.658   4.405  14.698
   36DOPE  C317 4638   5.450   4.401  14.751
   36DOPE  H17X 4639   5.356   4.458  14.731
   36DOPE  H17Y 4640   5.434   4.297  14.713
   36DOPE  C318 4641   5.474   4.392  14.902
   36DOPE  H18X 4642   5.473   4.492  14.950
   36DOPE  H18Y 4643   5.397   4.330  14.951
   36DOPE  H18Z 4644   5.574   4.348  14.922
   37DOPE     N 4645   2.765   2.366  12.990
   37DOPE   HN1 4646   2.785   2.422  12.905
   37DOPE   HN2 4647   2.721   2.430  13.060
   37DOPE   HN3 4648   2.854   2.330  13.031
   37DOPE   C12 4649   2.660   2.261  12.963
   37DOPE  H12A 4650   2.636   2.212  13.060
   37DOPE  H12B 4651   2.701   2.185  12.894
   37DOPE   C11 4652   2.531   2.324  12.904
   37DOPE  H11A 4653   2.447   2.251  12.910
   37DOPE  H11B 4654   2.547   2.345  12.796
   37DOPE     P 4655   2.466   2.448  13.123
   37DOPE   O13 4656   2.600   2.473  13.181
   37DOPE   O14 4657   2.401   2.320  13.157
   37DOPE   O11 4658   2.369   2.572  13.135
   37DOPE   O12 4659   2.495   2.446  12.967
   37DOPE    C1 4660   2.405   2.689  13.208
   37DOPE    HA 4661   2.369   2.778  13.154
   37DOPE    HB 4662   2.515   2.701  13.218
   37DOPE    C2 4663   2.344   2.689  13.350
   37DOPE    HS 4664   2.382   2.779  13.403
   37DOPE   O21 4665   2.381   2.565  13.415
   37DOPE   C21 4666   2.423   2.577  13.539
   37DOPE   O22 4667   2.419   2.678  13.606
   37DOPE   C22 4668   2.485   2.443  13.584
   37DOPE   H2R 4669   2.563   2.415  13.510
   37DOPE   H2S 4670   2.404   2.368  13.580
   37DOPE    C3 4671   2.189   2.702  13.343
   37DOPE    HX 4672   2.152   2.617  13.283
   37DOPE    HY 4673   2.165   2.796  13.288
   37DOPE   O31 4674   2.134   2.712  13.476
   37DOPE   C31 4675   2.044   2.620  13.508
   37DOPE   O32 4676   1.992   2.542  13.431
   37DOPE   C32 4677   2.012   2.630  13.658
   37DOPE   H2X 4678   1.963   2.729  13.669
   37DOPE   H2Y 4679   1.938   2.552  13.684
   37DOPE   C23 4680   2.544   2.448  13.728
   37DOPE   H3R 4681   2.508   2.360  13.785
   37DOPE   H3S 4682   2.506   2.538  13.781
   37DOPE   C24 4683   2.697   2.451  13.737
   37DOPE   H4R 4684   2.738   2.507  13.649
   37DOPE   H4S 4685   2.736   2.347  13.728
   37DOPE   C25 4686   2.745   2.516  13.868
   37DOPE   H5R 4687   2.752   2.436  13.945
   37DOPE   H5S 4688   2.668   2.586  13.906
   37DOPE   C26 4689   2.878   2.594  13.861
   37DOPE   H6R 4690   2.859   2.699  13.831
   37DOPE   H6S 4691   2.947   2.550  13.787
   37DOPE   C27 4692   2.946   2.600  13.998
   37DOPE   H7R 4693   3.008   2.508  14.009
   37DOPE   H7S 4694   2.866   2.598  14.075
   37DOPE   C28 4695   3.048   2.713  14.019
   37DOPE   H8R 4696   3.078   2.747  13.918
   37DOPE   H8S 4697   3.138   2.671  14.069
   37DOPE   C29 4698   2.998   2.829  14.099
   37DOPE   H9R 4699   3.012   2.926  14.049
   37DOPE  C210 4700   2.938   2.826  14.218
   37DOPE  H10R 4701   2.906   2.922  14.261
   37DOPE  C211 4702   2.905   2.706  14.305
   37DOPE  H11R 4703   2.955   2.721  14.403
   37DOPE  H11S 4704   2.945   2.611  14.265
   37DOPE  C212 4705   2.753   2.689  14.330
   37DOPE  H12R 4706   2.738   2.607  14.403
   37DOPE  H12S 4707   2.701   2.660  14.236
   37DOPE  C213 4708   2.686   2.816  14.385
   37DOPE  H13R 4709   2.582   2.794  14.417
   37DOPE  H13S 4710   2.677   2.891  14.303
   37DOPE  C214 4711   2.764   2.884  14.498
   37DOPE  H14R 4712   2.716   2.983  14.511
   37DOPE  H14S 4713   2.868   2.908  14.466
   37DOPE  C215 4714   2.776   2.801  14.626
   37DOPE  H15R 4715   2.833   2.857  14.703
   37DOPE  H15S 4716   2.834   2.711  14.600
   37DOPE  C216 4717   2.645   2.750  14.688
   37DOPE  H16R 4718   2.579   2.707  14.610
   37DOPE  H16S 4719   2.589   2.832  14.738
   37DOPE  C217 4720   2.676   2.639  14.787
   37DOPE  H17R 4721   2.754   2.672  14.860
   37DOPE  H17S 4722   2.718   2.554  14.729
   37DOPE  C218 4723   2.553   2.590  14.862
   37DOPE  H18R 4724   2.466   2.584  14.792
   37DOPE  H18S 4725   2.525   2.657  14.946
   37DOPE  H18T 4726   2.574   2.488  14.902
   37DOPE   C33 4727   2.135   2.625  13.751
   37DOPE   H3X 4728   2.109   2.670  13.849
   37DOPE   H3Y 4729   2.214   2.692  13.711
   37DOPE   C34 4730   2.193   2.485  13.780
   37DOPE   H4X 4731   2.172   2.417  13.695
   37DOPE   H4Y 4732   2.304   2.496  13.786
   37DOPE   C35 4733   2.152   2.420  13.914
   37DOPE   H5X 4734   2.174   2.311  13.910
   37DOPE   H5Y 4735   2.042   2.432  13.925
   37DOPE   C36 4736   2.219   2.478  14.040
   37DOPE   H6X 4737   2.164   2.439  14.128
   37DOPE   H6Y 4738   2.208   2.589  14.038
   37DOPE   C37 4739   2.368   2.448  14.064
   37DOPE   H7X 4740   2.428   2.483  13.977
   37DOPE   H7Y 4741   2.398   2.511  14.151
   37DOPE   C38 4742   2.399   2.301  14.097
   37DOPE   H8X 4743   2.384   2.240  14.005
   37DOPE   H8Y 4744   2.325   2.265  14.172
   37DOPE   C39 4745   2.541   2.288  14.147
   37DOPE   H9X 4746   2.617   2.321  14.074
   37DOPE  C310 4747   2.583   2.242  14.266
   37DOPE  H10X 4748   2.691   2.241  14.287
   37DOPE  C311 4749   2.498   2.192  14.381
   37DOPE  H11X 4750   2.391   2.217  14.369
   37DOPE  H11Y 4751   2.505   2.082  14.384
   37DOPE  C312 4752   2.546   2.245  14.519
   37DOPE  H12X 4753   2.657   2.249  14.521
   37DOPE  H12Y 4754   2.515   2.171  14.597
   37DOPE  C313 4755   2.489   2.383  14.557
   37DOPE  H13X 4756   2.558   2.431  14.628
   37DOPE  H13Y 4757   2.485   2.446  14.465
   37DOPE  C314 4758   2.349   2.378  14.621
   37DOPE  H14X 4759   2.282   2.318  14.556
   37DOPE  H14Y 4760   2.308   2.481  14.625
   37DOPE  C315 4761   2.347   2.321  14.764
   37DOPE  H15X 4762   2.400   2.389  14.834
   37DOPE  H15Y 4763   2.403   2.225  14.769
   37DOPE  C316 4764   2.204   2.304  14.818
   37DOPE  H16X 4765   2.145   2.236  14.754
   37DOPE  H16Y 4766   2.158   2.405  14.810
   37DOPE  C317 4767   2.198   2.259  14.964
   37DOPE  H17X 4768   2.286   2.298  15.020
   37DOPE  H17Y 4769   2.110   2.307  15.011
   37DOPE  C318 4770   2.183   2.108  14.986
   37DOPE  H18X 4771   2.149   2.087  15.089
   37DOPE  H18Y 4772   2.105   2.066  14.919
   37DOPE  H18Z 4773   2.279   2.055  14.968
   38DOPE     N 4774   5.295   5.439  12.831
   38DOPE   HN1 4775   5.288   5.469  12.732
   38DOPE   HN2 4776   5.210   5.468  12.883
   38DOPE   HN3 4777   5.378   5.483  12.876
   38DOPE   C12 4778   5.305   5.290  12.842
   38DOPE  H12A 4779   5.383   5.253  12.772
   38DOPE  H12B 4780   5.206   5.248  12.812
   38DOPE   C11 4781   5.335   5.252  12.987
   38DOPE  H11A 4782   5.437   5.285  13.016
   38DOPE  H11B 4783   5.335   5.141  12.994
   38DOPE     P 4784   5.125   5.231  13.141
   38DOPE   O13 4785   5.105   5.109  13.059
   38DOPE   O14 4786   5.010   5.321  13.162
   38DOPE   O11 4787   5.197   5.195  13.278
   38DOPE   O12 4788   5.240   5.316  13.072
   38DOPE    C1 4789   5.229   5.303  13.368
   38DOPE    HA 4790   5.140   5.368  13.385
   38DOPE    HB 4791   5.310   5.367  13.325
   38DOPE    C2 4792   5.273   5.254  13.509
   38DOPE    HS 4793   5.362   5.188  13.496
   38DOPE   O21 4794   5.162   5.181  13.563
   38DOPE   C21 4795   5.188   5.092  13.656
   38DOPE   O22 4796   5.298   5.062  13.700
   38DOPE   C22 4797   5.054   5.042  13.708
   38DOPE   H2R 4798   5.005   4.986  13.626
   38DOPE   H2S 4799   4.992   5.131  13.732
   38DOPE    C3 4800   5.312   5.376  13.598
   38DOPE    HX 4801   5.225   5.445  13.602
   38DOPE    HY 4802   5.392   5.431  13.545
   38DOPE   O31 4803   5.362   5.341  13.730
   38DOPE   C31 4804   5.271   5.341  13.828
   38DOPE   O32 4805   5.154   5.371  13.817
   38DOPE   C32 4806   5.334   5.294  13.959
   38DOPE   H2X 4807   5.277   5.205  13.990
   38DOPE   H2Y 4808   5.440   5.263  13.940
   38DOPE   C23 4809   5.066   4.954  13.835
   38DOPE   H3R 4810   5.123   5.008  13.913
   38DOPE   H3S 4811   5.124   4.863  13.808
   38DOPE   C24 4812   4.929   4.914  13.888
   38DOPE   H4R 4813   4.879   4.850  13.812
   38DOPE   H4S 4814   4.867   5.005  13.901
   38DOPE   C25 4815   4.932   4.838  14.022
   38DOPE   H5R 4816   5.003   4.753  14.016
   38DOPE   H5S 4817   4.830   4.797  14.040
   38DOPE   C26 4818   4.969   4.927  14.141
   38DOPE   H6R 4819   4.909   5.020  14.130
   38DOPE   H6S 4820   5.076   4.956  14.133
   38DOPE   C27 4821   4.941   4.863  14.278
   38DOPE   H7R 4822   4.977   4.758  14.274
   38DOPE   H7S 4823   4.831   4.859  14.293
   38DOPE   C28 4824   5.009   4.936  14.395
   38DOPE   H8R 4825   4.970   5.040  14.398
   38DOPE   H8S 4826   5.118   4.944  14.376
   38DOPE   C29 4827   4.983   4.873  14.530
   38DOPE   H9R 4828   4.876   4.863  14.554
   38DOPE  C210 4829   5.073   4.827  14.619
   38DOPE  H10R 4830   5.037   4.787  14.715
   38DOPE  C211 4831   5.223   4.826  14.606
   38DOPE  H11R 4832   5.266   4.928  14.605
   38DOPE  H11S 4833   5.246   4.786  14.504
   38DOPE  C212 4834   5.302   4.737  14.703
   38DOPE  H12R 4835   5.395   4.709  14.650
   38DOPE  H12S 4836   5.248   4.642  14.726
   38DOPE  C213 4837   5.344   4.805  14.834
   38DOPE  H13R 4838   5.261   4.802  14.908
   38DOPE  H13S 4839   5.363   4.911  14.808
   38DOPE  C214 4840   5.472   4.745  14.894
   38DOPE  H14R 4841   5.499   4.657  14.832
   38DOPE  H14S 4842   5.447   4.705  14.995
   38DOPE  C215 4843   5.599   4.832  14.909
   38DOPE  H15R 4844   5.683   4.770  14.946
   38DOPE  H15S 4845   5.568   4.896  14.995
   38DOPE  C216 4846   5.650   4.923  14.795
   38DOPE  H16R 4847   5.566   4.974  14.743
   38DOPE  H16S 4848   5.694   4.853  14.720
   38DOPE  C217 4849   5.761   5.026  14.833
   38DOPE  H17R 4850   5.829   5.029  14.745
   38DOPE  H17S 4851   5.823   4.987  14.916
   38DOPE  C218 4852   5.734   5.177  14.852
   38DOPE  H18R 4853   5.664   5.199  14.935
   38DOPE  H18S 4854   5.695   5.225  14.760
   38DOPE  H18T 4855   5.827   5.232  14.879
   38DOPE   C33 4856   5.326   5.404  14.067
   38DOPE   H3X 4857   5.224   5.449  14.069
   38DOPE   H3Y 4858   5.393   5.488  14.038
   38DOPE   C34 4859   5.364   5.358  14.209
   38DOPE   H4X 4860   5.468   5.319  14.206
   38DOPE   H4Y 4861   5.363   5.446  14.276
   38DOPE   C35 4862   5.273   5.249  14.270
   38DOPE   H5X 4863   5.321   5.217  14.365
   38DOPE   H5Y 4864   5.271   5.159  14.204
   38DOPE   C36 4865   5.129   5.292  14.304
   38DOPE   H6X 4866   5.129   5.387  14.362
   38DOPE   H6Y 4867   5.087   5.214  14.371
   38DOPE   C37 4868   5.036   5.303  14.182
   38DOPE   H7X 4869   5.040   5.405  14.138
   38DOPE   H7Y 4870   5.074   5.232  14.105
   38DOPE   C38 4871   4.889   5.266  14.207
   38DOPE   H8X 4872   4.887   5.168  14.259
   38DOPE   H8Y 4873   4.842   5.250  14.107
   38DOPE   C39 4874   4.804   5.363  14.283
   38DOPE   H9X 4875   4.841   5.467  14.286
   38DOPE  C310 4876   4.692   5.328  14.348
   38DOPE  H10X 4877   4.635   5.406  14.401
   38DOPE  C311 4878   4.631   5.190  14.357
   38DOPE  H11X 4879   4.521   5.198  14.354
   38DOPE  H11Y 4880   4.661   5.127  14.271
   38DOPE  C312 4881   4.670   5.115  14.487
   38DOPE  H12X 4882   4.780   5.097  14.486
   38DOPE  H12Y 4883   4.620   5.016  14.489
   38DOPE  C313 4884   4.634   5.193  14.613
   38DOPE  H13X 4885   4.694   5.287  14.609
   38DOPE  H13Y 4886   4.526   5.219  14.612
   38DOPE  C314 4887   4.669   5.127  14.747
   38DOPE  H14X 4888   4.612   5.033  14.757
   38DOPE  H14Y 4889   4.638   5.195  14.829
   38DOPE  C315 4890   4.819   5.097  14.765
   38DOPE  H15X 4891   4.849   5.019  14.692
   38DOPE  H15Y 4892   4.827   5.051  14.866
   38DOPE  C316 4893   4.917   5.215  14.755
   38DOPE  H16X 4894   4.872   5.305  14.801
   38DOPE  H16Y 4895   4.938   5.237  14.648
   38DOPE  C317 4896   5.047   5.197  14.833
   38DOPE  H17X 4897   5.118   5.276  14.803
   38DOPE  H17Y 4898   5.025   5.212  14.941
   38DOPE  C318 4899   5.111   5.061  14.819
   38DOPE  H18X 4900   5.189   5.042  14.896
   38DOPE  H18Y 4901   5.037   4.978  14.829
   38DOPE  H18Z 4902   5.159   5.056  14.719
   39DOPE     N 4903   1.942   3.585  13.222
   39DOPE   HN1 4904   1.964   3.590  13.323
   39DOPE   HN2 4905   1.842   3.560  13.207
   39DOPE   HN3 4906   2.002   3.509  13.184
   39DOPE   C12 4907   1.970   3.713  13.150
   39DOPE  H12A 4908   2.080   3.723  13.137
   39DOPE  H12B 4909   1.931   3.796  13.213
   39DOPE   C11 4910   1.895   3.717  13.016
   39DOPE  H11A 4911   1.921   3.628  12.955
   39DOPE  H11B 4912   1.930   3.806  12.960
   39DOPE     P 4913   1.662   3.831  12.979
   39DOPE   O13 4914   1.536   3.831  13.054
   39DOPE   O14 4915   1.655   3.804  12.833
   39DOPE   O11 4916   1.746   3.962  13.007
   39DOPE   O12 4917   1.754   3.717  13.042
   39DOPE    C1 4918   1.686   4.092  12.993
   39DOPE    HA 4919   1.575   4.090  12.991
   39DOPE    HB 4920   1.721   4.136  12.898
   39DOPE    C2 4921   1.727   4.190  13.107
   39DOPE    HS 4922   1.708   4.293  13.070
   39DOPE   O21 4923   1.869   4.174  13.127
   39DOPE   C21 4924   1.923   4.196  13.245
   39DOPE   O22 4925   1.874   4.254  13.339
   39DOPE   C22 4926   2.061   4.129  13.248
   39DOPE   H2R 4927   2.133   4.203  13.289
   39DOPE   H2S 4928   2.089   4.103  13.145
   39DOPE    C3 4929   1.634   4.174  13.233
   39DOPE    HX 4930   1.528   4.167  13.199
   39DOPE    HY 4931   1.641   4.269  13.291
   39DOPE   O31 4932   1.668   4.059  13.312
   39DOPE   C31 4933   1.630   4.068  13.440
   39DOPE   O32 4934   1.569   4.161  13.489
   39DOPE   C32 4935   1.677   3.943  13.514
   39DOPE   H2X 4936   1.664   3.858  13.443
   39DOPE   H2Y 4937   1.785   3.954  13.537
   39DOPE   C23 4938   2.058   4.002  13.336
   39DOPE   H3R 4939   2.134   3.931  13.297
   39DOPE   H3S 4940   1.958   3.955  13.329
   39DOPE   C24 4941   2.087   4.026  13.484
   39DOPE   H4R 4942   2.009   4.092  13.529
   39DOPE   H4S 4943   2.185   4.077  13.495
   39DOPE   C25 4944   2.090   3.892  13.559
   39DOPE   H5R 4945   2.161   3.826  13.505
   39DOPE   H5S 4946   1.989   3.845  13.554
   39DOPE   C26 4947   2.137   3.902  13.705
   39DOPE   H6R 4948   2.191   3.997  13.723
   39DOPE   H6S 4949   2.210   3.820  13.718
   39DOPE   C27 4950   2.026   3.881  13.810
   39DOPE   H7R 4951   1.943   3.822  13.766
   39DOPE   H7S 4952   1.985   3.979  13.843
   39DOPE   C28 4953   2.083   3.800  13.929
   39DOPE   H8R 4954   2.175   3.848  13.967
   39DOPE   H8S 4955   2.117   3.708  13.879
   39DOPE   C29 4956   1.987   3.763  14.039
   39DOPE   H9R 4957   1.887   3.732  14.003
   39DOPE  C210 4958   2.009   3.761  14.173
   39DOPE  H10R 4959   1.926   3.730  14.238
   39DOPE  C211 4960   2.134   3.797  14.250
   39DOPE  H11R 4961   2.106   3.876  14.323
   39DOPE  H11S 4962   2.210   3.843  14.183
   39DOPE  C212 4963   2.207   3.687  14.330
   39DOPE  H12R 4964   2.278   3.734  14.401
   39DOPE  H12S 4965   2.269   3.629  14.258
   39DOPE  C213 4966   2.119   3.586  14.407
   39DOPE  H13R 4967   2.181   3.501  14.443
   39DOPE  H13S 4968   2.044   3.544  14.336
   39DOPE  C214 4969   2.039   3.641  14.525
   39DOPE  H14R 4970   1.952   3.575  14.543
   39DOPE  H14S 4971   1.997   3.740  14.495
   39DOPE  C215 4972   2.119   3.649  14.656
   39DOPE  H15R 4973   2.215   3.702  14.638
   39DOPE  H15S 4974   2.144   3.545  14.688
   39DOPE  C216 4975   2.042   3.720  14.768
   39DOPE  H16R 4976   2.092   3.702  14.866
   39DOPE  H16S 4977   1.939   3.678  14.774
   39DOPE  C217 4978   2.035   3.871  14.742
   39DOPE  H17R 4979   2.013   3.883  14.634
   39DOPE  H17S 4980   2.135   3.916  14.761
   39DOPE  C218 4981   1.928   3.950  14.816
   39DOPE  H18R 4982   1.910   4.047  14.764
   39DOPE  H18S 4983   1.959   3.972  14.920
   39DOPE  H18T 4984   1.832   3.894  14.816
   39DOPE   C33 4985   1.595   3.915  13.641
   39DOPE   H3X 4986   1.601   3.806  13.663
   39DOPE   H3Y 4987   1.488   3.940  13.623
   39DOPE   C34 4988   1.640   3.990  13.768
   39DOPE   H4X 4989   1.748   3.972  13.786
   39DOPE   H4Y 4990   1.625   4.099  13.753
   39DOPE   C35 4991   1.559   3.942  13.890
   39DOPE   H5X 4992   1.574   3.833  13.902
   39DOPE   H5Y 4993   1.451   3.958  13.869
   39DOPE   C36 4994   1.594   4.013  14.022
   39DOPE   H6X 4995   1.563   4.119  14.012
   39DOPE   H6Y 4996   1.704   4.011  14.037
   39DOPE   C37 4997   1.524   3.949  14.144
   39DOPE   H7X 4998   1.419   3.929  14.115
   39DOPE   H7Y 4999   1.572   3.851  14.166
   39DOPE   C38 5000   1.521   4.037  14.271
   39DOPE   H8X 5001   1.466   3.982  14.350
   39DOPE   H8Y 5002   1.459   4.125  14.247
   39DOPE   C39 5003   1.655   4.085  14.321
   39DOPE   H9X 5004   1.709   4.145  14.247
   39DOPE  C310 5005   1.717   4.063  14.440
   39DOPE  H10X 5006   1.814   4.112  14.455
   39DOPE  C311 5007   1.672   3.983  14.560
   39DOPE  H11X 5008   1.613   3.897  14.523
   39DOPE  H11Y 5009   1.763   3.939  14.607
   39DOPE  C312 5010   1.594   4.059  14.670
   39DOPE  H12X 5011   1.502   4.100  14.624
   39DOPE  H12Y 5012   1.660   4.144  14.701
   39DOPE  C313 5013   1.555   3.985  14.801
   39DOPE  H13X 5014   1.588   3.879  14.794
   39DOPE  H13Y 5015   1.612   4.029  14.886
   39DOPE  C314 5016   1.404   3.990  14.836
   39DOPE  H14X 5017   1.342   3.972  14.745
   39DOPE  H14Y 5018   1.379   4.093  14.869
   39DOPE  C315 5019   1.356   3.892  14.947
   39DOPE  H15X 5020   1.255   3.926  14.979
   39DOPE  H15Y 5021   1.423   3.904  15.034
   39DOPE  C316 5022   1.340   3.744  14.905
   39DOPE  H16X 5023   1.404   3.724  14.817
   39DOPE  H16Y 5024   1.234   3.727  14.876
   39DOPE  C317 5025   1.379   3.637  15.007
   39DOPE  H17X 5026   1.310   3.644  15.094
   39DOPE  H17Y 5027   1.364   3.537  14.963
   39DOPE  C318 5028   1.524   3.649  15.052
   39DOPE  H18X 5029   1.540   3.601  15.151
   39DOPE  H18Y 5030   1.592   3.601  14.979
   39DOPE  H18Z 5031   1.555   3.756  15.063
   40DOPE     N 5032   4.149   5.977  13.287
   40DOPE   HN1 5033   4.140   5.878  13.257
   40DOPE   HN2 5034   4.162   5.984  13.390
   40DOPE   HN3 5035   4.060   6.022  13.257
   40DOPE   C12 5036   4.263   6.038  13.209
   40DOPE  H12A 5037   4.345   5.963  13.206
   40DOPE  H12B 5038   4.298   6.129  13.262
   40DOPE   C11 5039   4.217   6.074  13.066
   40DOPE  H11A 5040   4.308   6.100  13.007
   40DOPE  H11B 5041   4.155   6.166  13.069
   40DOPE     P 5042   3.994   5.967  12.974
   40DOPE   O13 5043   3.949   5.830  12.949
   40DOPE   O14 5044   3.959   6.074  12.878
   40DOPE   O11 5045   3.946   6.011  13.118
   40DOPE   O12 5046   4.151   5.965  13.001
   40DOPE    C1 5047   3.836   5.945  13.182
   40DOPE    HA 5048   3.874   5.865  13.249
   40DOPE    HB 5049   3.765   5.897  13.110
   40DOPE    C2 5050   3.753   6.044  13.268
   40DOPE    HS 5051   3.681   6.093  13.199
   40DOPE   O21 5052   3.841   6.144  13.325
   40DOPE   C21 5053   3.775   6.247  13.377
   40DOPE   O22 5054   3.655   6.261  13.377
   40DOPE   C22 5055   3.874   6.349  13.435
   40DOPE   H2R 5056   3.815   6.421  13.496
   40DOPE   H2S 5057   3.917   6.403  13.348
   40DOPE    C3 5058   3.674   5.968  13.378
   40DOPE    HX 5059   3.619   5.886  13.327
   40DOPE    HY 5060   3.600   6.034  13.427
   40DOPE   O31 5061   3.767   5.917  13.477
   40DOPE   C31 5062   3.714   5.824  13.556
   40DOPE   O32 5063   3.603   5.776  13.540
   40DOPE   C32 5064   3.816   5.787  13.664
   40DOPE   H2X 5065   3.906   5.749  13.610
   40DOPE   H2Y 5066   3.844   5.877  13.722
   40DOPE   C23 5067   3.987   6.286  13.520
   40DOPE   H3R 5068   4.074   6.355  13.517
   40DOPE   H3S 5069   4.020   6.189  13.478
   40DOPE   C24 5070   3.951   6.269  13.669
   40DOPE   H4R 5071   3.929   6.369  13.711
   40DOPE   H4S 5072   4.039   6.229  13.723
   40DOPE   C25 5073   3.832   6.176  13.696
   40DOPE   H5R 5074   3.845   6.081  13.639
   40DOPE   H5S 5075   3.738   6.224  13.660
   40DOPE   C26 5076   3.814   6.143  13.845
   40DOPE   H6R 5077   3.893   6.072  13.879
   40DOPE   H6S 5078   3.716   6.093  13.859
   40DOPE   C27 5079   3.821   6.269  13.933
   40DOPE   H7R 5080   3.772   6.352  13.876
   40DOPE   H7S 5081   3.927   6.299  13.951
   40DOPE   C28 5082   3.746   6.259  14.066
   40DOPE   H8R 5083   3.643   6.224  14.041
   40DOPE   H8S 5084   3.735   6.362  14.106
   40DOPE   C29 5085   3.803   6.168  14.170
   40DOPE   H9R 5086   3.773   6.063  14.158
   40DOPE  C210 5087   3.880   6.203  14.274
   40DOPE  H10R 5088   3.913   6.124  14.344
   40DOPE  C211 5089   3.927   6.342  14.309
   40DOPE  H11R 5090   3.900   6.366  14.413
   40DOPE  H11S 5091   3.877   6.419  14.246
   40DOPE  C212 5092   4.079   6.358  14.288
   40DOPE  H12R 5093   4.106   6.464  14.308
   40DOPE  H12S 5094   4.104   6.337  14.182
   40DOPE  C213 5095   4.166   6.268  14.378
   40DOPE  H13R 5096   4.273   6.288  14.357
   40DOPE  H13S 5097   4.146   6.162  14.351
   40DOPE  C214 5098   4.138   6.287  14.527
   40DOPE  H14R 5099   4.032   6.263  14.549
   40DOPE  H14S 5100   4.156   6.393  14.554
   40DOPE  C215 5101   4.224   6.197  14.618
   40DOPE  H15R 5102   4.332   6.212  14.595
   40DOPE  H15S 5103   4.200   6.091  14.597
   40DOPE  C216 5104   4.197   6.230  14.765
   40DOPE  H16R 5105   4.089   6.217  14.787
   40DOPE  H16S 5106   4.222   6.337  14.780
   40DOPE  C217 5107   4.279   6.147  14.864
   40DOPE  H17R 5108   4.277   6.202  14.960
   40DOPE  H17S 5109   4.385   6.143  14.830
   40DOPE  C218 5110   4.226   6.006  14.889
   40DOPE  H18R 5111   4.267   5.965  14.984
   40DOPE  H18S 5112   4.257   5.937  14.808
   40DOPE  H18T 5113   4.115   6.005  14.900
   40DOPE   C33 5114   3.765   5.676  13.758
   40DOPE   H3X 5115   3.850   5.621  13.804
   40DOPE   H3Y 5116   3.709   5.606  13.693
   40DOPE   C34 5117   3.668   5.722  13.867
   40DOPE   H4X 5118   3.626   5.822  13.844
   40DOPE   H4Y 5119   3.585   5.648  13.866
   40DOPE   C35 5120   3.714   5.713  14.012
   40DOPE   H5X 5121   3.748   5.610  14.036
   40DOPE   H5Y 5122   3.624   5.732  14.076
   40DOPE   C36 5123   3.821   5.814  14.055
   40DOPE   H6X 5124   3.796   5.915  14.017
   40DOPE   H6Y 5125   3.916   5.783  14.007
   40DOPE   C37 5126   3.831   5.812  14.208
   40DOPE   H7X 5127   3.778   5.895  14.259
   40DOPE   H7Y 5128   3.777   5.720  14.241
   40DOPE   C38 5129   3.974   5.792  14.258
   40DOPE   H8X 5130   4.019   5.724  14.183
   40DOPE   H8Y 5131   3.963   5.730  14.350
   40DOPE   C39 5132   4.072   5.903  14.279
   40DOPE   H9X 5133   4.064   5.990  14.211
   40DOPE  C310 5134   4.171   5.897  14.371
   40DOPE  H10X 5135   4.243   5.979  14.379
   40DOPE  C311 5136   4.196   5.781  14.464
   40DOPE  H11X 5137   4.166   5.684  14.419
   40DOPE  H11Y 5138   4.305   5.771  14.480
   40DOPE  C312 5139   4.125   5.794  14.601
   40DOPE  H12X 5140   4.151   5.892  14.645
   40DOPE  H12Y 5141   4.164   5.714  14.668
   40DOPE  C313 5142   3.972   5.783  14.594
   40DOPE  H13X 5143   3.932   5.857  14.521
   40DOPE  H13Y 5144   3.947   5.681  14.557
   40DOPE  C314 5145   3.901   5.806  14.727
   40DOPE  H14X 5146   3.958   5.759  14.810
   40DOPE  H14Y 5147   3.801   5.758  14.723
   40DOPE  C315 5148   3.879   5.955  14.753
   40DOPE  H15X 5149   3.818   5.998  14.671
   40DOPE  H15Y 5150   3.977   6.008  14.751
   40DOPE  C316 5151   3.808   5.980  14.887
   40DOPE  H16X 5152   3.860   5.925  14.968
   40DOPE  H16Y 5153   3.705   5.940  14.880
   40DOPE  C317 5154   3.803   6.129  14.922
   40DOPE  H17X 5155   3.906   6.165  14.943
   40DOPE  H17Y 5156   3.766   6.185  14.833
   40DOPE  C318 5157   3.712   6.159  15.041
   40DOPE  H18X 5158   3.703   6.269  15.057
   40DOPE  H18Y 5159   3.610   6.118  15.024
   40DOPE  H18Z 5160   3.752   6.113  15.134
   41DOPE     N 5161   2.026   4.978  13.182
   41DOPE   HN1 5162   2.085   5.040  13.240
   41DOPE   HN2 5163   2.068   4.884  13.164
   41DOPE   HN3 5164   2.008   5.024  13.090
   41DOPE   C12 5165   1.889   4.964  13.242
   41DOPE  H12A 5166   1.864   5.062  13.288
   41DOPE  H12B 5167   1.894   4.888  13.323
   41DOPE   C11 5168   1.788   4.928  13.132
   41DOPE  H11A 5169   1.685   4.944  13.169
   41DOPE  H11B 5170   1.798   4.820  13.111
   41DOPE     P 5171   1.770   5.151  12.995
   41DOPE   O13 5172   1.631   5.167  13.040
   41DOPE   O14 5173   1.807   5.200  12.861
   41DOPE   O11 5174   1.871   5.214  13.101
   41DOPE   O12 5175   1.812   4.999  13.010
   41DOPE    C1 5176   1.967   5.315  13.070
   41DOPE    HA 5177   1.958   5.351  12.965
   41DOPE    HB 5178   2.070   5.275  13.079
   41DOPE    C2 5179   1.951   5.442  13.159
   41DOPE    HS 5180   2.011   5.523  13.114
   41DOPE   O21 5181   1.989   5.427  13.294
   41DOPE   C21 5182   2.035   5.323  13.354
   41DOPE   O22 5183   2.084   5.221  13.308
   41DOPE   C22 5184   2.003   5.348  13.501
   41DOPE   H2R 5185   1.896   5.378  13.508
   41DOPE   H2S 5186   2.065   5.433  13.536
   41DOPE    C3 5187   1.803   5.489  13.165
   41DOPE    HX 5188   1.766   5.484  13.060
   41DOPE    HY 5189   1.803   5.596  13.194
   41DOPE   O31 5190   1.714   5.407  13.247
   41DOPE   C31 5191   1.678   5.461  13.363
   41DOPE   O32 5192   1.726   5.561  13.413
   41DOPE   C32 5193   1.558   5.389  13.426
   41DOPE   H2X 5194   1.551   5.426  13.530
   41DOPE   H2Y 5195   1.467   5.424  13.371
   41DOPE   C23 5196   2.026   5.223  13.586
   41DOPE   H3R 5197   2.135   5.207  13.592
   41DOPE   H3S 5198   1.980   5.134  13.538
   41DOPE   C24 5199   1.969   5.238  13.727
   41DOPE   H4R 5200   1.858   5.245  13.724
   41DOPE   H4S 5201   2.009   5.331  13.772
   41DOPE   C25 5202   2.014   5.118  13.809
   41DOPE   H5R 5203   2.124   5.112  13.795
   41DOPE   H5S 5204   1.969   5.026  13.766
   41DOPE   C26 5205   1.987   5.127  13.959
   41DOPE   H6R 5206   1.891   5.179  13.977
   41DOPE   H6S 5207   2.068   5.187  14.005
   41DOPE   C27 5208   1.981   4.987  14.023
   41DOPE   H7R 5209   2.070   4.926  13.995
   41DOPE   H7S 5210   1.892   4.936  13.981
   41DOPE   C28 5211   1.967   4.989  14.177
   41DOPE   H8R 5212   1.923   4.892  14.208
   41DOPE   H8S 5213   1.892   5.068  14.201
   41DOPE   C29 5214   2.092   5.014  14.257
   41DOPE   H9R 5215   2.148   4.924  14.286
   41DOPE  C210 5216   2.141   5.133  14.293
   41DOPE  H10R 5217   2.235   5.136  14.350
   41DOPE  C211 5218   2.082   5.268  14.261
   41DOPE  H11R 5219   1.990   5.261  14.200
   41DOPE  H11S 5220   2.156   5.328  14.203
   41DOPE  C212 5221   2.047   5.343  14.390
   41DOPE  H12R 5222   1.980   5.279  14.451
   41DOPE  H12S 5223   1.986   5.432  14.364
   41DOPE  C213 5224   2.172   5.386  14.469
   41DOPE  H13R 5225   2.239   5.445  14.403
   41DOPE  H13S 5226   2.227   5.295  14.501
   41DOPE  C214 5227   2.140   5.466  14.596
   41DOPE  H14R 5228   2.102   5.568  14.569
   41DOPE  H14S 5229   2.233   5.479  14.655
   41DOPE  C215 5230   2.033   5.397  14.680
   41DOPE  H15R 5231   2.035   5.289  14.655
   41DOPE  H15S 5232   1.933   5.434  14.647
   41DOPE  C216 5233   2.053   5.411  14.831
   41DOPE  H16R 5234   2.071   5.518  14.853
   41DOPE  H16S 5235   2.146   5.357  14.858
   41DOPE  C217 5236   1.937   5.355  14.915
   41DOPE  H17R 5237   1.960   5.373  15.023
   41DOPE  H17S 5238   1.934   5.245  14.900
   41DOPE  C218 5239   1.797   5.411  14.885
   41DOPE  H18R 5240   1.793   5.521  14.905
   41DOPE  H18S 5241   1.721   5.362  14.949
   41DOPE  H18T 5242   1.769   5.394  14.779
   41DOPE   C33 5243   1.558   5.235  13.429
   41DOPE   H3X 5244   1.649   5.200  13.482
   41DOPE   H3Y 5245   1.559   5.193  13.326
   41DOPE   C34 5246   1.431   5.187  13.503
   41DOPE   H4X 5247   1.403   5.262  13.580
   41DOPE   H4Y 5248   1.347   5.182  13.431
   41DOPE   C35 5249   1.444   5.051  13.573
   41DOPE   H5X 5250   1.462   4.974  13.495
   41DOPE   H5Y 5251   1.347   5.026  13.622
   41DOPE   C36 5252   1.555   5.040  13.679
   41DOPE   H6X 5253   1.655   5.040  13.631
   41DOPE   H6Y 5254   1.545   4.941  13.728
   41DOPE   C37 5255   1.548   5.153  13.783
   41DOPE   H7X 5256   1.611   5.237  13.747
   41DOPE   H7Y 5257   1.444   5.190  13.790
   41DOPE   C38 5258   1.594   5.109  13.923
   41DOPE   H8X 5259   1.602   5.199  13.987
   41DOPE   H8Y 5260   1.696   5.065  13.914
   41DOPE   C39 5261   1.498   5.010  13.984
   41DOPE   H9X 5262   1.409   4.986  13.924
   41DOPE  C310 5263   1.516   4.950  14.103
   41DOPE  H10X 5264   1.441   4.877  14.139
   41DOPE  C311 5265   1.634   4.973  14.192
   41DOPE  H11X 5266   1.698   4.882  14.195
   41DOPE  H11Y 5267   1.697   5.056  14.152
   41DOPE  C312 5268   1.597   5.012  14.337
   41DOPE  H12X 5269   1.547   4.926  14.386
   41DOPE  H12Y 5270   1.528   5.098  14.337
   41DOPE  C313 5271   1.723   5.050  14.417
   41DOPE  H13X 5272   1.798   4.969  14.401
   41DOPE  H13Y 5273   1.766   5.144  14.376
   41DOPE  C314 5274   1.697   5.066  14.567
   41DOPE  H14X 5275   1.663   4.968  14.607
   41DOPE  H14Y 5276   1.616   5.140  14.583
   41DOPE  C315 5277   1.821   5.111  14.646
   41DOPE  H15X 5278   1.801   5.100  14.755
   41DOPE  H15Y 5279   1.838   5.218  14.626
   41DOPE  C316 5280   1.948   5.032  14.609
   41DOPE  H16X 5281   1.990   5.073  14.515
   41DOPE  H16Y 5282   1.916   4.928  14.585
   41DOPE  C317 5283   2.058   5.025  14.715
   41DOPE  H17X 5284   2.100   5.125  14.737
   41DOPE  H17Y 5285   2.015   4.987  14.810
   41DOPE  C318 5286   2.173   4.935  14.671
   41DOPE  H18X 5287   2.135   4.832  14.651
   41DOPE  H18Y 5288   2.218   4.973  14.577
   41DOPE  H18Z 5289   2.251   4.925  14.749
   42DOPE     N 5290   1.621   4.482  12.876
   42DOPE   HN1 5291   1.559   4.400  12.891
   42DOPE   HN2 5292   1.606   4.513  12.778
   42DOPE   HN3 5293   1.721   4.457  12.891
   42DOPE   C12 5294   1.574   4.587  12.973
   42DOPE  H12A 5295   1.635   4.679  12.959
   42DOPE  H12B 5296   1.589   4.548  13.076
   42DOPE   C11 5297   1.425   4.617  12.948
   42DOPE  H11A 5298   1.414   4.675  12.854
   42DOPE  H11B 5299   1.389   4.683  13.030
   42DOPE     P 5300   1.273   4.436  13.061
   42DOPE   O13 5301   1.379   4.388  13.151
   42DOPE   O14 5302   1.175   4.338  13.008
   42DOPE   O11 5303   1.200   4.562  13.121
   42DOPE   O12 5304   1.349   4.496  12.935
   42DOPE    C1 5305   1.104   4.637  13.044
   42DOPE    HA 5306   1.026   4.571  13.002
   42DOPE    HB 5307   1.154   4.689  12.960
   42DOPE    C2 5308   1.031   4.746  13.130
   42DOPE    HS 5309   0.979   4.818  13.063
   42DOPE   O21 5310   1.118   4.817  13.218
   42DOPE   C21 5311   1.233   4.860  13.176
   42DOPE   O22 5312   1.265   4.888  13.062
   42DOPE   C22 5313   1.326   4.863  13.298
   42DOPE   H2R 5314   1.264   4.880  13.388
   42DOPE   H2S 5315   1.395   4.949  13.285
   42DOPE    C3 5316   0.926   4.681  13.222
   42DOPE    HX 5317   0.847   4.637  13.158
   42DOPE    HY 5318   0.876   4.758  13.285
   42DOPE   O31 5319   0.986   4.577  13.300
   42DOPE   C31 5320   1.036   4.611  13.419
   42DOPE   O32 5321   1.034   4.722  13.469
   42DOPE   C32 5322   1.081   4.481  13.489
   42DOPE   H2X 5323   0.994   4.440  13.544
   42DOPE   H2Y 5324   1.109   4.408  13.410
   42DOPE   C23 5325   1.403   4.730  13.314
   42DOPE   H3R 5326   1.474   4.717  13.230
   42DOPE   H3S 5327   1.331   4.645  13.311
   42DOPE   C24 5328   1.479   4.721  13.446
   42DOPE   H4R 5329   1.406   4.735  13.529
   42DOPE   H4S 5330   1.555   4.802  13.451
   42DOPE   C25 5331   1.555   4.589  13.466
   42DOPE   H5R 5332   1.620   4.571  13.377
   42DOPE   H5S 5333   1.485   4.504  13.472
   42DOPE   C26 5334   1.643   4.593  13.592
   42DOPE   H6R 5335   1.723   4.669  13.578
   42DOPE   H6S 5336   1.691   4.493  13.601
   42DOPE   C27 5337   1.567   4.625  13.722
   42DOPE   H7R 5338   1.492   4.545  13.740
   42DOPE   H7S 5339   1.511   4.720  13.712
   42DOPE   C28 5340   1.660   4.638  13.844
   42DOPE   H8R 5341   1.600   4.669  13.932
   42DOPE   H8S 5342   1.734   4.719  13.825
   42DOPE   C29 5343   1.728   4.506  13.864
   42DOPE   H9R 5344   1.812   4.486  13.795
   42DOPE  C210 5345   1.693   4.410  13.951
   42DOPE  H10R 5346   1.749   4.316  13.952
   42DOPE  C211 5347   1.578   4.418  14.047
   42DOPE  H11R 5348   1.517   4.326  14.043
   42DOPE  H11S 5349   1.509   4.502  14.026
   42DOPE  C212 5350   1.636   4.436  14.188
   42DOPE  H12R 5351   1.692   4.532  14.194
   42DOPE  H12S 5352   1.708   4.354  14.209
   42DOPE  C213 5353   1.529   4.434  14.296
   42DOPE  H13R 5354   1.463   4.346  14.281
   42DOPE  H13S 5355   1.466   4.525  14.287
   42DOPE  C214 5356   1.593   4.427  14.435
   42DOPE  H14R 5357   1.641   4.524  14.459
   42DOPE  H14S 5358   1.672   4.349  14.434
   42DOPE  C215 5359   1.493   4.389  14.544
   42DOPE  H15R 5360   1.446   4.292  14.518
   42DOPE  H15S 5361   1.412   4.465  14.547
   42DOPE  C216 5362   1.559   4.381  14.682
   42DOPE  H16R 5363   1.670   4.374  14.672
   42DOPE  H16S 5364   1.522   4.290  14.733
   42DOPE  C217 5365   1.518   4.494  14.774
   42DOPE  H17R 5366   1.521   4.590  14.719
   42DOPE  H17S 5367   1.587   4.500  14.861
   42DOPE  C218 5368   1.379   4.464  14.825
   42DOPE  H18R 5369   1.375   4.395  14.912
   42DOPE  H18S 5370   1.320   4.415  14.745
   42DOPE  H18T 5371   1.326   4.558  14.853
   42DOPE   C33 5372   1.203   4.497  13.583
   42DOPE   H3X 5373   1.289   4.530  13.522
   42DOPE   H3Y 5374   1.229   4.397  13.624
   42DOPE   C34 5375   1.185   4.595  13.700
   42DOPE   H4X 5376   1.279   4.597  13.759
   42DOPE   H4Y 5377   1.169   4.698  13.661
   42DOPE   C35 5378   1.069   4.559  13.794
   42DOPE   H5X 5379   1.095   4.466  13.849
   42DOPE   H5Y 5380   0.978   4.537  13.734
   42DOPE   C36 5381   1.031   4.672  13.892
   42DOPE   H6X 5382   0.957   4.631  13.965
   42DOPE   H6Y 5383   0.979   4.751  13.833
   42DOPE   C37 5384   1.145   4.741  13.969
   42DOPE   H7X 5385   1.204   4.803  13.897
   42DOPE   H7Y 5386   1.099   4.810  14.042
   42DOPE   C38 5387   1.243   4.648  14.044
   42DOPE   H8X 5388   1.305   4.712  14.111
   42DOPE   H8Y 5389   1.313   4.604  13.970
   42DOPE   C39 5390   1.176   4.536  14.119
   42DOPE   H9X 5391   1.130   4.460  14.055
   42DOPE  C310 5392   1.166   4.522  14.252
   42DOPE  H10X 5393   1.113   4.433  14.291
   42DOPE  C311 5394   1.219   4.613  14.360
   42DOPE  H11X 5395   1.267   4.549  14.436
   42DOPE  H11Y 5396   1.297   4.683  14.323
   42DOPE  C312 5397   1.106   4.693  14.426
   42DOPE  H12X 5398   1.017   4.626  14.434
   42DOPE  H12Y 5399   1.077   4.778  14.360
   42DOPE  C313 5400   1.132   4.743  14.568
   42DOPE  H13X 5401   1.216   4.816  14.568
   42DOPE  H13Y 5402   1.041   4.795  14.604
   42DOPE  C314 5403   1.163   4.630  14.668
   42DOPE  H14X 5404   1.157   4.672  14.771
   42DOPE  H14Y 5405   1.268   4.600  14.647
   42DOPE  C315 5406   1.071   4.507  14.657
   42DOPE  H15X 5407   1.100   4.447  14.568
   42DOPE  H15Y 5408   0.970   4.548  14.639
   42DOPE  C316 5409   1.062   4.414  14.780
   42DOPE  H16X 5410   0.961   4.428  14.824
   42DOPE  H16Y 5411   1.133   4.447  14.858
   42DOPE  C317 5412   1.081   4.263  14.755
   42DOPE  H17X 5413   1.014   4.228  14.674
   42DOPE  H17Y 5414   1.185   4.243  14.721
   42DOPE  C318 5415   1.051   4.177  14.878
   42DOPE  H18X 5416   1.050   4.069  14.851
   42DOPE  H18Y 5417   1.128   4.193  14.957
   42DOPE  H18Z 5418   0.952   4.203  14.920
   43DOPE     N 5419   1.346   3.430  13.126
   43DOPE   HN1 5420   1.277   3.507  13.114
   43DOPE   HN2 5421   1.321   3.374  13.209
   43DOPE   HN3 5422   1.437   3.478  13.141
   43DOPE   C12 5423   1.356   3.342  13.003
   43DOPE  H12A 5424   1.445   3.277  13.017
   43DOPE  H12B 5425   1.373   3.409  12.916
   43DOPE   C11 5426   1.230   3.256  12.978
   43DOPE  H11A 5427   1.239   3.209  12.878
   43DOPE  H11B 5428   1.141   3.322  12.972
   43DOPE     P 5429   1.293   3.023  13.081
   43DOPE   O13 5430   1.411   3.046  13.166
   43DOPE   O14 5431   1.317   2.982  12.941
   43DOPE   O11 5432   1.195   2.917  13.146
   43DOPE   O12 5433   1.207   3.158  13.080
   43DOPE    C1 5434   1.077   2.951  13.218
   43DOPE    HA 5435   1.022   2.857  13.239
   43DOPE    HB 5436   1.010   3.017  13.159
   43DOPE    C2 5437   1.104   3.018  13.356
   43DOPE    HS 5438   1.140   3.121  13.335
   43DOPE   O21 5439   1.200   2.939  13.429
   43DOPE   C21 5440   1.297   3.009  13.487
   43DOPE   O22 5441   1.312   3.130  13.481
   43DOPE   C22 5442   1.392   2.915  13.562
   43DOPE   H2R 5443   1.466   2.978  13.616
   43DOPE   H2S 5444   1.445   2.856  13.485
   43DOPE    C3 5445   0.972   3.028  13.437
   43DOPE    HX 5446   0.931   2.925  13.439
   43DOPE    HY 5447   0.901   3.093  13.381
   43DOPE   O31 5448   0.992   3.081  13.570
   43DOPE   C31 5449   0.889   3.053  13.650
   43DOPE   O32 5450   0.790   2.991  13.617
   43DOPE   C32 5451   0.920   3.099  13.792
   43DOPE   H2X 5452   0.969   3.012  13.841
   43DOPE   H2Y 5453   0.993   3.183  13.790
   43DOPE   C23 5454   1.322   2.819  13.661
   43DOPE   H3R 5455   1.399   2.751  13.702
   43DOPE   H3S 5456   1.247   2.756  13.609
   43DOPE   C24 5457   1.254   2.890  13.780
   43DOPE   H4R 5458   1.163   2.942  13.744
   43DOPE   H4S 5459   1.322   2.966  13.823
   43DOPE   C25 5460   1.218   2.790  13.890
   43DOPE   H5R 5461   1.311   2.761  13.942
   43DOPE   H5S 5462   1.175   2.697  13.846
   43DOPE   C26 5463   1.117   2.844  13.993
   43DOPE   H6R 5464   1.014   2.818  13.960
   43DOPE   H6S 5465   1.124   2.955  13.998
   43DOPE   C27 5466   1.143   2.788  14.133
   43DOPE   H7R 5467   1.171   2.681  14.124
   43DOPE   H7S 5468   1.050   2.796  14.194
   43DOPE   C28 5469   1.255   2.866  14.204
   43DOPE   H8R 5470   1.217   2.969  14.221
   43DOPE   H8S 5471   1.341   2.874  14.134
   43DOPE   C29 5472   1.301   2.803  14.332
   43DOPE   H9R 5473   1.266   2.700  14.352
   43DOPE  C210 5474   1.381   2.865  14.420
   43DOPE  H10R 5475   1.411   2.814  14.512
   43DOPE  C211 5476   1.434   3.005  14.401
   43DOPE  H11R 5477   1.391   3.055  14.312
   43DOPE  H11S 5478   1.544   3.004  14.384
   43DOPE  C212 5479   1.402   3.094  14.522
   43DOPE  H12R 5480   1.297   3.080  14.556
   43DOPE  H12S 5481   1.416   3.200  14.492
   43DOPE  C213 5482   1.491   3.070  14.642
   43DOPE  H13R 5483   1.595   3.084  14.606
   43DOPE  H13S 5484   1.480   2.965  14.678
   43DOPE  C214 5485   1.469   3.172  14.753
   43DOPE  H14R 5486   1.399   3.251  14.718
   43DOPE  H14S 5487   1.566   3.222  14.770
   43DOPE  C215 5488   1.417   3.111  14.883
   43DOPE  H15R 5489   1.316   3.070  14.864
   43DOPE  H15S 5490   1.407   3.193  14.958
   43DOPE  C216 5491   1.508   3.001  14.940
   43DOPE  H16R 5492   1.614   3.031  14.928
   43DOPE  H16S 5493   1.495   2.907  14.882
   43DOPE  C217 5494   1.483   2.972  15.088
   43DOPE  H17R 5495   1.411   3.047  15.128
   43DOPE  H17S 5496   1.577   2.988  15.145
   43DOPE  C218 5497   1.435   2.829  15.117
   43DOPE  H18R 5498   1.330   2.814  15.084
   43DOPE  H18S 5499   1.440   2.809  15.226
   43DOPE  H18T 5500   1.496   2.754  15.064
   43DOPE   C33 5501   0.795   3.137  13.875
   43DOPE   H3X 5502   0.706   3.079  13.840
   43DOPE   H3Y 5503   0.773   3.244  13.860
   43DOPE   C34 5504   0.813   3.107  14.024
   43DOPE   H4X 5505   0.721   3.137  14.079
   43DOPE   H4Y 5506   0.827   2.998  14.039
   43DOPE   C35 5507   0.932   3.183  14.082
   43DOPE   H5X 5508   0.915   3.291  14.066
   43DOPE   H5Y 5509   1.024   3.156  14.026
   43DOPE   C36 5510   0.960   3.158  14.230
   43DOPE   H6X 5511   0.994   3.053  14.244
   43DOPE   H6Y 5512   0.869   3.174  14.292
   43DOPE   C37 5513   1.070   3.255  14.272
   43DOPE   H7X 5514   1.144   3.257  14.190
   43DOPE   H7Y 5515   1.026   3.357  14.284
   43DOPE   C38 5516   1.148   3.218  14.397
   43DOPE   H8X 5517   1.246   3.270  14.390
   43DOPE   H8Y 5518   1.168   3.109  14.392
   43DOPE   C39 5519   1.080   3.262  14.524
   43DOPE   H9X 5520   1.076   3.371  14.539
   43DOPE  C310 5521   1.028   3.181  14.616
   43DOPE  H10X 5522   0.982   3.228  14.705
   43DOPE  C311 5523   1.024   3.030  14.614
   43DOPE  H11X 5524   1.084   2.987  14.530
   43DOPE  H11Y 5525   1.071   2.991  14.707
   43DOPE  C312 5526   0.881   2.976  14.601
   43DOPE  H12X 5527   0.835   3.022  14.511
   43DOPE  H12Y 5528   0.819   3.006  14.688
   43DOPE  C313 5529   0.874   2.822  14.583
   43DOPE  H13X 5530   0.772   2.799  14.545
   43DOPE  H13Y 5531   0.946   2.791  14.505
   43DOPE  C314 5532   0.896   2.741  14.712
   43DOPE  H14X 5533   0.819   2.661  14.719
   43DOPE  H14Y 5534   0.880   2.809  14.799
   43DOPE  C315 5535   1.035   2.676  14.720
   43DOPE  H15X 5536   1.109   2.756  14.699
   43DOPE  H15Y 5537   1.047   2.599  14.641
   43DOPE  C316 5538   1.062   2.615  14.859
   43DOPE  H16X 5539   1.008   2.518  14.871
   43DOPE  H16Y 5540   1.014   2.680  14.935
   43DOPE  C317 5541   1.209   2.593  14.900
   43DOPE  H17X 5542   1.216   2.606  15.010
   43DOPE  H17Y 5543   1.238   2.488  14.880
   43DOPE  C318 5544   1.314   2.683  14.834
   43DOPE  H18X 5545   1.415   2.662  14.873
   43DOPE  H18Y 5546   1.315   2.666  14.724
   43DOPE  H18Z 5547   1.291   2.791  14.852
   44DOPE     N 5548   3.181   1.272  13.120
   44DOPE   HN1 5549   3.247   1.345  13.086
   44DOPE   HN2 5550   3.091   1.281  13.070
   44DOPE   HN3 5551   3.164   1.280  13.222
   44DOPE   C12 5552   3.239   1.136  13.090
   44DOPE  H12A 5553   3.284   1.095  13.183
   44DOPE  H12B 5554   3.320   1.149  13.015
   44DOPE   C11 5555   3.128   1.047  13.035
   44DOPE  H11A 5556   3.079   1.098  12.949
   44DOPE  H11B 5557   3.051   1.030  13.112
   44DOPE     P 5558   3.188   0.798  13.076
   44DOPE   O13 5559   3.267   0.693  13.010
   44DOPE   O14 5560   3.048   0.768  13.117
   44DOPE   O11 5561   3.269   0.855  13.200
   44DOPE   O12 5562   3.185   0.927  12.985
   44DOPE    C1 5563   3.315   0.767  13.303
   44DOPE    HA 5564   3.389   0.821  13.365
   44DOPE    HB 5565   3.367   0.678  13.261
   44DOPE    C2 5566   3.201   0.721  13.398
   44DOPE    HS 5567   3.143   0.645  13.342
   44DOPE   O21 5568   3.119   0.834  13.428
   44DOPE   C21 5569   3.004   0.806  13.482
   44DOPE   O22 5570   2.944   0.700  13.480
   44DOPE   C22 5571   2.962   0.928  13.563
   44DOPE   H2R 5572   2.864   0.906  13.611
   44DOPE   H2S 5573   2.950   1.014  13.493
   44DOPE    C3 5574   3.255   0.655  13.530
   44DOPE    HX 5575   3.347   0.600  13.501
   44DOPE    HY 5576   3.178   0.582  13.563
   44DOPE   O31 5577   3.290   0.750  13.634
   44DOPE   C31 5578   3.289   0.701  13.758
   44DOPE   O32 5579   3.261   0.587  13.789
   44DOPE   C32 5580   3.331   0.810  13.858
   44DOPE   H2X 5581   3.372   0.895  13.799
   44DOPE   H2Y 5582   3.239   0.844  13.909
   44DOPE   C23 5583   3.070   0.959  13.669
   44DOPE   H3R 5584   3.167   0.978  13.618
   44DOPE   H3S 5585   3.083   0.870  13.734
   44DOPE   C24 5586   3.034   1.077  13.758
   44DOPE   H4R 5587   2.985   1.038  13.850
   44DOPE   H4S 5588   2.952   1.128  13.704
   44DOPE   C25 5589   3.150   1.176  13.784
   44DOPE   H5R 5590   3.111   1.279  13.794
   44DOPE   H5S 5591   3.220   1.175  13.698
   44DOPE   C26 5592   3.228   1.154  13.915
   44DOPE   H6R 5593   3.306   1.232  13.924
   44DOPE   H6S 5594   3.281   1.057  13.907
   44DOPE   C27 5595   3.140   1.155  14.041
   44DOPE   H7R 5596   3.039   1.115  14.017
   44DOPE   H7S 5597   3.123   1.260  14.074
   44DOPE   C28 5598   3.199   1.069  14.153
   44DOPE   H8R 5599   3.275   1.128  14.209
   44DOPE   H8S 5600   3.252   0.983  14.106
   44DOPE   C29 5601   3.094   1.012  14.245
   44DOPE   H9R 5602   3.069   0.906  14.229
   44DOPE  C210 5603   3.028   1.082  14.339
   44DOPE  H10R 5604   2.953   1.031  14.400
   44DOPE  C211 5605   3.051   1.228  14.369
   44DOPE  H11R 5606   2.954   1.283  14.368
   44DOPE  H11S 5607   3.116   1.275  14.292
   44DOPE  C212 5608   3.121   1.245  14.504
   44DOPE  H12R 5609   3.158   1.349  14.516
   44DOPE  H12S 5610   3.211   1.180  14.506
   44DOPE  C213 5611   3.030   1.211  14.622
   44DOPE  H13R 5612   2.951   1.141  14.588
   44DOPE  H13S 5613   2.980   1.303  14.658
   44DOPE  C214 5614   3.107   1.143  14.735
   44DOPE  H14R 5615   3.165   1.219  14.792
   44DOPE  H14S 5616   3.179   1.075  14.686
   44DOPE  C215 5617   3.022   1.058  14.829
   44DOPE  H15R 5618   2.931   1.117  14.851
   44DOPE  H15S 5619   3.078   1.042  14.924
   44DOPE  C216 5620   2.975   0.922  14.774
   44DOPE  H16R 5621   3.014   0.839  14.838
   44DOPE  H16S 5622   3.017   0.908  14.672
   44DOPE  C217 5623   2.822   0.910  14.765
   44DOPE  H17R 5624   2.795   0.824  14.699
   44DOPE  H17S 5625   2.786   1.002  14.716
   44DOPE  C218 5626   2.749   0.894  14.899
   44DOPE  H18R 5627   2.768   0.794  14.943
   44DOPE  H18S 5628   2.639   0.905  14.884
   44DOPE  H18T 5629   2.780   0.972  14.971
   44DOPE   C33 5630   3.433   0.759  13.962
   44DOPE   H3X 5631   3.508   0.695  13.910
   44DOPE   H3Y 5632   3.378   0.694  14.034
   44DOPE   C34 5633   3.510   0.864  14.044
   44DOPE   H4X 5634   3.439   0.910  14.116
   44DOPE   H4Y 5635   3.586   0.811  14.106
   44DOPE   C35 5636   3.582   0.974  13.964
   44DOPE   H5X 5637   3.509   1.025  13.898
   44DOPE   H5Y 5638   3.660   0.928  13.899
   44DOPE   C36 5639   3.651   1.081  14.049
   44DOPE   H6X 5640   3.706   1.150  13.981
   44DOPE   H6Y 5641   3.726   1.034  14.117
   44DOPE   C37 5642   3.549   1.160  14.130
   44DOPE   H7X 5643   3.471   1.198  14.061
   44DOPE   H7Y 5644   3.501   1.089  14.201
   44DOPE   C38 5645   3.610   1.276  14.209
   44DOPE   H8X 5646   3.651   1.351  14.138
   44DOPE   H8Y 5647   3.697   1.239  14.267
   44DOPE   C39 5648   3.501   1.332  14.297
   44DOPE   H9X 5649   3.445   1.418  14.256
   44DOPE  C310 5650   3.465   1.280  14.415
   44DOPE  H10X 5651   3.384   1.326  14.473
   44DOPE  C311 5652   3.530   1.158  14.475
   44DOPE  H11X 5653   3.618   1.128  14.414
   44DOPE  H11Y 5654   3.570   1.183  14.575
   44DOPE  C312 5655   3.444   1.030  14.485
   44DOPE  H12X 5656   3.496   0.946  14.435
   44DOPE  H12Y 5657   3.347   1.042  14.432
   44DOPE  C313 5658   3.422   0.994  14.631
   44DOPE  H13X 5659   3.519   0.967  14.679
   44DOPE  H13Y 5660   3.385   1.085  14.682
   44DOPE  C314 5661   3.322   0.880  14.654
   44DOPE  H14X 5662   3.241   0.883  14.578
   44DOPE  H14Y 5663   3.275   0.902  14.752
   44DOPE  C315 5664   3.383   0.741  14.663
   44DOPE  H15X 5665   3.481   0.747  14.714
   44DOPE  H15Y 5666   3.402   0.703  14.560
   44DOPE  C316 5667   3.293   0.645  14.741
   44DOPE  H16X 5668   3.337   0.543  14.735
   44DOPE  H16Y 5669   3.192   0.640  14.695
   44DOPE  C317 5670   3.280   0.684  14.889
   44DOPE  H17X 5671   3.380   0.718  14.924
   44DOPE  H17Y 5672   3.212   0.772  14.900
   44DOPE  C318 5673   3.229   0.572  14.979
   44DOPE  H18X 5674   3.124   0.548  14.955
   44DOPE  H18Y 5675   3.291   0.480  14.967
   44DOPE  H18Z 5676   3.235   0.603  15.086
   45DOPE     N 5677   4.331   0.839  12.946
   45DOPE   HN1 5678   4.397   0.919  12.961
   45DOPE   HN2 5679   4.319   0.785  13.033
   45DOPE   HN3 5680   4.372   0.780  12.871
   45DOPE   C12 5681   4.198   0.892  12.901
   45DOPE  H12A 5682   4.190   0.879  12.791
   45DOPE  H12B 5683   4.197   1.001  12.926
   45DOPE   C11 5684   4.082   0.820  12.972
   45DOPE  H11A 5685   4.106   0.801  13.079
   45DOPE  H11B 5686   4.067   0.720  12.926
   45DOPE     P 5687   3.926   0.999  13.068
   45DOPE   O13 5688   3.790   1.051  13.046
   45DOPE   O14 5689   4.039   1.094  13.081
   45DOPE   O11 5690   3.928   0.903  13.194
   45DOPE   O12 5691   3.962   0.895  12.955
   45DOPE    C1 5692   3.806   0.886  13.267
   45DOPE    HA 5693   3.812   0.793  13.327
   45DOPE    HB 5694   3.718   0.874  13.201
   45DOPE    C2 5695   3.782   1.004  13.364
   45DOPE    HS 5696   3.792   1.099  13.306
   45DOPE   O21 5697   3.882   0.995  13.468
   45DOPE   C21 5698   3.922   1.110  13.518
   45DOPE   O22 5699   3.868   1.218  13.503
   45DOPE   C22 5700   4.055   1.086  13.592
   45DOPE   H2R 5701   4.126   1.045  13.517
   45DOPE   H2S 5702   4.038   1.008  13.671
   45DOPE    C3 5703   3.637   0.997  13.419
   45DOPE    HX 5704   3.568   1.018  13.335
   45DOPE    HY 5705   3.623   1.078  13.494
   45DOPE   O31 5706   3.613   0.863  13.466
   45DOPE   C31 5707   3.601   0.852  13.596
   45DOPE   O32 5708   3.575   0.942  13.673
   45DOPE   C32 5709   3.634   0.708  13.636
   45DOPE   H2X 5710   3.539   0.659  13.667
   45DOPE   H2Y 5711   3.672   0.654  13.546
   45DOPE   C23 5712   4.114   1.214  13.656
   45DOPE   H3R 5713   4.056   1.243  13.746
   45DOPE   H3S 5714   4.105   1.297  13.583
   45DOPE   C24 5715   4.264   1.202  13.690
   45DOPE   H4R 5716   4.302   1.302  13.720
   45DOPE   H4S 5717   4.319   1.173  13.598
   45DOPE   C25 5718   4.298   1.101  13.801
   45DOPE   H5R 5719   4.408   1.099  13.815
   45DOPE   H5S 5720   4.268   0.999  13.768
   45DOPE   C26 5721   4.233   1.129  13.938
   45DOPE   H6R 5722   4.262   1.049  14.009
   45DOPE   H6S 5723   4.122   1.124  13.926
   45DOPE   C27 5724   4.271   1.265  14.000
   45DOPE   H7R 5725   4.241   1.346  13.930
   45DOPE   H7S 5726   4.381   1.269  14.010
   45DOPE   C28 5727   4.206   1.289  14.138
   45DOPE   H8R 5728   4.254   1.379  14.183
   45DOPE   H8S 5729   4.230   1.203  14.203
   45DOPE   C29 5730   4.057   1.310  14.128
   45DOPE   H9R 5731   4.014   1.286  14.030
   45DOPE  C210 5732   3.974   1.351  14.225
   45DOPE  H10R 5733   3.867   1.360  14.201
   45DOPE  C211 5734   4.008   1.387  14.368
   45DOPE  H11R 5735   3.915   1.419  14.420
   45DOPE  H11S 5736   4.077   1.474  14.370
   45DOPE  C212 5737   4.071   1.274  14.453
   45DOPE  H12R 5738   4.080   1.306  14.558
   45DOPE  H12S 5739   4.175   1.258  14.416
   45DOPE  C213 5740   3.998   1.138  14.447
   45DOPE  H13R 5741   4.075   1.061  14.468
   45DOPE  H13S 5742   3.962   1.117  14.344
   45DOPE  C214 5743   3.884   1.119  14.548
   45DOPE  H14R 5744   3.807   1.196  14.526
   45DOPE  H14S 5745   3.920   1.138  14.651
   45DOPE  C215 5746   3.820   0.978  14.539
   45DOPE  H15R 5747   3.862   0.925  14.451
   45DOPE  H15S 5748   3.711   0.988  14.519
   45DOPE  C216 5749   3.828   0.887  14.663
   45DOPE  H16R 5750   3.930   0.849  14.679
   45DOPE  H16S 5751   3.763   0.799  14.641
   45DOPE  C217 5752   3.779   0.950  14.794
   45DOPE  H17R 5753   3.693   1.017  14.774
   45DOPE  H17S 5754   3.860   1.013  14.836
   45DOPE  C218 5755   3.738   0.843  14.894
   45DOPE  H18R 5756   3.826   0.782  14.925
   45DOPE  H18S 5757   3.663   0.774  14.850
   45DOPE  H18T 5758   3.693   0.888  14.985
   45DOPE   C33 5759   3.741   0.699  13.748
   45DOPE   H3X 5760   3.769   0.593  13.762
   45DOPE   H3Y 5761   3.700   0.735  13.845
   45DOPE   C34 5762   3.867   0.781  13.715
   45DOPE   H4X 5763   3.906   0.744  13.618
   45DOPE   H4Y 5764   3.841   0.888  13.702
   45DOPE   C35 5765   3.977   0.769  13.821
   45DOPE   H5X 5766   4.073   0.783  13.766
   45DOPE   H5Y 5767   3.978   0.666  13.863
   45DOPE   C36 5768   3.977   0.876  13.931
   45DOPE   H6X 5769   3.923   0.967  13.895
   45DOPE   H6Y 5770   4.082   0.906  13.947
   45DOPE   C37 5771   3.922   0.834  14.068
   45DOPE   H7X 5772   3.941   0.917  14.139
   45DOPE   H7Y 5773   3.812   0.821  14.061
   45DOPE   C38 5774   3.983   0.705  14.128
   45DOPE   H8X 5775   3.927   0.619  14.086
   45DOPE   H8Y 5776   3.959   0.705  14.237
   45DOPE   C39 5777   4.130   0.683  14.104
   45DOPE   H9X 5778   4.154   0.625  14.014
   45DOPE  C310 5779   4.232   0.729  14.180
   45DOPE  H10X 5780   4.335   0.704  14.152
   45DOPE  C311 5781   4.217   0.812  14.304
   45DOPE  H11X 5782   4.309   0.873  14.318
   45DOPE  H11Y 5783   4.133   0.884  14.293
   45DOPE  C312 5784   4.191   0.727  14.429
   45DOPE  H12X 5785   4.276   0.659  14.450
   45DOPE  H12Y 5786   4.103   0.662  14.412
   45DOPE  C313 5787   4.160   0.813  14.552
   45DOPE  H13X 5788   4.066   0.866  14.530
   45DOPE  H13Y 5789   4.143   0.746  14.639
   45DOPE  C314 5790   4.267   0.917  14.589
   45DOPE  H14X 5791   4.294   0.979  14.501
   45DOPE  H14Y 5792   4.357   0.861  14.622
   45DOPE  C315 5793   4.228   1.012  14.703
   45DOPE  H15X 5794   4.141   1.075  14.674
   45DOPE  H15Y 5795   4.313   1.079  14.724
   45DOPE  C316 5796   4.192   0.936  14.830
   45DOPE  H16X 5797   4.273   0.863  14.853
   45DOPE  H16Y 5798   4.098   0.879  14.816
   45DOPE  C317 5799   4.174   1.029  14.949
   45DOPE  H17X 5800   4.268   1.086  14.966
   45DOPE  H17Y 5801   4.093   1.102  14.930
   45DOPE  C318 5802   4.142   0.946  15.072
   45DOPE  H18X 5803   4.142   1.008  15.164
   45DOPE  H18Y 5804   4.042   0.898  15.059
   45DOPE  H18Z 5805   4.215   0.864  15.082
   46DOPE     N 5806   4.297   6.682  13.158
   46DOPE   HN1 5807   4.224   6.746  13.121
   46DOPE   HN2 5808   4.267   6.634  13.245
   46DOPE   HN3 5809   4.381   6.739  13.178
   46DOPE   C12 5810   4.346   6.586  13.053
   46DOPE  H12A 5811   4.330   6.634  12.954
   46DOPE  H12B 5812   4.288   6.492  13.058
   46DOPE   C11 5813   4.497   6.563  13.072
   46DOPE  H11A 5814   4.541   6.525  12.978
   46DOPE  H11B 5815   4.514   6.486  13.150
   46DOPE     P 5816   4.580   6.808  13.021
   46DOPE   O13 5817   4.498   6.914  13.083
   46DOPE   O14 5818   4.542   6.767  12.884
   46DOPE   O11 5819   4.735   6.836  13.032
   46DOPE   O12 5820   4.560   6.683  13.115
   46DOPE    C1 5821   4.826   6.725  13.013
   46DOPE    HA 5822   4.923   6.765  12.975
   46DOPE    HB 5823   4.789   6.656  12.934
   46DOPE    C2 5824   4.854   6.644  13.142
   46DOPE    HS 5825   4.761   6.633  13.202
   46DOPE   O21 5826   4.958   6.707  13.219
   46DOPE   C21 5827   4.916   6.796  13.306
   46DOPE   O22 5828   4.801   6.831  13.327
   46DOPE   C22 5829   5.036   6.851  13.382
   46DOPE   H2R 5830   5.013   6.955  13.411
   46DOPE   H2S 5831   5.124   6.851  13.313
   46DOPE    C3 5832   4.899   6.498  13.109
   46DOPE    HX 5833   4.982   6.506  13.036
   46DOPE    HY 5834   4.815   6.445  13.059
   46DOPE   O31 5835   4.946   6.426  13.224
   46DOPE   C31 5836   4.851   6.387  13.311
   46DOPE   O32 5837   4.731   6.399  13.294
   46DOPE   C32 5838   4.923   6.335  13.436
   46DOPE   H2X 5839   4.975   6.242  13.406
   46DOPE   H2Y 5840   4.997   6.413  13.464
   46DOPE   C23 5841   5.067   6.766  13.507
   46DOPE   H3R 5842   5.163   6.800  13.552
   46DOPE   H3S 5843   5.082   6.659  13.479
   46DOPE   C24 5844   4.958   6.778  13.614
   46DOPE   H4R 5845   4.873   6.713  13.582
   46DOPE   H4S 5846   4.919   6.882  13.619
   46DOPE   C25 5847   5.005   6.735  13.754
   46DOPE   H5R 5848   5.078   6.652  13.744
   46DOPE   H5S 5849   4.918   6.696  13.811
   46DOPE   C26 5850   5.066   6.852  13.833
   46DOPE   H6R 5851   5.078   6.939  13.765
   46DOPE   H6S 5852   5.168   6.823  13.868
   46DOPE   C27 5853   4.986   6.897  13.955
   46DOPE   H7R 5854   4.879   6.912  13.927
   46DOPE   H7S 5855   5.026   6.995  13.987
   46DOPE   C28 5856   4.996   6.799  14.073
   46DOPE   H8R 5857   5.103   6.771  14.088
   46DOPE   H8S 5858   4.943   6.705  14.047
   46DOPE   C29 5859   4.938   6.862  14.198
   46DOPE   H9R 5860   4.829   6.877  14.196
   46DOPE  C210 5861   5.007   6.898  14.307
   46DOPE  H10R 5862   4.953   6.946  14.391
   46DOPE  C211 5863   5.156   6.882  14.327
   46DOPE  H11R 5864   5.207   6.905  14.231
   46DOPE  H11S 5865   5.180   6.777  14.352
   46DOPE  C212 5866   5.219   6.972  14.436
   46DOPE  H12R 5867   5.176   7.075  14.431
   46DOPE  H12S 5868   5.327   6.981  14.412
   46DOPE  C213 5869   5.210   6.917  14.579
   46DOPE  H13R 5870   5.261   6.988  14.648
   46DOPE  H13S 5871   5.267   6.821  14.583
   46DOPE  C214 5872   5.067   6.891  14.629
   46DOPE  H14R 5873   5.018   6.820  14.559
   46DOPE  H14S 5874   5.009   6.986  14.629
   46DOPE  C215 5875   5.061   6.826  14.768
   46DOPE  H15R 5876   5.135   6.743  14.773
   46DOPE  H15S 5877   4.960   6.783  14.782
   46DOPE  C216 5878   5.088   6.922  14.882
   46DOPE  H16R 5879   5.013   7.004  14.877
   46DOPE  H16S 5880   5.189   6.967  14.869
   46DOPE  C217 5881   5.076   6.854  15.019
   46DOPE  H17R 5882   5.025   6.756  15.007
   46DOPE  H17S 5883   5.009   6.920  15.078
   46DOPE  C218 5884   5.206   6.835  15.095
   46DOPE  H18R 5885   5.190   6.777  15.189
   46DOPE  H18S 5886   5.255   6.931  15.121
   46DOPE  H18T 5887   5.280   6.782  15.031
   46DOPE   C33 5888   4.835   6.306  13.560
   46DOPE   H3X 5889   4.885   6.227  13.620
   46DOPE   H3Y 5890   4.737   6.264  13.528
   46DOPE   C34 5891   4.816   6.429  13.649
   46DOPE   H4X 5892   4.915   6.462  13.688
   46DOPE   H4Y 5893   4.776   6.510  13.585
   46DOPE   C35 5894   4.721   6.404  13.768
   46DOPE   H5X 5895   4.767   6.329  13.835
   46DOPE   H5Y 5896   4.627   6.361  13.728
   46DOPE   C36 5897   4.686   6.529  13.851
   46DOPE   H6X 5898   4.778   6.566  13.901
   46DOPE   H6Y 5899   4.615   6.500  13.931
   46DOPE   C37 5900   4.624   6.644  13.768
   46DOPE   H7X 5901   4.696   6.673  13.689
   46DOPE   H7Y 5902   4.533   6.607  13.716
   46DOPE   C38 5903   4.593   6.771  13.849
   46DOPE   H8X 5904   4.579   6.854  13.776
   46DOPE   H8Y 5905   4.683   6.798  13.908
   46DOPE   C39 5906   4.469   6.760  13.934
   46DOPE   H9X 5907   4.374   6.768  13.878
   46DOPE  C310 5908   4.464   6.741  14.067
   46DOPE  H10X 5909   4.366   6.735  14.116
   46DOPE  C311 5910   4.582   6.726  14.160
   46DOPE  H11X 5911   4.677   6.718  14.103
   46DOPE  H11Y 5912   4.590   6.815  14.226
   46DOPE  C312 5913   4.570   6.603  14.251
   46DOPE  H12X 5914   4.554   6.511  14.191
   46DOPE  H12Y 5915   4.483   6.617  14.318
   46DOPE  C313 5916   4.696   6.585  14.338
   46DOPE  H13X 5917   4.727   6.683  14.379
   46DOPE  H13Y 5918   4.671   6.519  14.424
   46DOPE  C314 5919   4.813   6.523  14.261
   46DOPE  H14X 5920   4.827   6.577  14.165
   46DOPE  H14Y 5921   4.788   6.417  14.235
   46DOPE  C315 5922   4.945   6.526  14.339
   46DOPE  H15X 5923   4.969   6.630  14.370
   46DOPE  H15Y 5924   5.027   6.491  14.273
   46DOPE  C316 5925   4.937   6.437  14.463
   46DOPE  H16X 5926   4.899   6.339  14.427
   46DOPE  H16Y 5927   4.864   6.478  14.536
   46DOPE  C317 5928   5.070   6.411  14.531
   46DOPE  H17X 5929   5.053   6.332  14.608
   46DOPE  H17Y 5930   5.140   6.368  14.456
   46DOPE  C318 5931   5.130   6.535  14.597
   46DOPE  H18X 5932   5.056   6.577  14.667
   46DOPE  H18Y 5933   5.222   6.510  14.653
   46DOPE  H18Z 5934   5.155   6.611  14.520
   47DOPE     N 5935   1.478   6.179  13.118
   47DOPE   HN1 5936   1.506   6.279  13.108
   47DOPE   HN2 5937   1.374   6.176  13.111
   47DOPE   HN3 5938   1.506   6.143  13.211
   47DOPE   C12 5939   1.529   6.093  13.006
   47DOPE  H12A 5940   1.635   6.067  13.027
   47DOPE  H12B 5941   1.522   6.150  12.911
   47DOPE   C11 5942   1.444   5.966  12.996
   47DOPE  H11A 5943   1.445   5.918  13.096
   47DOPE  H11B 5944   1.490   5.895  12.925
   47DOPE     P 5945   1.189   5.916  13.020
   47DOPE   O13 5946   1.087   5.905  12.915
   47DOPE   O14 5947   1.160   5.992  13.143
   47DOPE   O11 5948   1.253   5.777  13.060
   47DOPE   O12 5949   1.312   5.995  12.954
   47DOPE    C1 5950   1.276   5.677  12.960
   47DOPE    HA 5951   1.325   5.721  12.871
   47DOPE    HB 5952   1.180   5.634  12.925
   47DOPE    C2 5953   1.373   5.563  13.008
   47DOPE    HS 5954   1.403   5.504  12.918
   47DOPE   O21 5955   1.319   5.473  13.105
   47DOPE   C21 5956   1.194   5.480  13.143
   47DOPE   O22 5957   1.095   5.467  13.073
   47DOPE   C22 5958   1.199   5.491  13.295
   47DOPE   H2R 5959   1.293   5.544  13.322
   47DOPE   H2S 5960   1.206   5.388  13.336
   47DOPE    C3 5961   1.503   5.617  13.075
   47DOPE    HX 5962   1.551   5.687  13.003
   47DOPE    HY 5963   1.566   5.527  13.086
   47DOPE   O31 5964   1.482   5.675  13.207
   47DOPE   C31 5965   1.567   5.770  13.242
   47DOPE   O32 5966   1.661   5.809  13.174
   47DOPE   C32 5967   1.522   5.843  13.369
   47DOPE   H2X 5968   1.616   5.882  13.416
   47DOPE   H2Y 5969   1.458   5.929  13.339
   47DOPE   C23 5970   1.083   5.568  13.358
   47DOPE   H3R 5971   0.985   5.521  13.335
   47DOPE   H3S 5972   1.081   5.672  13.318
   47DOPE   C24 5973   1.105   5.572  13.510
   47DOPE   H4R 5974   1.208   5.607  13.529
   47DOPE   H4S 5975   1.101   5.468  13.549
   47DOPE   C25 5976   1.006   5.662  13.585
   47DOPE   H5R 5977   0.904   5.649  13.543
   47DOPE   H5S 5978   1.035   5.768  13.569
   47DOPE   C26 5979   1.002   5.629  13.735
   47DOPE   H6R 5980   1.103   5.599  13.771
   47DOPE   H6S 5981   0.932   5.545  13.750
   47DOPE   C27 5982   0.951   5.745  13.821
   47DOPE   H7R 5983   0.864   5.787  13.764
   47DOPE   H7S 5984   1.028   5.824  13.829
   47DOPE   C28 5985   0.902   5.704  13.961
   47DOPE   H8R 5986   0.813   5.639  13.949
   47DOPE   H8S 5987   0.866   5.796  14.012
   47DOPE   C29 5988   1.005   5.631  14.046
   47DOPE   H9R 5989   1.022   5.526  14.017
   47DOPE  C210 5990   1.084   5.685  14.140
   47DOPE  H10R 5991   1.154   5.623  14.198
   47DOPE  C211 5992   1.082   5.831  14.172
   47DOPE  H11R 5993   0.984   5.863  14.212
   47DOPE  H11S 5994   1.090   5.876  14.071
   47DOPE  C212 5995   1.197   5.894  14.254
   47DOPE  H12R 5996   1.214   5.996  14.214
   47DOPE  H12S 5997   1.292   5.838  14.241
   47DOPE  C213 5998   1.163   5.913  14.402
   47DOPE  H13R 5999   1.201   5.826  14.460
   47DOPE  H13S 6000   1.052   5.910  14.411
   47DOPE  C214 6001   1.211   6.047  14.463
   47DOPE  H14R 6002   1.122   6.109  14.486
   47DOPE  H14S 6003   1.271   6.104  14.390
   47DOPE  C215 6004   1.293   6.027  14.592
   47DOPE  H15R 6005   1.398   6.009  14.561
   47DOPE  H15S 6006   1.256   5.937  14.644
   47DOPE  C216 6007   1.290   6.143  14.693
   47DOPE  H16R 6008   1.271   6.239  14.641
   47DOPE  H16S 6009   1.390   6.149  14.742
   47DOPE  C217 6010   1.187   6.121  14.805
   47DOPE  H17R 6011   1.202   6.021  14.851
   47DOPE  H17S 6012   1.085   6.121  14.761
   47DOPE  C218 6013   1.191   6.229  14.913
   47DOPE  H18R 6014   1.201   6.330  14.867
   47DOPE  H18S 6015   1.278   6.212  14.981
   47DOPE  H18T 6016   1.098   6.227  14.973
   47DOPE   C33 6017   1.446   5.761  13.475
   47DOPE   H3X 6018   1.490   5.660  13.484
   47DOPE   H3Y 6019   1.340   5.750  13.443
   47DOPE   C34 6020   1.451   5.827  13.614
   47DOPE   H4X 6021   1.557   5.841  13.644
   47DOPE   H4Y 6022   1.405   5.928  13.609
   47DOPE   C35 6023   1.380   5.743  13.722
   47DOPE   H5X 6024   1.440   5.652  13.741
   47DOPE   H5Y 6025   1.282   5.711  13.682
   47DOPE   C36 6026   1.348   5.815  13.854
   47DOPE   H6X 6027   1.310   5.741  13.929
   47DOPE   H6Y 6028   1.262   5.882  13.833
   47DOPE   C37 6029   1.460   5.899  13.918
   47DOPE   H7X 6030   1.520   5.951  13.840
   47DOPE   H7Y 6031   1.412   5.977  13.979
   47DOPE   C38 6032   1.552   5.820  14.013
   47DOPE   H8X 6033   1.488   5.780  14.095
   47DOPE   H8Y 6034   1.623   5.891  14.060
   47DOPE   C39 6035   1.629   5.710  13.943
   47DOPE   H9X 6036   1.707   5.746  13.874
   47DOPE  C310 6037   1.607   5.578  13.955
   47DOPE  H10X 6038   1.668   5.508  13.896
   47DOPE  C311 6039   1.502   5.514  14.042
   47DOPE  H11X 6040   1.405   5.568  14.031
   47DOPE  H11Y 6041   1.483   5.410  14.008
   47DOPE  C312 6042   1.539   5.513  14.191
   47DOPE  H12X 6043   1.558   5.617  14.225
   47DOPE  H12Y 6044   1.633   5.455  14.206
   47DOPE  C313 6045   1.427   5.451  14.275
   47DOPE  H13X 6046   1.333   5.506  14.254
   47DOPE  H13Y 6047   1.413   5.346  14.243
   47DOPE  C314 6048   1.452   5.453  14.427
   47DOPE  H14X 6049   1.546   5.397  14.450
   47DOPE  H14Y 6050   1.368   5.401  14.477
   47DOPE  C315 6051   1.462   5.595  14.484
   47DOPE  H15X 6052   1.380   5.657  14.442
   47DOPE  H15Y 6053   1.558   5.642  14.452
   47DOPE  C316 6054   1.453   5.598  14.637
   47DOPE  H16X 6055   1.527   5.529  14.682
   47DOPE  H16Y 6056   1.351   5.564  14.667
   47DOPE  C317 6057   1.476   5.740  14.691
   47DOPE  H17X 6058   1.583   5.766  14.680
   47DOPE  H17Y 6059   1.420   5.808  14.623
   47DOPE  C318 6060   1.431   5.763  14.835
   47DOPE  H18X 6061   1.437   5.870  14.861
   47DOPE  H18Y 6062   1.326   5.730  14.849
   47DOPE  H18Z 6063   1.496   5.706  14.905
   48DOPE     N 6064   6.352   1.752  12.778
   48DOPE   HN1 6065   6.257   1.715  12.756
   48DOPE   HN2 6066   6.340   1.839  12.834
   48DOPE   HN3 6067   6.401   1.781  12.691
   48DOPE   C12 6068   6.431   1.657  12.864
   48DOPE  H12A 6069   6.474   1.578  12.799
   48DOPE  H12B 6070   6.360   1.611  12.935
   48DOPE   C11 6071   6.540   1.733  12.942
   48DOPE  H11A 6072   6.631   1.738  12.879
   48DOPE  H11B 6073   6.567   1.675  13.032
   48DOPE     P 6074   6.400   1.896  13.093
   48DOPE   O13 6075   6.283   1.808  13.070
   48DOPE   O14 6076   6.375   2.042  13.091
   48DOPE   O11 6077   6.484   1.851  13.218
   48DOPE   O12 6078   6.501   1.867  12.973
   48DOPE    C1 6079   6.622   1.888  13.223
   48DOPE    HA 6080   6.634   1.998  13.217
   48DOPE    HB 6081   6.679   1.842  13.140
   48DOPE    C2 6082   6.689   1.840  13.354
   48DOPE    HS 6083   6.799   1.842  13.339
   48DOPE   O21 6084   6.648   1.709  13.393
   48DOPE   C21 6085   6.679   1.610  13.313
   48DOPE   O22 6086   6.751   1.615  13.215
   48DOPE   C22 6087   6.617   1.483  13.369
   48DOPE   H2R 6088   6.664   1.465  13.468
   48DOPE   H2S 6089   6.642   1.399  13.301
   48DOPE    C3 6090   6.655   1.934  13.472
   48DOPE    HX 6091   6.700   2.034  13.452
   48DOPE    HY 6092   6.707   1.891  13.560
   48DOPE   O31 6093   6.514   1.953  13.496
   48DOPE   C31 6094   6.463   1.876  13.590
   48DOPE   O32 6095   6.521   1.786  13.649
   48DOPE   C32 6096   6.322   1.924  13.624
   48DOPE   H2X 6097   6.292   2.001  13.549
   48DOPE   H2Y 6098   6.254   1.837  13.614
   48DOPE   C23 6099   6.464   1.494  13.388
   48DOPE   H3R 6100   6.417   1.512  13.288
   48DOPE   H3S 6101   6.439   1.581  13.452
   48DOPE   C24 6102   6.402   1.367  13.449
   48DOPE   H4R 6103   6.433   1.279  13.387
   48DOPE   H4S 6104   6.292   1.374  13.442
   48DOPE   C25 6105   6.440   1.340  13.596
   48DOPE   H5R 6106   6.550   1.330  13.606
   48DOPE   H5S 6107   6.396   1.242  13.624
   48DOPE   C26 6108   6.389   1.447  13.694
   48DOPE   H6R 6109   6.281   1.462  13.672
   48DOPE   H6S 6110   6.440   1.543  13.675
   48DOPE   C27 6111   6.402   1.406  13.842
   48DOPE   H7R 6112   6.378   1.298  13.850
   48DOPE   H7S 6113   6.324   1.461  13.900
   48DOPE   C28 6114   6.540   1.432  13.907
   48DOPE   H8R 6115   6.618   1.382  13.845
   48DOPE   H8S 6116   6.542   1.381  14.006
   48DOPE   C29 6117   6.572   1.579  13.924
   48DOPE   H9R 6118   6.564   1.635  13.829
   48DOPE  C210 6119   6.609   1.648  14.034
   48DOPE  H10R 6120   6.623   1.756  14.022
   48DOPE  C211 6121   6.631   1.600  14.176
   48DOPE  H11R 6122   6.739   1.581  14.194
   48DOPE  H11S 6123   6.588   1.499  14.192
   48DOPE  C212 6124   6.597   1.696  14.293
   48DOPE  H12R 6125   6.624   1.645  14.387
   48DOPE  H12S 6126   6.488   1.716  14.299
   48DOPE  C213 6127   6.670   1.832  14.288
   48DOPE  H13R 6128   6.649   1.880  14.189
   48DOPE  H13S 6129   6.779   1.815  14.296
   48DOPE  C214 6130   6.623   1.930  14.396
   48DOPE  H14R 6131   6.512   1.938  14.395
   48DOPE  H14S 6132   6.664   2.031  14.371
   48DOPE  C215 6133   6.671   1.893  14.537
   48DOPE  H15R 6134   6.780   1.870  14.532
   48DOPE  H15S 6135   6.618   1.802  14.571
   48DOPE  C216 6136   6.649   2.007  14.638
   48DOPE  H16R 6137   6.544   2.043  14.629
   48DOPE  H16S 6138   6.715   2.092  14.609
   48DOPE  C217 6139   6.677   1.971  14.784
   48DOPE  H17R 6140   6.592   1.911  14.824
   48DOPE  H17S 6141   6.679   2.064  14.844
   48DOPE  C218 6142   6.805   1.892  14.809
   48DOPE  H18R 6143   6.809   1.800  14.746
   48DOPE  H18S 6144   6.811   1.861  14.915
   48DOPE  H18T 6145   6.894   1.953  14.784
   48DOPE   C33 6146   6.315   1.983  13.766
   48DOPE   H3X 6147   6.218   2.035  13.777
   48DOPE   H3Y 6148   6.395   2.058  13.781
   48DOPE   C34 6149   6.324   1.875  13.875
   48DOPE   H4X 6150   6.252   1.794  13.851
   48DOPE   H4Y 6151   6.426   1.830  13.875
   48DOPE   C35 6152   6.295   1.930  14.016
   48DOPE   H5X 6153   6.190   1.963  14.020
   48DOPE   H5Y 6154   6.361   2.018  14.034
   48DOPE   C36 6155   6.321   1.827  14.127
   48DOPE   H6X 6156   6.285   1.867  14.223
   48DOPE   H6Y 6157   6.432   1.817  14.134
   48DOPE   C37 6158   6.260   1.689  14.099
   48DOPE   H7X 6159   6.164   1.707  14.045
   48DOPE   H7Y 6160   6.322   1.634  14.025
   48DOPE   C38 6161   6.228   1.604  14.225
   48DOPE   H8X 6162   6.137   1.542  14.205
   48DOPE   H8Y 6163   6.206   1.669  14.312
   48DOPE   C39 6164   6.340   1.510  14.251
   48DOPE   H9X 6165   6.390   1.477  14.158
   48DOPE  C310 6166   6.387   1.460  14.366
   48DOPE  H10X 6167   6.474   1.394  14.362
   48DOPE  C311 6168   6.336   1.485  14.505
   48DOPE  H11X 6169   6.242   1.544  14.506
   48DOPE  H11Y 6170   6.316   1.388  14.555
   48DOPE  C312 6171   6.442   1.556  14.587
   48DOPE  H12X 6172   6.455   1.658  14.546
   48DOPE  H12Y 6173   6.541   1.505  14.575
   48DOPE  C313 6174   6.403   1.559  14.735
   48DOPE  H13X 6175   6.294   1.539  14.744
   48DOPE  H13Y 6176   6.457   1.477  14.788
   48DOPE  C314 6177   6.434   1.694  14.796
   48DOPE  H14X 6178   6.540   1.717  14.774
   48DOPE  H14Y 6179   6.423   1.689  14.907
   48DOPE  C315 6180   6.343   1.807  14.741
   48DOPE  H15X 6181   6.345   1.810  14.630
   48DOPE  H15Y 6182   6.386   1.903  14.777
   48DOPE  C316 6183   6.198   1.796  14.789
   48DOPE  H16X 6184   6.200   1.737  14.883
   48DOPE  H16Y 6185   6.136   1.738  14.717
   48DOPE  C317 6186   6.136   1.933  14.820
   48DOPE  H17X 6187   6.059   1.923  14.900
   48DOPE  H17Y 6188   6.217   1.996  14.862
   48DOPE  C318 6189   6.076   2.007  14.701
   48DOPE  H18X 6190   5.975   1.968  14.676
   48DOPE  H18Y 6191   6.064   2.116  14.723
   48DOPE  H18Z 6192   6.140   1.995  14.611
   49DOPE     N 6193   1.813   6.295  12.789
   49DOPE   HN1 6194   1.812   6.208  12.846
   49DOPE   HN2 6195   1.761   6.281  12.701
   49DOPE   HN3 6196   1.913   6.314  12.766
   49DOPE   C12 6197   1.756   6.413  12.864
   49DOPE  H12A 6198   1.653   6.388  12.896
   49DOPE  H12B 6199   1.753   6.499  12.794
   49DOPE   C11 6200   1.840   6.449  12.987
   49DOPE  H11A 6201   1.948   6.456  12.960
   49DOPE  H11B 6202   1.828   6.370  13.064
   49DOPE     P 6203   1.827   6.631  13.179
   49DOPE   O13 6204   1.698   6.638  13.251
   49DOPE   O14 6205   1.910   6.752  13.167
   49DOPE   O11 6206   1.913   6.515  13.243
   49DOPE   O12 6207   1.795   6.575  13.034
   49DOPE    C1 6208   2.056   6.518  13.240
   49DOPE    HA 6209   2.096   6.618  13.266
   49DOPE    HB 6210   2.092   6.493  13.137
   49DOPE    C2 6211   2.120   6.414  13.338
   49DOPE    HS 6212   2.213   6.373  13.293
   49DOPE   O21 6213   2.030   6.306  13.369
   49DOPE   C21 6214   1.983   6.238  13.267
   49DOPE   O22 6215   2.023   6.240  13.151
   49DOPE   C22 6216   1.861   6.158  13.312
   49DOPE   H2R 6217   1.898   6.078  13.380
   49DOPE   H2S 6218   1.816   6.111  13.222
   49DOPE    C3 6219   2.161   6.482  13.472
   49DOPE    HX 6220   2.254   6.540  13.453
   49DOPE    HY 6221   2.185   6.404  13.548
   49DOPE   O31 6222   2.060   6.575  13.517
   49DOPE   C31 6223   1.963   6.523  13.592
   49DOPE   O32 6224   1.966   6.415  13.649
   49DOPE   C32 6225   1.848   6.623  13.602
   49DOPE   H2X 6226   1.866   6.681  13.695
   49DOPE   H2Y 6227   1.852   6.693  13.515
   49DOPE   C23 6228   1.756   6.244  13.386
   49DOPE   H3R 6229   1.721   6.329  13.323
   49DOPE   H3S 6230   1.803   6.290  13.476
   49DOPE   C24 6231   1.637   6.159  13.433
   49DOPE   H4R 6232   1.677   6.073  13.490
   49DOPE   H4S 6233   1.583   6.119  13.345
   49DOPE   C25 6234   1.539   6.233  13.524
   49DOPE   H5R 6235   1.437   6.192  13.514
   49DOPE   H5S 6236   1.535   6.341  13.498
   49DOPE   C26 6237   1.582   6.216  13.670
   49DOPE   H6R 6238   1.688   6.248  13.679
   49DOPE   H6S 6239   1.579   6.108  13.697
   49DOPE   C27 6240   1.494   6.294  13.768
   49DOPE   H7R 6241   1.389   6.260  13.754
   49DOPE   H7S 6242   1.496   6.402  13.743
   49DOPE   C28 6243   1.533   6.274  13.915
   49DOPE   H8R 6244   1.519   6.167  13.942
   49DOPE   H8S 6245   1.464   6.333  13.980
   49DOPE   C29 6246   1.675   6.315  13.938
   49DOPE   H9R 6247   1.725   6.366  13.854
   49DOPE  C210 6248   1.744   6.296  14.050
   49DOPE  H10R 6249   1.848   6.332  14.054
   49DOPE  C211 6250   1.693   6.233  14.177
   49DOPE  H11R 6251   1.742   6.134  14.193
   49DOPE  H11S 6252   1.583   6.216  14.176
   49DOPE  C212 6253   1.728   6.328  14.292
   49DOPE  H12R 6254   1.663   6.418  14.285
   49DOPE  H12S 6255   1.834   6.359  14.282
   49DOPE  C213 6256   1.717   6.270  14.433
   49DOPE  H13R 6257   1.740   6.162  14.422
   49DOPE  H13S 6258   1.613   6.278  14.468
   49DOPE  C214 6259   1.814   6.343  14.529
   49DOPE  H14R 6260   1.817   6.450  14.501
   49DOPE  H14S 6261   1.919   6.308  14.518
   49DOPE  C215 6262   1.779   6.335  14.678
   49DOPE  H15R 6263   1.696   6.263  14.694
   49DOPE  H15S 6264   1.742   6.437  14.704
   49DOPE  C216 6265   1.893   6.308  14.777
   49DOPE  H16R 6266   1.917   6.199  14.776
   49DOPE  H16S 6267   1.853   6.331  14.879
   49DOPE  C217 6268   2.023   6.388  14.757
   49DOPE  H17R 6269   2.081   6.340  14.675
   49DOPE  H17S 6270   2.083   6.377  14.850
   49DOPE  C218 6271   2.009   6.537  14.724
   49DOPE  H18R 6272   2.108   6.587  14.734
   49DOPE  H18S 6273   1.937   6.588  14.791
   49DOPE  H18T 6274   1.974   6.551  14.619
   49DOPE   C33 6275   1.711   6.551  13.603
   49DOPE   H3X 6276   1.714   6.465  13.673
   49DOPE   H3Y 6277   1.692   6.511  13.501
   49DOPE   C34 6278   1.592   6.640  13.642
   49DOPE   H4X 6279   1.593   6.724  13.569
   49DOPE   H4Y 6280   1.496   6.587  13.629
   49DOPE   C35 6281   1.603   6.699  13.783
   49DOPE   H5X 6282   1.583   6.808  13.775
   49DOPE   H5Y 6283   1.708   6.689  13.819
   49DOPE   C36 6284   1.507   6.647  13.891
   49DOPE   H6X 6285   1.536   6.545  13.920
   49DOPE   H6Y 6286   1.403   6.643  13.851
   49DOPE   C37 6287   1.509   6.737  14.016
   49DOPE   H7X 6288   1.453   6.830  13.994
   49DOPE   H7Y 6289   1.456   6.685  14.098
   49DOPE   C38 6290   1.650   6.777  14.064
   49DOPE   H8X 6291   1.637   6.837  14.157
   49DOPE   H8Y 6292   1.694   6.848  13.991
   49DOPE   C39 6293   1.745   6.661  14.084
   49DOPE   H9X 6294   1.771   6.606  13.993
   49DOPE  C310 6295   1.799   6.618  14.199
   49DOPE  H10X 6296   1.874   6.538  14.194
   49DOPE  C311 6297   1.776   6.676  14.335
   49DOPE  H11X 6298   1.840   6.630  14.414
   49DOPE  H11Y 6299   1.818   6.777  14.319
   49DOPE  C312 6300   1.632   6.698  14.387
   49DOPE  H12X 6301   1.561   6.699  14.302
   49DOPE  H12Y 6302   1.628   6.798  14.436
   49DOPE  C313 6303   1.574   6.601  14.491
   49DOPE  H13X 6304   1.465   6.596  14.474
   49DOPE  H13Y 6305   1.612   6.498  14.474
   49DOPE  C314 6306   1.595   6.642  14.638
   49DOPE  H14X 6307   1.560   6.746  14.655
   49DOPE  H14Y 6308   1.703   6.639  14.661
   49DOPE  C315 6309   1.517   6.546  14.729
   49DOPE  H15X 6310   1.525   6.445  14.685
   49DOPE  H15Y 6311   1.408   6.571  14.729
   49DOPE  C316 6312   1.570   6.540  14.873
   49DOPE  H16X 6313   1.528   6.623  14.932
   49DOPE  H16Y 6314   1.680   6.551  14.873
   49DOPE  C317 6315   1.535   6.405  14.937
   49DOPE  H17X 6316   1.425   6.394  14.936
   49DOPE  H17Y 6317   1.576   6.322  14.876
   49DOPE  C318 6318   1.587   6.393  15.079
   49DOPE  H18X 6319   1.539   6.308  15.131
   49DOPE  H18Y 6320   1.698   6.379  15.081
   49DOPE  H18Z 6321   1.562   6.486  15.136
   50DOPE     N 6322   0.308   4.281  12.955
   50DOPE   HN1 6323   0.320   4.179  12.974
   50DOPE   HN2 6324   0.227   4.297  12.892
   50DOPE   HN3 6325   0.394   4.319  12.910
   50DOPE   C12 6326   0.285   4.363  13.079
   50DOPE  H12A 6327   0.359   4.332  13.156
   50DOPE  H12B 6328   0.182   4.342  13.116
   50DOPE   C11 6329   0.301   4.511  13.042
   50DOPE  H11A 6330   0.291   4.575  13.131
   50DOPE  H11B 6331   0.216   4.534  12.975
   50DOPE     P 6332   0.560   4.547  13.049
   50DOPE   O13 6333   0.541   4.630  13.168
   50DOPE   O14 6334   0.666   4.585  12.954
   50DOPE   O11 6335   0.576   4.395  13.091
   50DOPE   O12 6336   0.423   4.537  12.970
   50DOPE    C1 6337   0.686   4.349  13.170
   50DOPE    HA 6338   0.779   4.406  13.150
   50DOPE    HB 6339   0.707   4.245  13.140
   50DOPE    C2 6340   0.661   4.345  13.325
   50DOPE    HS 6341   0.709   4.253  13.365
   50DOPE   O21 6342   0.522   4.353  13.360
   50DOPE   C21 6343   0.468   4.236  13.382
   50DOPE   O22 6344   0.495   4.132  13.324
   50DOPE   C22 6345   0.370   4.251  13.497
   50DOPE   H2R 6346   0.324   4.151  13.515
   50DOPE   H2S 6347   0.289   4.321  13.466
   50DOPE    C3 6348   0.730   4.462  13.398
   50DOPE    HX 6349   0.699   4.558  13.352
   50DOPE    HY 6350   0.837   4.441  13.377
   50DOPE   O31 6351   0.713   4.458  13.542
   50DOPE   C31 6352   0.691   4.574  13.605
   50DOPE   O32 6353   0.684   4.683  13.554
   50DOPE   C32 6354   0.675   4.543  13.754
   50DOPE   H2X 6355   0.581   4.485  13.767
   50DOPE   H2Y 6356   0.763   4.481  13.783
   50DOPE   C23 6357   0.436   4.302  13.628
   50DOPE   H3R 6358   0.358   4.299  13.708
   50DOPE   H3S 6359   0.463   4.409  13.613
   50DOPE   C24 6360   0.559   4.222  13.676
   50DOPE   H4R 6361   0.648   4.243  13.613
   50DOPE   H4S 6362   0.538   4.114  13.664
   50DOPE   C25 6363   0.595   4.239  13.825
   50DOPE   H5R 6364   0.514   4.294  13.878
   50DOPE   H5S 6365   0.688   4.298  13.833
   50DOPE   C26 6366   0.622   4.108  13.900
   50DOPE   H6R 6367   0.703   4.053  13.848
   50DOPE   H6S 6368   0.531   4.045  13.899
   50DOPE   C27 6369   0.665   4.137  14.044
   50DOPE   H7R 6370   0.677   4.246  14.059
   50DOPE   H7S 6371   0.765   4.091  14.062
   50DOPE   C28 6372   0.567   4.082  14.148
   50DOPE   H8R 6373   0.555   3.972  14.133
   50DOPE   H8S 6374   0.468   4.129  14.129
   50DOPE   C29 6375   0.612   4.111  14.288
   50DOPE   H9R 6376   0.686   4.042  14.331
   50DOPE  C210 6377   0.576   4.216  14.362
   50DOPE  H10R 6378   0.614   4.223  14.465
   50DOPE  C211 6379   0.483   4.328  14.321
   50DOPE  H11R 6380   0.399   4.290  14.259
   50DOPE  H11S 6381   0.534   4.402  14.256
   50DOPE  C212 6382   0.431   4.398  14.448
   50DOPE  H12R 6383   0.512   4.451  14.501
   50DOPE  H12S 6384   0.392   4.321  14.518
   50DOPE  C213 6385   0.320   4.498  14.419
   50DOPE  H13R 6386   0.256   4.512  14.509
   50DOPE  H13S 6387   0.258   4.453  14.339
   50DOPE  C214 6388   0.375   4.633  14.372
   50DOPE  H14R 6389   0.292   4.696  14.334
   50DOPE  H14S 6390   0.440   4.611  14.285
   50DOPE  C215 6391   0.441   4.722  14.478
   50DOPE  H15R 6392   0.459   4.821  14.431
   50DOPE  H15S 6393   0.541   4.682  14.506
   50DOPE  C216 6394   0.354   4.742  14.602
   50DOPE  H16R 6395   0.361   4.652  14.668
   50DOPE  H16S 6396   0.249   4.751  14.569
   50DOPE  C217 6397   0.389   4.869  14.681
   50DOPE  H17R 6398   0.392   4.955  14.611
   50DOPE  H17S 6399   0.490   4.859  14.728
   50DOPE  C218 6400   0.291   4.898  14.793
   50DOPE  H18R 6401   0.304   4.824  14.875
   50DOPE  H18S 6402   0.187   4.890  14.755
   50DOPE  H18T 6403   0.305   5.000  14.834
   50DOPE   C33 6404   0.666   4.662  13.851
   50DOPE   H3X 6405   0.577   4.724  13.827
   50DOPE   H3Y 6406   0.755   4.726  13.835
   50DOPE   C34 6407   0.661   4.619  14.000
   50DOPE   H4X 6408   0.559   4.583  14.026
   50DOPE   H4Y 6409   0.734   4.537  14.017
   50DOPE   C35 6410   0.700   4.741  14.083
   50DOPE   H5X 6411   0.632   4.822  14.050
   50DOPE   H5Y 6412   0.805   4.763  14.055
   50DOPE   C36 6413   0.698   4.746  14.235
   50DOPE   H6X 6414   0.596   4.722  14.272
   50DOPE   H6Y 6415   0.715   4.851  14.266
   50DOPE   C37 6416   0.804   4.661  14.303
   50DOPE   H7X 6417   0.896   4.656  14.240
   50DOPE   H7Y 6418   0.830   4.709  14.399
   50DOPE   C38 6419   0.748   4.522  14.331
   50DOPE   H8X 6420   0.718   4.481  14.232
   50DOPE   H8Y 6421   0.655   4.539  14.389
   50DOPE   C39 6422   0.833   4.419  14.398
   50DOPE   H9X 6423   0.910   4.377  14.332
   50DOPE  C310 6424   0.825   4.371  14.523
   50DOPE  H10X 6425   0.891   4.285  14.544
   50DOPE  C311 6426   0.733   4.401  14.640
   50DOPE  H11X 6427   0.638   4.344  14.630
   50DOPE  H11Y 6428   0.782   4.355  14.729
   50DOPE  C312 6429   0.696   4.547  14.679
   50DOPE  H12X 6430   0.585   4.553  14.682
   50DOPE  H12Y 6431   0.731   4.617  14.599
   50DOPE  C313 6432   0.745   4.599  14.817
   50DOPE  H13X 6433   0.853   4.624  14.812
   50DOPE  H13Y 6434   0.690   4.693  14.839
   50DOPE  C314 6435   0.718   4.499  14.930
   50DOPE  H14X 6436   0.792   4.417  14.928
   50DOPE  H14Y 6437   0.619   4.456  14.905
   50DOPE  C315 6438   0.714   4.554  15.073
   50DOPE  H15X 6439   0.700   4.470  15.145
   50DOPE  H15Y 6440   0.624   4.618  15.081
   50DOPE  C316 6441   0.838   4.634  15.116
   50DOPE  H16X 6442   0.803   4.716  15.181
   50DOPE  H16Y 6443   0.888   4.681  15.028
   50DOPE  C317 6444   0.940   4.554  15.199
   50DOPE  H17X 6445   1.017   4.627  15.233
   50DOPE  H17Y 6446   0.891   4.513  15.289
   50DOPE  C318 6447   1.015   4.444  15.125
   50DOPE  H18X 6448   0.944   4.371  15.079
   50DOPE  H18Y 6449   1.077   4.489  15.045
   50DOPE  H18Z 6450   1.082   4.388  15.194
   51DOPE     N 6451   2.785   7.195  12.833
   51DOPE   HN1 6452   2.863   7.206  12.765
   51DOPE   HN2 6453   2.732   7.107  12.814
   51DOPE   HN3 6454   2.723   7.277  12.817
   51DOPE   C12 6455   2.846   7.200  12.970
   51DOPE  H12A 6456   2.766   7.192  13.046
   51DOPE  H12B 6457   2.895   7.300  12.980
   51DOPE   C11 6458   2.953   7.091  12.989
   51DOPE  H11A 6459   3.019   7.082  12.900
   51DOPE  H11B 6460   2.903   6.992  13.002
   51DOPE     P 6461   3.156   7.216  13.104
   51DOPE   O13 6462   3.149   7.303  13.222
   51DOPE   O14 6463   3.162   7.279  12.970
   51DOPE   O11 6464   3.276   7.115  13.120
   51DOPE   O12 6465   3.029   7.119  13.106
   51DOPE    C1 6466   3.256   6.988  13.184
   51DOPE    HA 6467   3.356   6.940  13.194
   51DOPE    HB 6468   3.194   6.922  13.120
   51DOPE    C2 6469   3.195   6.995  13.327
   51DOPE    HS 6470   3.089   7.027  13.317
   51DOPE   O21 6471   3.271   7.090  13.404
   51DOPE   C21 6472   3.200   7.155  13.494
   51DOPE   O22 6473   3.089   7.124  13.534
   51DOPE   C22 6474   3.277   7.278  13.541
   51DOPE   H2R 6475   3.290   7.343  13.452
   51DOPE   H2S 6476   3.377   7.246  13.577
   51DOPE    C3 6477   3.195   6.854  13.392
   51DOPE    HX 6478   3.300   6.827  13.415
   51DOPE    HY 6479   3.160   6.784  13.313
   51DOPE   O31 6480   3.106   6.840  13.505
   51DOPE   C31 6481   3.161   6.863  13.623
   51DOPE   O32 6482   3.278   6.890  13.642
   51DOPE   C32 6483   3.057   6.846  13.733
   51DOPE   H2X 6484   2.969   6.909  13.708
   51DOPE   H2Y 6485   3.026   6.739  13.737
   51DOPE   C23 6486   3.200   7.354  13.651
   51DOPE   H3R 6487   3.223   7.311  13.751
   51DOPE   H3S 6488   3.091   7.343  13.636
   51DOPE   C24 6489   3.225   7.504  13.646
   51DOPE   H4R 6490   3.162   7.551  13.725
   51DOPE   H4S 6491   3.189   7.542  13.548
   51DOPE   C25 6492   3.370   7.553  13.663
   51DOPE   H5R 6493   3.365   7.664  13.673
   51DOPE   H5S 6494   3.427   7.531  13.570
   51DOPE   C26 6495   3.446   7.496  13.782
   51DOPE   H6R 6496   3.547   7.542  13.789
   51DOPE   H6S 6497   3.462   7.388  13.762
   51DOPE   C27 6498   3.374   7.511  13.917
   51DOPE   H7R 6499   3.268   7.540  13.901
   51DOPE   H7S 6500   3.420   7.593  13.976
   51DOPE   C28 6501   3.375   7.378  13.992
   51DOPE   H8R 6502   3.330   7.303  13.923
   51DOPE   H8S 6503   3.305   7.377  14.078
   51DOPE   C29 6504   3.516   7.345  14.034
   51DOPE   H9R 6505   3.572   7.424  14.085
   51DOPE  C210 6506   3.572   7.225  14.013
   51DOPE  H10R 6507   3.674   7.203  14.049
   51DOPE  C211 6508   3.495   7.114  13.947
   51DOPE  H11R 6509   3.557   7.030  13.907
   51DOPE  H11S 6510   3.439   7.150  13.858
   51DOPE  C212 6511   3.397   7.058  14.050
   51DOPE  H12R 6512   3.324   7.000  13.989
   51DOPE  H12S 6513   3.341   7.138  14.104
   51DOPE  C213 6514   3.457   6.962  14.152
   51DOPE  H13R 6515   3.553   6.921  14.113
   51DOPE  H13S 6516   3.383   6.879  14.155
   51DOPE  C214 6517   3.470   7.009  14.298
   51DOPE  H14R 6518   3.516   7.110  14.299
   51DOPE  H14S 6519   3.539   6.940  14.351
   51DOPE  C215 6520   3.338   7.011  14.378
   51DOPE  H15R 6521   3.264   7.068  14.317
   51DOPE  H15S 6522   3.353   7.070  14.471
   51DOPE  C216 6523   3.275   6.875  14.415
   51DOPE  H16R 6524   3.260   6.813  14.323
   51DOPE  H16S 6525   3.172   6.897  14.452
   51DOPE  C217 6526   3.345   6.789  14.522
   51DOPE  H17R 6527   3.404   6.708  14.473
   51DOPE  H17S 6528   3.266   6.735  14.579
   51DOPE  C218 6529   3.439   6.860  14.621
   51DOPE  H18R 6530   3.476   6.789  14.697
   51DOPE  H18S 6531   3.386   6.944  14.672
   51DOPE  H18T 6532   3.526   6.903  14.567
   51DOPE   C33 6533   3.118   6.891  13.866
   51DOPE   H3X 6534   3.145   6.998  13.855
   51DOPE   H3Y 6535   3.213   6.835  13.886
   51DOPE   C34 6536   3.027   6.874  13.988
   51DOPE   H4X 6537   2.927   6.914  13.963
   51DOPE   H4Y 6538   3.016   6.766  14.010
   51DOPE   C35 6539   3.081   6.947  14.111
   51DOPE   H5X 6540   3.184   6.911  14.131
   51DOPE   H5Y 6541   3.022   6.918  14.201
   51DOPE   C36 6542   3.081   7.101  14.097
   51DOPE   H6X 6543   3.149   7.133  14.014
   51DOPE   H6Y 6544   3.119   7.147  14.190
   51DOPE   C37 6545   2.944   7.159  14.065
   51DOPE   H7X 6546   2.949   7.270  14.062
   51DOPE   H7Y 6547   2.916   7.126  13.963
   51DOPE   C38 6548   2.840   7.112  14.167
   51DOPE   H8X 6549   2.837   7.001  14.174
   51DOPE   H8Y 6550   2.738   7.140  14.131
   51DOPE   C39 6551   2.862   7.178  14.299
   51DOPE   H9X 6552   2.927   7.267  14.300
   51DOPE  C310 6553   2.805   7.135  14.411
   51DOPE  H10X 6554   2.823   7.191  14.504
   51DOPE  C311 6555   2.713   7.016  14.423
   51DOPE  H11X 6556   2.629   7.041  14.492
   51DOPE  H11Y 6557   2.668   6.985  14.327
   51DOPE  C312 6558   2.790   6.897  14.483
   51DOPE  H12X 6559   2.846   6.844  14.403
   51DOPE  H12Y 6560   2.716   6.826  14.526
   51DOPE  C313 6561   2.888   6.945  14.589
   51DOPE  H13X 6562   2.978   6.988  14.540
   51DOPE  H13Y 6563   2.840   7.025  14.649
   51DOPE  C314 6564   2.931   6.839  14.687
   51DOPE  H14X 6565   2.989   6.758  14.636
   51DOPE  H14Y 6566   2.839   6.795  14.732
   51DOPE  C315 6567   3.011   6.901  14.801
   51DOPE  H15X 6568   3.034   6.819  14.872
   51DOPE  H15Y 6569   2.946   6.976  14.850
   51DOPE  C316 6570   3.141   6.970  14.759
   51DOPE  H16X 6571   3.168   6.932  14.658
   51DOPE  H16Y 6572   3.223   6.939  14.829
   51DOPE  C317 6573   3.137   7.124  14.754
   51DOPE  H17X 6574   3.232   7.159  14.709
   51DOPE  H17Y 6575   3.055   7.154  14.686
   51DOPE  C318 6576   3.119   7.195  14.889
   51DOPE  H18X 6577   3.021   7.169  14.935
   51DOPE  H18Y 6578   3.201   7.166  14.960
   51DOPE  H18Z 6579   3.124   7.305  14.877
   52DOPE     N 6580   7.187   4.763  12.941
   52DOPE   HN1 6581   7.109   4.823  12.907
   52DOPE   HN2 6582   7.269   4.825  12.950
   52DOPE   HN3 6583   7.206   4.688  12.872
   52DOPE   C12 6584   7.162   4.696  13.074
   52DOPE  H12A 6585   7.088   4.614  13.056
   52DOPE  H12B 6586   7.120   4.771  13.143
   52DOPE   C11 6587   7.290   4.635  13.133
   52DOPE  H11A 6588   7.256   4.565  13.213
   52DOPE  H11B 6589   7.349   4.715  13.183
   52DOPE     P 6590   7.402   4.419  13.025
   52DOPE   O13 6591   7.547   4.404  13.054
   52DOPE   O14 6592   7.356   4.376  12.892
   52DOPE   O11 6593   7.313   4.355  13.139
   52DOPE   O12 6594   7.371   4.573  13.034
   52DOPE    C1 6595   7.365   4.269  13.241
   52DOPE    HA 6596   7.476   4.272  13.245
   52DOPE    HB 6597   7.333   4.164  13.221
   52DOPE    C2 6598   7.314   4.312  13.381
   52DOPE    HS 6599   7.203   4.308  13.380
   52DOPE   O21 6600   7.364   4.445  13.400
   52DOPE   C21 6601   7.288   4.526  13.469
   52DOPE   O22 6602   7.170   4.513  13.497
   52DOPE   C22 6603   7.377   4.641  13.511
   52DOPE   H2R 6604   7.399   4.705  13.423
   52DOPE   H2S 6605   7.473   4.593  13.543
   52DOPE    C3 6606   7.368   4.223  13.497
   52DOPE    HX 6607   7.478   4.214  13.481
   52DOPE    HY 6608   7.326   4.120  13.491
   52DOPE   O31 6609   7.351   4.283  13.627
   52DOPE   C31 6610   7.229   4.276  13.678
   52DOPE   O32 6611   7.135   4.217  13.629
   52DOPE   C32 6612   7.229   4.362  13.805
   52DOPE   H2X 6613   7.296   4.312  13.879
   52DOPE   H2Y 6614   7.276   4.459  13.778
   52DOPE   C23 6615   7.319   4.724  13.627
   52DOPE   H3R 6616   7.279   4.659  13.707
   52DOPE   H3S 6617   7.235   4.786  13.590
   52DOPE   C24 6618   7.429   4.812  13.685
   52DOPE   H4R 6619   7.385   4.882  13.760
   52DOPE   H4S 6620   7.469   4.874  13.602
   52DOPE   C25 6621   7.547   4.734  13.748
   52DOPE   H5R 6622   7.620   4.807  13.789
   52DOPE   H5S 6623   7.603   4.677  13.671
   52DOPE   C26 6624   7.507   4.641  13.862
   52DOPE   H6R 6625   7.600   4.596  13.904
   52DOPE   H6S 6626   7.446   4.556  13.823
   52DOPE   C27 6627   7.431   4.715  13.973
   52DOPE   H7R 6628   7.339   4.762  13.933
   52DOPE   H7S 6629   7.499   4.798  14.004
   52DOPE   C28 6630   7.391   4.625  14.091
   52DOPE   H8R 6631   7.456   4.535  14.092
   52DOPE   H8S 6632   7.286   4.591  14.079
   52DOPE   C29 6633   7.413   4.703  14.218
   52DOPE   H9R 6634   7.510   4.753  14.219
   52DOPE  C210 6635   7.331   4.728  14.321
   52DOPE  H10R 6636   7.371   4.787  14.405
   52DOPE  C211 6637   7.190   4.685  14.342
   52DOPE  H11R 6638   7.154   4.626  14.255
   52DOPE  H11S 6639   7.124   4.773  14.350
   52DOPE  C212 6640   7.176   4.599  14.468
   52DOPE  H12R 6641   7.229   4.502  14.459
   52DOPE  H12S 6642   7.066   4.581  14.471
   52DOPE  C213 6643   7.203   4.661  14.606
   52DOPE  H13R 6644   7.151   4.597  14.680
   52DOPE  H13S 6645   7.152   4.760  14.609
   52DOPE  C214 6646   7.350   4.669  14.649
   52DOPE  H14R 6647   7.395   4.767  14.624
   52DOPE  H14S 6648   7.407   4.593  14.590
   52DOPE  C215 6649   7.371   4.640  14.799
   52DOPE  H15R 6650   7.314   4.549  14.826
   52DOPE  H15S 6651   7.328   4.719  14.865
   52DOPE  C216 6652   7.519   4.620  14.832
   52DOPE  H16R 6653   7.569   4.561  14.752
   52DOPE  H16S 6654   7.526   4.561  14.926
   52DOPE  C217 6655   7.594   4.752  14.850
   52DOPE  H17R 6656   7.533   4.821  14.912
   52DOPE  H17S 6657   7.609   4.801  14.752
   52DOPE  C218 6658   7.728   4.730  14.919
   52DOPE  H18R 6659   7.718   4.671  15.013
   52DOPE  H18S 6660   7.799   4.675  14.853
   52DOPE  H18T 6661   7.772   4.828  14.947
   52DOPE   C33 6662   7.091   4.392  13.869
   52DOPE   H3X 6663   7.009   4.347  13.808
   52DOPE   H3Y 6664   7.075   4.502  13.870
   52DOPE   C34 6665   7.085   4.338  14.012
   52DOPE   H4X 6666   7.100   4.228  14.004
   52DOPE   H4Y 6667   7.167   4.381  14.073
   52DOPE   C35 6668   6.951   4.361  14.083
   52DOPE   H5X 6669   6.872   4.319  14.018
   52DOPE   H5Y 6670   6.931   4.470  14.093
   52DOPE   C36 6671   6.942   4.291  14.219
   52DOPE   H6X 6672   6.990   4.191  14.211
   52DOPE   H6Y 6673   6.835   4.276  14.242
   52DOPE   C37 6674   7.006   4.368  14.335
   52DOPE   H7X 6675   7.116   4.350  14.341
   52DOPE   H7Y 6676   6.993   4.475  14.307
   52DOPE   C38 6677   6.936   4.351  14.472
   52DOPE   H8X 6678   6.830   4.367  14.443
   52DOPE   H8Y 6679   6.961   4.435  14.540
   52DOPE   C39 6680   6.933   4.224  14.552
   52DOPE   H9X 6681   6.885   4.140  14.500
   52DOPE  C310 6682   6.981   4.204  14.677
   52DOPE  H10X 6683   6.968   4.104  14.721
   52DOPE  C311 6684   7.051   4.302  14.768
   52DOPE  H11X 6685   7.081   4.395  14.716
   52DOPE  H11Y 6686   6.984   4.330  14.852
   52DOPE  C312 6687   7.179   4.237  14.826
   52DOPE  H12X 6688   7.155   4.136  14.866
   52DOPE  H12Y 6689   7.214   4.298  14.913
   52DOPE  C313 6690   7.292   4.226  14.724
   52DOPE  H13X 6691   7.328   4.121  14.721
   52DOPE  H13Y 6692   7.253   4.250  14.623
   52DOPE  C314 6693   7.409   4.321  14.748
   52DOPE  H14X 6694   7.413   4.347  14.856
   52DOPE  H14Y 6695   7.384   4.413  14.691
   52DOPE  C315 6696   7.548   4.278  14.702
   52DOPE  H15X 6697   7.623   4.343  14.753
   52DOPE  H15Y 6698   7.558   4.299  14.593
   52DOPE  C316 6699   7.586   4.132  14.727
   52DOPE  H16X 6700   7.696   4.125  14.711
   52DOPE  H16Y 6701   7.539   4.068  14.649
   52DOPE  C317 6702   7.554   4.074  14.865
   52DOPE  H17X 6703   7.446   4.049  14.872
   52DOPE  H17Y 6704   7.608   3.977  14.873
   52DOPE  C318 6705   7.591   4.164  14.984
   52DOPE  H18X 6706   7.598   4.102  15.077
   52DOPE  H18Y 6707   7.688   4.215  14.967
   52DOPE  H18Z 6708   7.513   4.241  15.001
   53DOPE     N 6709   6.102   6.527  12.778
   53DOPE   HN1 6710   6.132   6.427  12.780
   53DOPE   HN2 6711   6.039   6.544  12.859
   53DOPE   HN3 6712   6.043   6.544  12.694
   53DOPE   C12 6713   6.216   6.624  12.796
   53DOPE  H12A 6714   6.180   6.723  12.759
   53DOPE  H12B 6715   6.304   6.590  12.737
   53DOPE   C11 6716   6.247   6.636  12.945
   53DOPE  H11A 6717   6.316   6.721  12.964
   53DOPE  H11B 6718   6.295   6.543  12.983
   53DOPE     P 6719   6.105   6.658  13.165
   53DOPE   O13 6720   6.126   6.518  13.209
   53DOPE   O14 6721   5.973   6.719  13.189
   53DOPE   O11 6722   6.226   6.750  13.211
   53DOPE   O12 6723   6.122   6.659  13.009
   53DOPE    C1 6724   6.215   6.846  13.316
   53DOPE    HA 6725   6.130   6.915  13.299
   53DOPE    HB 6726   6.307   6.907  13.317
   53DOPE    C2 6727   6.201   6.779  13.456
   53DOPE    HS 6728   6.273   6.695  13.456
   53DOPE   O21 6729   6.065   6.737  13.469
   53DOPE   C21 6730   6.046   6.621  13.524
   53DOPE   O22 6731   6.129   6.536  13.551
   53DOPE   C22 6732   5.903   6.623  13.574
   53DOPE   H2R 6733   5.869   6.517  13.582
   53DOPE   H2S 6734   5.839   6.676  13.500
   53DOPE    C3 6735   6.232   6.868  13.579
   53DOPE    HX 6736   6.147   6.939  13.592
   53DOPE    HY 6737   6.322   6.930  13.558
   53DOPE   O31 6738   6.250   6.786  13.696
   53DOPE   C31 6739   6.225   6.837  13.815
   53DOPE   O32 6740   6.193   6.952  13.839
   53DOPE   C32 6741   6.238   6.722  13.917
   53DOPE   H2X 6742   6.149   6.656  13.908
   53DOPE   H2Y 6743   6.327   6.663  13.886
   53DOPE   C23 6744   5.902   6.694  13.710
   53DOPE   H3R 6745   5.867   6.800  13.700
   53DOPE   H3S 6746   6.004   6.699  13.752
   53DOPE   C24 6747   5.820   6.620  13.814
   53DOPE   H4R 6748   5.828   6.510  13.798
   53DOPE   H4S 6749   5.713   6.648  13.802
   53DOPE   C25 6750   5.869   6.651  13.956
   53DOPE   H5R 6751   5.906   6.755  13.960
   53DOPE   H5S 6752   5.954   6.584  13.982
   53DOPE   C26 6753   5.758   6.636  14.059
   53DOPE   H6R 6754   5.682   6.712  14.031
   53DOPE   H6S 6755   5.794   6.661  14.162
   53DOPE   C27 6756   5.691   6.499  14.057
   53DOPE   H7R 6757   5.671   6.467  13.953
   53DOPE   H7S 6758   5.591   6.504  14.106
   53DOPE   C28 6759   5.770   6.389  14.128
   53DOPE   H8R 6760   5.872   6.387  14.084
   53DOPE   H8S 6761   5.716   6.297  14.096
   53DOPE   C29 6762   5.773   6.383  14.278
   53DOPE   H9R 6763   5.690   6.326  14.322
   53DOPE  C210 6764   5.866   6.432  14.361
   53DOPE  H10R 6765   5.851   6.419  14.469
   53DOPE  C211 6766   5.991   6.506  14.323
   53DOPE  H11R 6767   5.973   6.615  14.332
   53DOPE  H11S 6768   6.021   6.486  14.218
   53DOPE  C212 6769   6.107   6.465  14.416
   53DOPE  H12R 6770   6.203   6.503  14.374
   53DOPE  H12S 6771   6.115   6.354  14.417
   53DOPE  C213 6772   6.092   6.517  14.560
   53DOPE  H13R 6773   5.986   6.539  14.583
   53DOPE  H13S 6774   6.148   6.613  14.569
   53DOPE  C214 6775   6.143   6.415  14.663
   53DOPE  H14R 6776   6.245   6.383  14.633
   53DOPE  H14S 6777   6.077   6.325  14.656
   53DOPE  C215 6778   6.145   6.467  14.807
   53DOPE  H15R 6779   6.042   6.490  14.841
   53DOPE  H15S 6780   6.203   6.562  14.808
   53DOPE  C216 6781   6.211   6.371  14.907
   53DOPE  H16R 6782   6.294   6.317  14.855
   53DOPE  H16S 6783   6.138   6.293  14.937
   53DOPE  C217 6784   6.268   6.442  15.031
   53DOPE  H17R 6785   6.193   6.437  15.112
   53DOPE  H17S 6786   6.283   6.550  15.007
   53DOPE  C218 6787   6.403   6.388  15.080
   53DOPE  H18R 6788   6.402   6.277  15.086
   53DOPE  H18S 6789   6.428   6.428  15.180
   53DOPE  H18T 6790   6.484   6.417  15.010
   53DOPE   C33 6791   6.261   6.764  14.063
   53DOPE   H3X 6792   6.336   6.846  14.065
   53DOPE   H3Y 6793   6.304   6.678  14.118
   53DOPE   C34 6794   6.138   6.813  14.141
   53DOPE   H4X 6795   6.114   6.914  14.102
   53DOPE   H4Y 6796   6.051   6.746  14.125
   53DOPE   C35 6797   6.167   6.821  14.291
   53DOPE   H5X 6798   6.276   6.840  14.300
   53DOPE   H5Y 6799   6.149   6.723  14.342
   53DOPE   C36 6800   6.100   6.935  14.368
   53DOPE   H6X 6801   6.126   7.031  14.317
   53DOPE   H6Y 6802   6.144   6.940  14.470
   53DOPE   C37 6803   5.948   6.926  14.381
   53DOPE   H7X 6804   5.901   6.910  14.282
   53DOPE   H7Y 6805   5.924   6.835  14.440
   53DOPE   C38 6806   5.895   7.055  14.446
   53DOPE   H8X 6807   5.920   7.141  14.381
   53DOPE   H8Y 6808   5.955   7.072  14.539
   53DOPE   C39 6809   5.747   7.053  14.474
   53DOPE   H9X 6810   5.683   7.041  14.385
   53DOPE  C310 6811   5.691   7.066  14.595
   53DOPE  H10X 6812   5.581   7.061  14.603
   53DOPE  C311 6813   5.766   7.086  14.724
   53DOPE  H11X 6814   5.855   7.151  14.710
   53DOPE  H11Y 6815   5.700   7.140  14.795
   53DOPE  C312 6816   5.811   6.955  14.793
   53DOPE  H12X 6817   5.726   6.885  14.803
   53DOPE  H12Y 6818   5.844   6.983  14.896
   53DOPE  C313 6819   5.926   6.879  14.727
   53DOPE  H13X 6820   5.886   6.836  14.632
   53DOPE  H13Y 6821   6.009   6.948  14.701
   53DOPE  C314 6822   5.980   6.762  14.810
   53DOPE  H14X 6823   6.062   6.716  14.750
   53DOPE  H14Y 6824   5.900   6.686  14.823
   53DOPE  C315 6825   6.036   6.800  14.947
   53DOPE  H15X 6826   6.078   6.709  14.995
   53DOPE  H15Y 6827   5.951   6.834  15.010
   53DOPE  C316 6828   6.144   6.909  14.941
   53DOPE  H16X 6829   6.103   6.998  14.889
   53DOPE  H16Y 6830   6.229   6.871  14.881
   53DOPE  C317 6831   6.197   6.956  15.078
   53DOPE  H17X 6832   6.283   7.024  15.060
   53DOPE  H17Y 6833   6.118   7.018  15.127
   53DOPE  C318 6834   6.241   6.844  15.173
   53DOPE  H18X 6835   6.317   6.780  15.124
   53DOPE  H18Y 6836   6.285   6.887  15.266
   53DOPE  H18Z 6837   6.154   6.781  15.202
   54DOPE     N 6838   0.292   3.570  12.961
   54DOPE   HN1 6839   0.388   3.533  12.945
   54DOPE   HN2 6840   0.221   3.499  12.934
   54DOPE   HN3 6841   0.278   3.653  12.900
   54DOPE   C12 6842   0.262   3.617  13.100
   54DOPE  H12A 6843   0.333   3.698  13.125
   54DOPE  H12B 6844   0.275   3.532  13.171
   54DOPE   C11 6845   0.118   3.671  13.102
   54DOPE  H11A 6846   0.097   3.720  13.199
   54DOPE  H11B 6847   0.047   3.586  13.090
   54DOPE     P 6848  -0.030   3.838  12.964
   54DOPE   O13 6849  -0.138   3.738  12.948
   54DOPE   O14 6850   0.002   3.925  12.849
   54DOPE   O11 6851  -0.049   3.925  13.093
   54DOPE   O12 6852   0.105   3.763  12.994
   54DOPE    C1 6853   0.041   4.032  13.124
   54DOPE    HA 6854  -0.009   4.128  13.100
   54DOPE    HB 6855   0.136   4.027  13.067
   54DOPE    C2 6856   0.078   4.033  13.275
   54DOPE    HS 6857   0.129   4.129  13.295
   54DOPE   O21 6858   0.170   3.925  13.301
   54DOPE   C21 6859   0.202   3.906  13.428
   54DOPE   O22 6860   0.169   3.978  13.520
   54DOPE   C22 6861   0.291   3.783  13.442
   54DOPE   H2R 6862   0.286   3.723  13.349
   54DOPE   H2S 6863   0.253   3.721  13.526
   54DOPE    C3 6864  -0.052   4.031  13.362
   54DOPE    HX 6865  -0.124   4.097  13.311
   54DOPE    HY 6866  -0.030   4.076  13.461
   54DOPE   O31 6867  -0.110   3.899  13.370
   54DOPE   C31 6868  -0.152   3.859  13.488
   54DOPE   O32 6869  -0.150   3.923  13.591
   54DOPE   C32 6870  -0.210   3.720  13.472
   54DOPE   H2X 6871  -0.320   3.727  13.489
   54DOPE   H2Y 6872  -0.193   3.683  13.368
   54DOPE   C23 6873   0.436   3.823  13.472
   54DOPE   H3R 6874   0.474   3.891  13.393
   54DOPE   H3S 6875   0.500   3.732  13.469
   54DOPE   C24 6876   0.454   3.892  13.608
   54DOPE   H4R 6877   0.398   3.988  13.604
   54DOPE   H4S 6878   0.562   3.918  13.617
   54DOPE   C25 6879   0.412   3.818  13.737
   54DOPE   H5R 6880   0.487   3.840  13.815
   54DOPE   H5S 6881   0.414   3.708  13.719
   54DOPE   C26 6882   0.275   3.859  13.794
   54DOPE   H6R 6883   0.258   3.801  13.888
   54DOPE   H6S 6884   0.196   3.829  13.722
   54DOPE   C27 6885   0.254   4.008  13.827
   54DOPE   H7R 6886   0.157   4.040  13.781
   54DOPE   H7S 6887   0.334   4.069  13.780
   54DOPE   C28 6888   0.248   4.037  13.978
   54DOPE   H8R 6889   0.338   3.992  14.024
   54DOPE   H8S 6890   0.160   3.984  14.020
   54DOPE   C29 6891   0.240   4.185  14.007
   54DOPE   H9R 6892   0.290   4.249  13.932
   54DOPE  C210 6893   0.181   4.242  14.113
   54DOPE  H10R 6894   0.186   4.351  14.124
   54DOPE  C211 6895   0.111   4.170  14.226
   54DOPE  H11R 6896   0.059   4.079  14.189
   54DOPE  H11S 6897   0.033   4.236  14.268
   54DOPE  C212 6898   0.204   4.127  14.341
   54DOPE  H12R 6899   0.255   4.217  14.383
   54DOPE  H12S 6900   0.282   4.057  14.304
   54DOPE  C213 6901   0.128   4.065  14.458
   54DOPE  H13R 6902   0.067   3.981  14.417
   54DOPE  H13S 6903   0.058   4.141  14.499
   54DOPE  C214 6904   0.217   4.009  14.570
   54DOPE  H14R 6905   0.296   3.947  14.523
   54DOPE  H14S 6906   0.152   3.941  14.630
   54DOPE  C215 6907   0.288   4.111  14.659
   54DOPE  H15R 6908   0.263   4.212  14.621
   54DOPE  H15S 6909   0.398   4.098  14.646
   54DOPE  C216 6910   0.258   4.116  14.811
   54DOPE  H16R 6911   0.186   4.198  14.828
   54DOPE  H16S 6912   0.354   4.149  14.858
   54DOPE  C217 6913   0.209   3.992  14.887
   54DOPE  H17R 6914   0.175   3.910  14.820
   54DOPE  H17S 6915   0.119   4.023  14.945
   54DOPE  C218 6916   0.302   3.935  14.993
   54DOPE  H18R 6917   0.398   3.903  14.947
   54DOPE  H18S 6918   0.255   3.848  15.043
   54DOPE  H18T 6919   0.322   4.011  15.071
   54DOPE   C33 6920  -0.147   3.623  13.572
   54DOPE   H3X 6921  -0.198   3.525  13.564
   54DOPE   H3Y 6922  -0.161   3.658  13.677
   54DOPE   C34 6923   0.001   3.600  13.543
   54DOPE   H4X 6924   0.017   3.592  13.433
   54DOPE   H4Y 6925   0.059   3.687  13.581
   54DOPE   C35 6926   0.049   3.471  13.607
   54DOPE   H5X 6927   0.154   3.449  13.577
   54DOPE   H5Y 6928  -0.016   3.390  13.567
   54DOPE   C36 6929   0.038   3.472  13.759
   54DOPE   H6X 6930   0.080   3.376  13.795
   54DOPE   H6Y 6931  -0.067   3.479  13.794
   54DOPE   C37 6932   0.124   3.578  13.827
   54DOPE   H7X 6933   0.220   3.586  13.770
   54DOPE   H7Y 6934   0.072   3.676  13.823
   54DOPE   C38 6935   0.160   3.540  13.971
   54DOPE   H8X 6936   0.234   3.613  14.008
   54DOPE   H8Y 6937   0.212   3.442  13.968
   54DOPE   C39 6938   0.038   3.529  14.059
   54DOPE   H9X 6939  -0.018   3.435  14.052
   54DOPE  C310 6940  -0.003   3.625  14.143
   54DOPE  H10X 6941  -0.092   3.609  14.205
   54DOPE  C311 6942   0.069   3.757  14.160
   54DOPE  H11X 6943   0.100   3.795  14.060
   54DOPE  H11Y 6944   0.000   3.833  14.203
   54DOPE  C312 6945   0.194   3.744  14.249
   54DOPE  H12X 6946   0.240   3.844  14.260
   54DOPE  H12Y 6947   0.269   3.677  14.203
   54DOPE  C313 6948   0.159   3.689  14.387
   54DOPE  H13X 6949   0.086   3.758  14.434
   54DOPE  H13Y 6950   0.110   3.589  14.379
   54DOPE  C314 6951   0.280   3.673  14.480
   54DOPE  H14X 6952   0.345   3.762  14.473
   54DOPE  H14Y 6953   0.342   3.586  14.448
   54DOPE  C315 6954   0.229   3.653  14.623
   54DOPE  H15X 6955   0.184   3.552  14.629
   54DOPE  H15Y 6956   0.148   3.726  14.644
   54DOPE  C316 6957   0.337   3.672  14.729
   54DOPE  H16X 6958   0.365   3.780  14.734
   54DOPE  H16Y 6959   0.427   3.614  14.702
   54DOPE  C317 6960   0.286   3.626  14.866
   54DOPE  H17X 6961   0.359   3.657  14.944
   54DOPE  H17Y 6962   0.190   3.676  14.889
   54DOPE  C318 6963   0.268   3.474  14.873
   54DOPE  H18X 6964   0.356   3.423  14.829
   54DOPE  H18Y 6965   0.257   3.441  14.978
   54DOPE  H18Z 6966   0.178   3.443  14.817
   55DOPE     N 6967   0.370   5.668  13.227
   55DOPE   HN1 6968   0.313   5.583  13.209
   55DOPE   HN2 6969   0.460   5.639  13.269
   55DOPE   HN3 6970   0.317   5.730  13.293
   55DOPE   C12 6971   0.393   5.738  13.096
   55DOPE  H12A 6972   0.295   5.749  13.045
   55DOPE  H12B 6973   0.457   5.672  13.035
   55DOPE   C11 6974   0.458   5.875  13.118
   55DOPE  H11A 6975   0.521   5.876  13.209
   55DOPE  H11B 6976   0.379   5.951  13.135
   55DOPE     P 6977   0.686   5.872  12.996
   55DOPE   O13 6978   0.743   5.922  12.869
   55DOPE   O14 6979   0.696   5.727  13.028
   55DOPE   O11 6980   0.734   5.960  13.119
   55DOPE   O12 6981   0.532   5.911  13.001
   55DOPE    C1 6982   0.760   6.098  13.092
   55DOPE    HA 6983   0.692   6.140  13.015
   55DOPE    HB 6984   0.865   6.105  13.055
   55DOPE    C2 6985   0.748   6.192  13.216
   55DOPE    HS 6986   0.799   6.288  13.191
   55DOPE   O21 6987   0.809   6.129  13.330
   55DOPE   C21 6988   0.942   6.138  13.326
   55DOPE   O22 6989   1.005   6.212  13.252
   55DOPE   C22 6990   1.002   6.048  13.434
   55DOPE   H2R 6991   1.090   5.998  13.389
   55DOPE   H2S 6992   0.928   5.970  13.463
   55DOPE    C3 6993   0.601   6.235  13.245
   55DOPE    HX 6994   0.555   6.267  13.149
   55DOPE    HY 6995   0.606   6.327  13.309
   55DOPE   O31 6996   0.521   6.131  13.303
   55DOPE   C31 6997   0.527   6.129  13.436
   55DOPE   O32 6998   0.577   6.214  13.506
   55DOPE   C32 6999   0.457   6.004  13.485
   55DOPE   H2X 7000   0.348   6.020  13.468
   55DOPE   H2Y 7001   0.492   5.917  13.426
   55DOPE   C23 7002   1.044   6.132  13.557
   55DOPE   H3R 7003   0.953   6.165  13.611
   55DOPE   H3S 7004   1.099   6.223  13.523
   55DOPE   C24 7005   1.138   6.058  13.651
   55DOPE   H4R 7006   1.236   6.048  13.601
   55DOPE   H4S 7007   1.099   5.955  13.670
   55DOPE   C25 7008   1.157   6.130  13.786
   55DOPE   H5R 7009   1.192   6.234  13.770
   55DOPE   H5S 7010   1.239   6.080  13.841
   55DOPE   C26 7011   1.030   6.135  13.871
   55DOPE   H6R 7012   0.965   6.050  13.839
   55DOPE   H6S 7013   0.972   6.228  13.851
   55DOPE   C27 7014   1.058   6.115  14.020
   55DOPE   H7R 7015   1.154   6.059  14.026
   55DOPE   H7S 7016   0.978   6.052  14.064
   55DOPE   C28 7017   1.074   6.238  14.108
   55DOPE   H8R 7018   1.153   6.301  14.062
   55DOPE   H8S 7019   1.113   6.206  14.207
   55DOPE   C29 7020   0.941   6.310  14.122
   55DOPE   H9R 7021   0.896   6.339  14.026
   55DOPE  C210 7022   0.876   6.341  14.235
   55DOPE  H10R 7023   0.782   6.396  14.227
   55DOPE  C211 7024   0.919   6.314  14.377
   55DOPE  H11R 7025   0.905   6.407  14.436
   55DOPE  H11S 7026   1.027   6.289  14.384
   55DOPE  C212 7027   0.840   6.203  14.448
   55DOPE  H12R 7028   0.870   6.105  14.404
   55DOPE  H12S 7029   0.731   6.216  14.430
   55DOPE  C213 7030   0.865   6.202  14.600
   55DOPE  H13R 7031   0.811   6.288  14.645
   55DOPE  H13S 7032   0.973   6.219  14.616
   55DOPE  C214 7033   0.826   6.073  14.672
   55DOPE  H14R 7034   0.718   6.053  14.655
   55DOPE  H14S 7035   0.841   6.089  14.781
   55DOPE  C215 7036   0.909   5.952  14.628
   55DOPE  H15R 7037   1.014   5.987  14.618
   55DOPE  H15S 7038   0.875   5.916  14.528
   55DOPE  C216 7039   0.916   5.833  14.725
   55DOPE  H16R 7040   0.820   5.777  14.719
   55DOPE  H16S 7041   0.930   5.871  14.828
   55DOPE  C217 7042   1.028   5.734  14.692
   55DOPE  H17R 7043   1.125   5.777  14.725
   55DOPE  H17S 7044   1.032   5.721  14.582
   55DOPE  C218 7045   1.010   5.596  14.756
   55DOPE  H18R 7046   1.091   5.527  14.725
   55DOPE  H18S 7047   0.912   5.552  14.725
   55DOPE  H18T 7048   1.010   5.603  14.867
   55DOPE   C33 7049   0.481   5.980  13.635
   55DOPE   H3X 7050   0.424   5.891  13.668
   55DOPE   H3Y 7051   0.442   6.068  13.691
   55DOPE   C34 7052   0.630   5.959  13.667
   55DOPE   H4X 7053   0.667   5.869  13.613
   55DOPE   H4Y 7054   0.690   6.045  13.631
   55DOPE   C35 7055   0.656   5.945  13.816
   55DOPE   H5X 7056   0.766   5.947  13.832
   55DOPE   H5Y 7057   0.617   5.847  13.850
   55DOPE   C36 7058   0.600   6.058  13.902
   55DOPE   H6X 7059   0.489   6.054  13.905
   55DOPE   H6Y 7060   0.630   6.155  13.857
   55DOPE   C37 7061   0.655   6.050  14.045
   55DOPE   H7X 7062   0.765   6.055  14.041
   55DOPE   H7Y 7063   0.620   6.139  14.102
   55DOPE   C38 7064   0.610   5.922  14.118
   55DOPE   H8X 7065   0.641   5.832  14.060
   55DOPE   H8Y 7066   0.499   5.921  14.121
   55DOPE   C39 7067   0.669   5.914  14.255
   55DOPE   H9X 7068   0.766   5.862  14.263
   55DOPE  C310 7069   0.614   5.967  14.365
   55DOPE  H10X 7070   0.665   5.955  14.462
   55DOPE  C311 7071   0.484   6.042  14.371
   55DOPE  H11X 7072   0.495   6.133  14.434
   55DOPE  H11Y 7073   0.452   6.077  14.271
   55DOPE  C312 7074   0.370   5.955  14.427
   55DOPE  H12X 7075   0.349   5.873  14.355
   55DOPE  H12Y 7076   0.279   6.017  14.434
   55DOPE  C313 7077   0.401   5.893  14.564
   55DOPE  H13X 7078   0.315   5.828  14.593
   55DOPE  H13Y 7079   0.490   5.826  14.557
   55DOPE  C314 7080   0.423   5.997  14.675
   55DOPE  H14X 7081   0.330   6.057  14.682
   55DOPE  H14Y 7082   0.505   6.066  14.649
   55DOPE  C315 7083   0.451   5.931  14.811
   55DOPE  H15X 7084   0.384   5.843  14.821
   55DOPE  H15Y 7085   0.425   6.004  14.891
   55DOPE  C316 7086   0.597   5.887  14.832
   55DOPE  H16X 7087   0.658   5.977  14.855
   55DOPE  H16Y 7088   0.632   5.843  14.736
   55DOPE  C317 7089   0.614   5.785  14.945
   55DOPE  H17X 7090   0.559   5.827  15.032
   55DOPE  H17Y 7091   0.567   5.690  14.913
   55DOPE  C318 7092   0.754   5.756  14.999
   55DOPE  H18X 7093   0.808   5.850  15.021
   55DOPE  H18Y 7094   0.747   5.696  15.092
   55DOPE  H18Z 7095   0.813   5.695  14.926
   56DOPE     N 7096   0.907   6.372  12.776
   56DOPE   HN1 7097   0.854   6.458  12.751
   56DOPE   HN2 7098   1.007   6.387  12.753
   56DOPE   HN3 7099   0.874   6.289  12.721
   56DOPE   C12 7100   0.895   6.344  12.923
   56DOPE  H12A 7101   0.968   6.264  12.948
   56DOPE  H12B 7102   0.791   6.308  12.940
   56DOPE   C11 7103   0.920   6.468  13.008
   56DOPE  H11A 7104   0.927   6.437  13.115
   56DOPE  H11B 7105   0.833   6.536  12.998
   56DOPE     P 7106   1.077   6.667  13.048
   56DOPE   O13 7107   1.182   6.736  12.969
   56DOPE   O14 7108   1.107   6.631  13.187
   56DOPE   O11 7109   0.940   6.746  13.037
   56DOPE   O12 7110   1.041   6.534  12.968
   56DOPE    C1 7111   0.905   6.800  12.909
   56DOPE    HA 7112   0.904   6.722  12.830
   56DOPE    HB 7113   0.980   6.877  12.881
   56DOPE    C2 7114   0.767   6.873  12.906
   56DOPE    HS 7115   0.781   6.959  12.837
   56DOPE   O21 7116   0.728   6.915  13.036
   56DOPE   C21 7117   0.795   7.014  13.086
   56DOPE   O22 7118   0.873   7.089  13.028
   56DOPE   C22 7119   0.752   7.026  13.232
   56DOPE   H2R 7120   0.771   6.928  13.280
   56DOPE   H2S 7121   0.643   7.046  13.237
   56DOPE    C3 7122   0.651   6.786  12.851
   56DOPE    HX 7123   0.676   6.755  12.748
   56DOPE    HY 7124   0.560   6.849  12.845
   56DOPE   O31 7125   0.631   6.668  12.932
   56DOPE   C31 7126   0.553   6.687  13.039
   56DOPE   O32 7127   0.473   6.777  13.054
   56DOPE   C32 7128   0.572   6.570  13.135
   56DOPE   H2X 7129   0.473   6.521  13.143
   56DOPE   H2Y 7130   0.645   6.497  13.093
   56DOPE   C23 7131   0.833   7.133  13.304
   56DOPE   H3R 7132   0.801   7.233  13.268
   56DOPE   H3S 7133   0.939   7.118  13.275
   56DOPE   C24 7134   0.823   7.125  13.455
   56DOPE   H4R 7135   0.715   7.118  13.479
   56DOPE   H4S 7136   0.863   7.218  13.503
   56DOPE   C25 7137   0.894   7.005  13.517
   56DOPE   H5R 7138   0.992   7.035  13.560
   56DOPE   H5S 7139   0.917   6.930  13.438
   56DOPE   C26 7140   0.807   6.940  13.626
   56DOPE   H6R 7141   0.853   6.843  13.656
   56DOPE   H6S 7142   0.707   6.919  13.583
   56DOPE   C27 7143   0.794   7.027  13.750
   56DOPE   H7R 7144   0.788   7.134  13.722
   56DOPE   H7S 7145   0.887   7.012  13.808
   56DOPE   C28 7146   0.671   6.994  13.836
   56DOPE   H8R 7147   0.579   7.015  13.778
   56DOPE   H8S 7148   0.670   7.062  13.924
   56DOPE   C29 7149   0.674   6.850  13.876
   56DOPE   H9R 7150   0.634   6.780  13.800
   56DOPE  C210 7151   0.723   6.799  13.990
   56DOPE  H10R 7152   0.722   6.690  14.003
   56DOPE  C211 7153   0.785   6.874  14.104
   56DOPE  H11R 7154   0.747   6.978  14.112
   56DOPE  H11S 7155   0.895   6.882  14.089
   56DOPE  C212 7156   0.759   6.795  14.234
   56DOPE  H12R 7157   0.799   6.693  14.221
   56DOPE  H12S 7158   0.650   6.785  14.253
   56DOPE  C213 7159   0.830   6.854  14.357
   56DOPE  H13R 7160   0.938   6.855  14.328
   56DOPE  H13S 7161   0.817   6.785  14.443
   56DOPE  C214 7162   0.795   6.995  14.402
   56DOPE  H14R 7163   0.694   6.996  14.449
   56DOPE  H14S 7164   0.794   7.065  14.316
   56DOPE  C215 7165   0.894   7.044  14.508
   56DOPE  H15R 7166   0.997   7.039  14.466
   56DOPE  H15S 7167   0.892   6.976  14.596
   56DOPE  C216 7168   0.867   7.188  14.551
   56DOPE  H16R 7169   0.865   7.253  14.461
   56DOPE  H16S 7170   0.951   7.219  14.616
   56DOPE  C217 7171   0.738   7.208  14.629
   56DOPE  H17R 7172   0.650   7.186  14.565
   56DOPE  H17S 7173   0.735   7.317  14.654
   56DOPE  C218 7174   0.730   7.128  14.758
   56DOPE  H18R 7175   0.727   7.020  14.736
   56DOPE  H18S 7176   0.640   7.155  14.816
   56DOPE  H18T 7177   0.820   7.149  14.821
   56DOPE   C33 7178   0.615   6.615  13.276
   56DOPE   H3X 7179   0.600   6.527  13.342
   56DOPE   H3Y 7180   0.553   6.699  13.313
   56DOPE   C34 7181   0.763   6.642  13.301
   56DOPE   H4X 7182   0.825   6.556  13.267
   56DOPE   H4Y 7183   0.797   6.731  13.245
   56DOPE   C35 7184   0.783   6.661  13.453
   56DOPE   H5X 7185   0.695   6.712  13.496
   56DOPE   H5Y 7186   0.872   6.727  13.467
   56DOPE   C36 7187   0.810   6.532  13.529
   56DOPE   H6X 7188   0.741   6.452  13.496
   56DOPE   H6Y 7189   0.793   6.546  13.638
   56DOPE   C37 7190   0.955   6.488  13.508
   56DOPE   H7X 7191   0.961   6.379  13.528
   56DOPE   H7Y 7192   0.982   6.501  13.401
   56DOPE   C38 7193   1.056   6.569  13.593
   56DOPE   H8X 7194   1.012   6.667  13.623
   56DOPE   H8Y 7195   1.144   6.591  13.530
   56DOPE   C39 7196   1.099   6.487  13.711
   56DOPE   H9X 7197   1.147   6.393  13.678
   56DOPE  C310 7198   1.087   6.510  13.842
   56DOPE  H10X 7199   1.123   6.432  13.911
   56DOPE  C311 7200   1.026   6.629  13.912
   56DOPE  H11X 7201   1.006   6.712  13.841
   56DOPE  H11Y 7202   0.928   6.600  13.957
   56DOPE  C312 7203   1.117   6.681  14.025
   56DOPE  H12X 7204   1.068   6.772  14.067
   56DOPE  H12Y 7205   1.216   6.711  13.983
   56DOPE  C313 7206   1.136   6.583  14.141
   56DOPE  H13X 7207   1.035   6.559  14.180
   56DOPE  H13Y 7208   1.183   6.489  14.103
   56DOPE  C314 7209   1.224   6.631  14.257
   56DOPE  H14X 7210   1.223   6.742  14.257
   56DOPE  H14Y 7211   1.329   6.599  14.237
   56DOPE  C315 7212   1.182   6.577  14.394
   56DOPE  H15X 7213   1.262   6.599  14.467
   56DOPE  H15Y 7214   1.170   6.467  14.388
   56DOPE  C316 7215   1.053   6.642  14.445
   56DOPE  H16X 7216   0.970   6.617  14.375
   56DOPE  H16Y 7217   1.069   6.752  14.441
   56DOPE  C317 7218   1.008   6.609  14.589
   56DOPE  H17X 7219   1.016   6.702  14.649
   56DOPE  H17Y 7220   0.899   6.584  14.587
   56DOPE  C318 7221   1.083   6.495  14.658
   56DOPE  H18X 7222   1.042   6.478  14.760
   56DOPE  H18Y 7223   1.076   6.402  14.599
   56DOPE  H18Z 7224   1.191   6.521  14.668
   57DOPE     N 7225   7.662   2.073  12.983
   57DOPE   HN1 7226   7.719   2.017  12.916
   57DOPE   HN2 7227   7.726   2.136  13.035
   57DOPE   HN3 7228   7.606   2.015  13.049
   57DOPE   C12 7229   7.574   2.173  12.914
   57DOPE  H12A 7230   7.470   2.133  12.908
   57DOPE  H12B 7231   7.615   2.189  12.812
   57DOPE   C11 7232   7.583   2.303  12.994
   57DOPE  H11A 7233   7.529   2.292  13.091
   57DOPE  H11B 7234   7.531   2.382  12.936
   57DOPE     P 7235   7.774   2.480  13.009
   57DOPE   O13 7236   7.673   2.570  13.067
   57DOPE   O14 7237   7.806   2.507  12.867
   57DOPE   O11 7238   7.906   2.476  13.096
   57DOPE   O12 7239   7.721   2.331  13.020
   57DOPE    C1 7240   8.010   2.573  13.071
   57DOPE    HA 7241   7.965   2.675  13.077
   57DOPE    HB 7242   8.052   2.557  12.970
   57DOPE    C2 7243   8.133   2.569  13.170
   57DOPE    HS 7244   8.224   2.550  13.110
   57DOPE   O21 7245   8.117   2.464  13.267
   57DOPE   C21 7246   8.122   2.338  13.227
   57DOPE   O22 7247   8.147   2.298  13.115
   57DOPE   C22 7248   8.119   2.246  13.351
   57DOPE   H2R 7249   8.166   2.301  13.436
   57DOPE   H2S 7250   8.186   2.161  13.328
   57DOPE    C3 7251   8.158   2.708  13.246
   57DOPE    HX 7252   8.216   2.773  13.176
   57DOPE    HY 7253   8.227   2.682  13.329
   57DOPE   O31 7254   8.041   2.783  13.293
   57DOPE   C31 7255   8.059   2.852  13.410
   57DOPE   O32 7256   8.169   2.873  13.457
   57DOPE   C32 7257   7.926   2.897  13.478
   57DOPE   H2X 7258   7.943   3.005  13.499
   57DOPE   H2Y 7259   7.846   2.895  13.402
   57DOPE   C23 7260   7.983   2.189  13.400
   57DOPE   H3R 7261   7.947   2.115  13.325
   57DOPE   H3S 7262   7.904   2.266  13.409
   57DOPE   C24 7263   7.999   2.120  13.537
   57DOPE   H4R 7264   8.108   2.101  13.550
   57DOPE   H4S 7265   7.943   2.024  13.537
   57DOPE   C25 7266   7.956   2.200  13.661
   57DOPE   H5R 7267   7.853   2.237  13.641
   57DOPE   H5S 7268   8.024   2.287  13.673
   57DOPE   C26 7269   7.958   2.119  13.792
   57DOPE   H6R 7270   8.063   2.112  13.825
   57DOPE   H6S 7271   7.918   2.018  13.769
   57DOPE   C27 7272   7.873   2.173  13.909
   57DOPE   H7R 7273   7.917   2.269  13.944
   57DOPE   H7S 7274   7.883   2.103  13.995
   57DOPE   C28 7275   7.723   2.195  13.877
   57DOPE   H8R 7276   7.710   2.228  13.772
   57DOPE   H8S 7277   7.688   2.283  13.936
   57DOPE   C29 7278   7.630   2.080  13.904
   57DOPE   H9R 7279   7.596   2.029  13.813
   57DOPE  C210 7280   7.584   2.036  14.022
   57DOPE  H10R 7281   7.520   1.947  14.022
   57DOPE  C211 7282   7.612   2.085  14.162
   57DOPE  H11R 7283   7.714   2.128  14.169
   57DOPE  H11S 7284   7.615   1.994  14.226
   57DOPE  C212 7285   7.512   2.181  14.230
   57DOPE  H12R 7286   7.414   2.177  14.178
   57DOPE  H12S 7287   7.546   2.287  14.223
   57DOPE  C213 7288   7.489   2.150  14.378
   57DOPE  H13R 7289   7.427   2.058  14.369
   57DOPE  H13S 7290   7.426   2.227  14.427
   57DOPE  C214 7291   7.612   2.114  14.465
   57DOPE  H14R 7292   7.702   2.101  14.401
   57DOPE  H14S 7293   7.595   2.018  14.517
   57DOPE  C215 7294   7.647   2.219  14.572
   57DOPE  H15R 7295   7.583   2.308  14.556
   57DOPE  H15S 7296   7.752   2.252  14.558
   57DOPE  C216 7297   7.640   2.175  14.717
   57DOPE  H16R 7298   7.744   2.158  14.753
   57DOPE  H16S 7299   7.585   2.079  14.728
   57DOPE  C217 7300   7.575   2.284  14.801
   57DOPE  H17R 7301   7.626   2.380  14.779
   57DOPE  H17S 7302   7.592   2.260  14.908
   57DOPE  C218 7303   7.426   2.302  14.777
   57DOPE  H18R 7304   7.385   2.377  14.848
   57DOPE  H18S 7305   7.374   2.205  14.793
   57DOPE  H18T 7306   7.404   2.337  14.674
   57DOPE   C33 7307   7.877   2.830  13.613
   57DOPE   H3X 7308   7.885   2.908  13.692
   57DOPE   H3Y 7309   7.954   2.757  13.647
   57DOPE   C34 7310   7.731   2.775  13.627
   57DOPE   H4X 7311   7.666   2.819  13.549
   57DOPE   H4Y 7312   7.718   2.665  13.618
   57DOPE   C35 7313   7.669   2.805  13.764
   57DOPE   H5X 7314   7.644   2.912  13.753
   57DOPE   H5Y 7315   7.745   2.793  13.845
   57DOPE   C36 7316   7.533   2.751  13.811
   57DOPE   H6X 7317   7.536   2.643  13.837
   57DOPE   H6Y 7318   7.457   2.763  13.731
   57DOPE   C37 7319   7.493   2.840  13.932
   57DOPE   H7X 7320   7.580   2.907  13.947
   57DOPE   H7Y 7321   7.409   2.906  13.903
   57DOPE   C38 7322   7.466   2.774  14.069
   57DOPE   H8X 7323   7.533   2.687  14.085
   57DOPE   H8Y 7324   7.362   2.737  14.071
   57DOPE   C39 7325   7.489   2.883  14.173
   57DOPE   H9X 7326   7.404   2.951  14.184
   57DOPE  C310 7327   7.599   2.902  14.249
   57DOPE  H10X 7328   7.599   2.984  14.322
   57DOPE  C311 7329   7.724   2.817  14.250
   57DOPE  H11X 7330   7.693   2.750  14.334
   57DOPE  H11Y 7331   7.734   2.757  14.157
   57DOPE  C312 7332   7.864   2.868  14.296
   57DOPE  H12X 7333   7.860   2.883  14.406
   57DOPE  H12Y 7334   7.867   2.968  14.247
   57DOPE  C313 7335   8.004   2.805  14.258
   57DOPE  H13X 7336   8.008   2.806  14.147
   57DOPE  H13Y 7337   8.080   2.878  14.293
   57DOPE  C314 7338   8.061   2.665  14.302
   57DOPE  H14X 7339   8.158   2.652  14.250
   57DOPE  H14Y 7340   7.990   2.589  14.262
   57DOPE  C315 7341   8.083   2.626  14.450
   57DOPE  H15X 7342   7.980   2.612  14.489
   57DOPE  H15Y 7343   8.137   2.705  14.506
   57DOPE  C316 7344   8.144   2.486  14.479
   57DOPE  H16X 7345   8.249   2.487  14.441
   57DOPE  H16Y 7346   8.088   2.409  14.422
   57DOPE  C317 7347   8.149   2.443  14.628
   57DOPE  H17X 7348   8.228   2.364  14.635
   57DOPE  H17Y 7349   8.182   2.528  14.691
   57DOPE  C318 7350   8.022   2.380  14.690
   57DOPE  H18X 7351   8.049   2.309  14.771
   57DOPE  H18Y 7352   7.957   2.457  14.736
   57DOPE  H18Z 7353   7.963   2.325  14.614
   58DOPE     N 7354   7.496   5.855  12.777
   58DOPE   HN1 7355   7.403   5.812  12.795
   58DOPE   HN2 7356   7.516   5.851  12.675
   58DOPE   HN3 7357   7.567   5.800  12.828
   58DOPE   C12 7358   7.494   5.996  12.829
   58DOPE  H12A 7359   7.415   6.050  12.773
   58DOPE  H12B 7360   7.592   6.044  12.809
   58DOPE   C11 7361   7.465   5.998  12.979
   58DOPE  H11A 7362   7.443   6.102  13.011
   58DOPE  H11B 7363   7.555   5.965  13.036
   58DOPE     P 7364   7.294   5.906  13.152
   58DOPE   O13 7365   7.164   5.837  13.143
   58DOPE   O14 7366   7.300   6.044  13.205
   58DOPE   O11 7367   7.399   5.814  13.228
   58DOPE   O12 7368   7.355   5.911  13.005
   58DOPE    C1 7369   7.471   5.713  13.158
   58DOPE    HA 7370   7.530   5.756  13.073
   58DOPE    HB 7371   7.401   5.639  13.114
   58DOPE    C2 7372   7.576   5.639  13.246
   58DOPE    HS 7373   7.595   5.539  13.202
   58DOPE   O21 7374   7.536   5.635  13.386
   58DOPE   C21 7375   7.484   5.519  13.417
   58DOPE   O22 7376   7.460   5.429  13.338
   58DOPE   C22 7377   7.469   5.498  13.568
   58DOPE   H2R 7378   7.559   5.537  13.619
   58DOPE   H2S 7379   7.465   5.388  13.584
   58DOPE    C3 7380   7.713   5.709  13.238
   58DOPE    HX 7381   7.754   5.696  13.136
   58DOPE    HY 7382   7.777   5.653  13.309
   58DOPE   O31 7383   7.699   5.849  13.269
   58DOPE   C31 7384   7.789   5.896  13.351
   58DOPE   O32 7385   7.898   5.845  13.371
   58DOPE   C32 7386   7.738   6.025  13.414
   58DOPE   H2X 7387   7.825   6.091  13.434
   58DOPE   H2Y 7388   7.671   6.076  13.341
   58DOPE   C23 7389   7.341   5.559  13.628
   58DOPE   H3R 7390   7.301   5.491  13.706
   58DOPE   H3S 7391   7.262   5.570  13.550
   58DOPE   C24 7392   7.369   5.694  13.692
   58DOPE   H4R 7393   7.423   5.760  13.620
   58DOPE   H4S 7394   7.435   5.679  13.780
   58DOPE   C25 7395   7.241   5.764  13.736
   58DOPE   H5R 7396   7.176   5.692  13.791
   58DOPE   H5S 7397   7.185   5.799  13.646
   58DOPE   C26 7398   7.270   5.882  13.828
   58DOPE   H6R 7399   7.348   5.945  13.778
   58DOPE   H6S 7400   7.313   5.843  13.923
   58DOPE   C27 7401   7.147   5.969  13.860
   58DOPE   H7R 7402   7.062   5.902  13.884
   58DOPE   H7S 7403   7.119   6.026  13.769
   58DOPE   C28 7404   7.171   6.064  13.979
   58DOPE   H8R 7405   7.187   6.001  14.069
   58DOPE   H8S 7406   7.077   6.122  13.995
   58DOPE   C29 7407   7.289   6.155  13.956
   58DOPE   H9R 7408   7.363   6.119  13.883
   58DOPE  C210 7409   7.313   6.273  14.016
   58DOPE  H10R 7410   7.406   6.327  13.990
   58DOPE  C211 7411   7.228   6.341  14.119
   58DOPE  H11R 7412   7.137   6.283  14.143
   58DOPE  H11S 7413   7.194   6.438  14.079
   58DOPE  C212 7414   7.308   6.369  14.249
   58DOPE  H12R 7415   7.239   6.417  14.322
   58DOPE  H12S 7416   7.391   6.439  14.227
   58DOPE  C213 7417   7.362   6.245  14.320
   58DOPE  H13R 7418   7.432   6.275  14.401
   58DOPE  H13S 7419   7.418   6.181  14.249
   58DOPE  C214 7420   7.247   6.166  14.383
   58DOPE  H14R 7421   7.163   6.162  14.310
   58DOPE  H14S 7422   7.210   6.220  14.473
   58DOPE  C215 7423   7.283   6.022  14.416
   58DOPE  H15R 7424   7.352   6.018  14.503
   58DOPE  H15S 7425   7.335   5.976  14.330
   58DOPE  C216 7426   7.154   5.944  14.443
   58DOPE  H16R 7427   7.177   5.837  14.460
   58DOPE  H16S 7428   7.090   5.949  14.353
   58DOPE  C217 7429   7.075   5.995  14.563
   58DOPE  H17R 7430   6.982   5.934  14.566
   58DOPE  H17S 7431   7.045   6.101  14.545
   58DOPE  C218 7432   7.141   5.984  14.700
   58DOPE  H18R 7433   7.136   5.879  14.736
   58DOPE  H18S 7434   7.088   6.047  14.774
   58DOPE  H18T 7435   7.248   6.015  14.696
   58DOPE   C33 7436   7.660   5.998  13.544
   58DOPE   H3X 7437   7.569   5.937  13.523
   58DOPE   H3Y 7438   7.624   6.096  13.583
   58DOPE   C34 7439   7.745   5.930  13.652
   58DOPE   H4X 7440   7.754   5.822  13.629
   58DOPE   H4Y 7441   7.847   5.973  13.651
   58DOPE   C35 7442   7.687   5.949  13.792
   58DOPE   H5X 7443   7.585   5.904  13.795
   58DOPE   H5Y 7444   7.676   6.057  13.813
   58DOPE   C36 7445   7.775   5.886  13.901
   58DOPE   H6X 7446   7.879   5.922  13.888
   58DOPE   H6Y 7447   7.776   5.776  13.888
   58DOPE   C37 7448   7.729   5.922  14.043
   58DOPE   H7X 7449   7.798   5.873  14.115
   58DOPE   H7Y 7450   7.738   6.031  14.057
   58DOPE   C38 7451   7.584   5.881  14.076
   58DOPE   H8X 7452   7.513   5.933  14.007
   58DOPE   H8Y 7453   7.559   5.916  14.178
   58DOPE   C39 7454   7.567   5.731  14.064
   58DOPE   H9X 7455   7.561   5.693  13.961
   58DOPE  C310 7456   7.562   5.645  14.167
   58DOPE  H10X 7457   7.552   5.538  14.145
   58DOPE  C311 7458   7.571   5.682  14.313
   58DOPE  H11X 7459   7.496   5.759  14.338
   58DOPE  H11Y 7460   7.546   5.591  14.372
   58DOPE  C312 7461   7.710   5.730  14.362
   58DOPE  H12X 7462   7.734   5.828  14.316
   58DOPE  H12Y 7463   7.787   5.658  14.327
   58DOPE  C313 7464   7.720   5.742  14.515
   58DOPE  H13X 7465   7.651   5.670  14.563
   58DOPE  H13Y 7466   7.823   5.713  14.545
   58DOPE  C314 7467   7.693   5.886  14.562
   58DOPE  H14X 7468   7.587   5.912  14.541
   58DOPE  H14Y 7469   7.756   5.954  14.501
   58DOPE  C315 7470   7.724   5.914  14.710
   58DOPE  H15X 7471   7.827   5.880  14.735
   58DOPE  H15Y 7472   7.655   5.855  14.775
   58DOPE  C316 7473   7.708   6.064  14.743
   58DOPE  H16X 7474   7.650   6.111  14.662
   58DOPE  H16Y 7475   7.809   6.111  14.744
   58DOPE  C317 7476   7.636   6.094  14.875
   58DOPE  H17X 7477   7.630   6.205  14.886
   58DOPE  H17Y 7478   7.532   6.056  14.868
   58DOPE  C318 7479   7.704   6.036  15.000
   58DOPE  H18X 7480   7.649   6.065  15.092
   58DOPE  H18Y 7481   7.706   5.925  14.994
   58DOPE  H18Z 7482   7.808   6.073  15.008
   59DOPE     N 7483   7.485   0.958  12.835
   59DOPE   HN1 7484   7.438   1.006  12.914
   59DOPE   HN2 7485   7.447   0.988  12.743
   59DOPE   HN3 7486   7.474   0.856  12.846
   59DOPE   C12 7487   7.632   0.991  12.844
   59DOPE  H12A 7488   7.673   0.998  12.740
   59DOPE  H12B 7489   7.681   0.905  12.894
   59DOPE   C11 7490   7.658   1.121  12.923
   59DOPE  H11A 7491   7.641   1.207  12.854
   59DOPE  H11B 7492   7.765   1.126  12.953
   59DOPE     P 7493   7.593   1.054  13.170
   59DOPE   O13 7494   7.659   0.927  13.130
   59DOPE   O14 7495   7.460   1.046  13.233
   59DOPE   O11 7496   7.692   1.143  13.255
   59DOPE   O12 7497   7.572   1.137  13.035
   59DOPE    C1 7498   7.707   1.285  13.244
   59DOPE    HA 7499   7.630   1.330  13.179
   59DOPE    HB 7500   7.807   1.304  13.198
   59DOPE    C2 7501   7.705   1.362  13.380
   59DOPE    HS 7502   7.734   1.467  13.359
   59DOPE   O21 7503   7.794   1.302  13.477
   59DOPE   C21 7504   7.919   1.342  13.471
   59DOPE   O22 7505   7.965   1.419  13.389
   59DOPE   C22 7506   7.997   1.275  13.585
   59DOPE   H2R 7507   8.105   1.292  13.568
   59DOPE   H2S 7508   7.976   1.167  13.575
   59DOPE    C3 7509   7.564   1.368  13.446
   59DOPE    HX 7510   7.492   1.404  13.368
   59DOPE    HY 7511   7.565   1.445  13.526
   59DOPE   O31 7512   7.520   1.240  13.493
   59DOPE   C31 7513   7.553   1.210  13.618
   59DOPE   O32 7514   7.599   1.287  13.700
   59DOPE   C32 7515   7.515   1.065  13.646
   59DOPE   H2X 7516   7.502   1.054  13.756
   59DOPE   H2Y 7517   7.416   1.048  13.598
   59DOPE   C23 7518   7.957   1.316  13.729
   59DOPE   H3R 7519   7.847   1.327  13.739
   59DOPE   H3S 7520   8.004   1.414  13.755
   59DOPE   C24 7521   8.004   1.209  13.828
   59DOPE   H4R 7522   8.113   1.197  13.812
   59DOPE   H4S 7523   7.955   1.113  13.800
   59DOPE   C25 7524   7.977   1.232  13.977
   59DOPE   H5R 7525   7.966   1.133  14.026
   59DOPE   H5S 7526   7.881   1.287  13.989
   59DOPE   C26 7527   8.090   1.304  14.052
   59DOPE   H6R 7528   8.115   1.399  14.000
   59DOPE   H6S 7529   8.182   1.241  14.048
   59DOPE   C27 7530   8.052   1.330  14.199
   59DOPE   H7R 7531   7.955   1.280  14.218
   59DOPE   H7S 7532   8.029   1.438  14.211
   59DOPE   C28 7533   8.159   1.292  14.304
   59DOPE   H8R 7534   8.185   1.381  14.365
   59DOPE   H8S 7535   8.253   1.263  14.252
   59DOPE   C29 7536   8.108   1.182  14.393
   59DOPE   H9R 7537   7.999   1.166  14.389
   59DOPE  C210 7538   8.181   1.104  14.475
   59DOPE  H10R 7539   8.127   1.027  14.532
   59DOPE  C211 7540   8.330   1.109  14.498
   59DOPE  H11R 7541   8.378   1.191  14.440
   59DOPE  H11S 7542   8.376   1.013  14.464
   59DOPE  C212 7543   8.362   1.129  14.647
   59DOPE  H12R 7544   8.312   1.221  14.682
   59DOPE  H12S 7545   8.472   1.144  14.659
   59DOPE  C213 7546   8.319   1.010  14.735
   59DOPE  H13R 7547   8.396   0.931  14.735
   59DOPE  H13S 7548   8.230   0.962  14.690
   59DOPE  C214 7549   8.288   1.045  14.881
   59DOPE  H14R 7550   8.255   1.151  14.888
   59DOPE  H14S 7551   8.381   1.034  14.941
   59DOPE  C215 7552   8.177   0.953  14.934
   59DOPE  H15R 7553   8.173   0.961  15.045
   59DOPE  H15S 7554   8.205   0.848  14.911
   59DOPE  C216 7555   8.040   0.990  14.875
   59DOPE  H16R 7556   8.040   0.977  14.765
   59DOPE  H16S 7557   8.023   1.097  14.896
   59DOPE  C217 7558   7.922   0.911  14.931
   59DOPE  H17R 7559   7.916   0.928  15.041
   59DOPE  H17S 7560   7.942   0.803  14.915
   59DOPE  C218 7561   7.787   0.944  14.868
   59DOPE  H18R 7562   7.711   0.869  14.899
   59DOPE  H18S 7563   7.793   0.944  14.757
   59DOPE  H18T 7564   7.752   1.044  14.901
   59DOPE   C33 7565   7.615   0.962  13.589
   59DOPE   H3X 7566   7.650   0.994  13.488
   59DOPE   H3Y 7567   7.561   0.866  13.574
   59DOPE   C34 7568   7.738   0.931  13.677
   59DOPE   H4X 7569   7.789   0.843  13.634
   59DOPE   H4Y 7570   7.808   1.017  13.673
   59DOPE   C35 7571   7.707   0.900  13.825
   59DOPE   H5X 7572   7.678   0.995  13.875
   59DOPE   H5Y 7573   7.800   0.865  13.875
   59DOPE   C36 7574   7.596   0.794  13.845
   59DOPE   H6X 7575   7.625   0.699  13.795
   59DOPE   H6Y 7576   7.503   0.828  13.795
   59DOPE   C37 7577   7.563   0.766  13.992
   59DOPE   H7X 7578   7.498   0.677  13.997
   59DOPE   H7Y 7579   7.656   0.745  14.048
   59DOPE   C38 7580   7.490   0.887  14.053
   59DOPE   H8X 7581   7.406   0.914  13.986
   59DOPE   H8Y 7582   7.562   0.971  14.050
   59DOPE   C39 7583   7.438   0.864  14.192
   59DOPE   H9X 7584   7.406   0.762  14.216
   59DOPE  C310 7585   7.427   0.961  14.285
   59DOPE  H10X 7586   7.386   0.937  14.384
   59DOPE  C311 7587   7.465   1.105  14.264
   59DOPE  H11X 7588   7.512   1.125  14.165
   59DOPE  H11Y 7589   7.375   1.170  14.267
   59DOPE  C312 7590   7.561   1.154  14.371
   59DOPE  H12X 7591   7.601   1.253  14.339
   59DOPE  H12Y 7592   7.649   1.086  14.383
   59DOPE  C313 7593   7.490   1.174  14.505
   59DOPE  H13X 7594   7.385   1.207  14.486
   59DOPE  H13Y 7595   7.485   1.079  14.562
   59DOPE  C314 7596   7.558   1.283  14.586
   59DOPE  H14X 7597   7.495   1.306  14.674
   59DOPE  H14Y 7598   7.564   1.377  14.527
   59DOPE  C315 7599   7.699   1.249  14.627
   59DOPE  H15X 7600   7.764   1.237  14.538
   59DOPE  H15Y 7601   7.698   1.152  14.682
   59DOPE  C316 7602   7.755   1.359  14.717
   59DOPE  H16X 7603   7.678   1.390  14.791
   59DOPE  H16Y 7604   7.780   1.448  14.656
   59DOPE  C317 7605   7.877   1.310  14.792
   59DOPE  H17X 7606   7.910   1.390  14.862
   59DOPE  H17Y 7607   7.847   1.223  14.855
   59DOPE  C318 7608   7.989   1.269  14.698
   59DOPE  H18X 7609   8.005   1.346  14.620
   59DOPE  H18Y 7610   8.085   1.252  14.753
   59DOPE  H18Z 7611   7.962   1.174  14.646
   60DOPE     N 7612   0.033   7.599  13.247
   60DOPE   HN1 7613   0.061   7.540  13.167
   60DOPE   HN2 7614   0.049   7.700  13.227
   60DOPE   HN3 7615   0.087   7.568  13.331
   60DOPE   C12 7616  -0.112   7.566  13.259
   60DOPE  H12A 7617  -0.168   7.625  13.184
   60DOPE  H12B 7618  -0.148   7.591  13.362
   60DOPE   C11 7619  -0.127   7.418  13.225
   60DOPE  H11A 7620  -0.236   7.403  13.210
   60DOPE  H11B 7621  -0.095   7.355  13.310
   60DOPE     P 7622  -0.064   7.237  13.049
   60DOPE   O13 7623   0.047   7.154  13.095
   60DOPE   O14 7624  -0.088   7.244  12.904
   60DOPE   O11 7625  -0.195   7.189  13.120
   60DOPE   O12 7626  -0.051   7.386  13.107
   60DOPE    C1 7627  -0.319   7.205  13.054
   60DOPE    HA 7628  -0.316   7.170  12.948
   60DOPE    HB 7629  -0.348   7.312  13.053
   60DOPE    C2 7630  -0.425   7.121  13.127
   60DOPE    HS 7631  -0.526   7.147  13.088
   60DOPE   O21 7632  -0.420   7.140  13.269
   60DOPE   C21 7633  -0.443   7.263  13.309
   60DOPE   O22 7634  -0.483   7.355  13.240
   60DOPE   C22 7635  -0.420   7.272  13.459
   60DOPE   H2R 7636  -0.360   7.185  13.493
   60DOPE   H2S 7637  -0.520   7.267  13.507
   60DOPE    C3 7638  -0.398   6.972  13.097
   60DOPE    HX 7639  -0.389   6.962  12.987
   60DOPE    HY 7640  -0.485   6.914  13.133
   60DOPE   O31 7641  -0.273   6.929  13.153
   60DOPE   C31 7642  -0.283   6.871  13.272
   60DOPE   O32 7643  -0.378   6.804  13.308
   60DOPE   C32 7644  -0.161   6.908  13.354
   60DOPE   H2X 7645  -0.073   6.870  13.298
   60DOPE   H2Y 7646  -0.152   7.019  13.359
   60DOPE   C23 7647  -0.349   7.402  13.498
   60DOPE   H3R 7648  -0.399   7.489  13.451
   60DOPE   H3S 7649  -0.244   7.399  13.462
   60DOPE   C24 7650  -0.349   7.422  13.649
   60DOPE   H4R 7651  -0.423   7.355  13.698
   60DOPE   H4S 7652  -0.383   7.526  13.669
   60DOPE   C25 7653  -0.210   7.398  13.708
   60DOPE   H5R 7654  -0.135   7.458  13.653
   60DOPE   H5S 7655  -0.185   7.290  13.694
   60DOPE   C26 7656  -0.201   7.433  13.856
   60DOPE   H6R 7657  -0.106   7.398  13.900
   60DOPE   H6S 7658  -0.283   7.377  13.906
   60DOPE   C27 7659  -0.213   7.585  13.880
   60DOPE   H7R 7660  -0.285   7.631  13.809
   60DOPE   H7S 7661  -0.115   7.632  13.859
   60DOPE   C28 7662  -0.258   7.623  14.021
   60DOPE   H8R 7663  -0.272   7.733  14.025
   60DOPE   H8S 7664  -0.176   7.600  14.092
   60DOPE   C29 7665  -0.388   7.554  14.057
   60DOPE   H9R 7666  -0.475   7.576  13.993
   60DOPE  C210 7667  -0.404   7.460  14.150
   60DOPE  H10R 7668  -0.505   7.419  14.166
   60DOPE  C211 7669  -0.295   7.406  14.238
   60DOPE  H11R 7670  -0.195   7.430  14.196
   60DOPE  H11S 7671  -0.299   7.295  14.241
   60DOPE  C212 7672  -0.299   7.462  14.380
   60DOPE  H12R 7673  -0.276   7.570  14.377
   60DOPE  H12S 7674  -0.218   7.412  14.438
   60DOPE  C213 7675  -0.431   7.438  14.453
   60DOPE  H13R 7676  -0.463   7.332  14.437
   60DOPE  H13S 7677  -0.511   7.502  14.409
   60DOPE  C214 7678  -0.420   7.459  14.604
   60DOPE  H14R 7679  -0.337   7.396  14.642
   60DOPE  H14S 7680  -0.514   7.426  14.654
   60DOPE  C215 7681  -0.392   7.605  14.639
   60DOPE  H15R 7682  -0.307   7.641  14.578
   60DOPE  H15S 7683  -0.361   7.612  14.746
   60DOPE  C216 7684  -0.513   7.696  14.617
   60DOPE  H16R 7685  -0.579   7.688  14.706
   60DOPE  H16S 7686  -0.572   7.664  14.529
   60DOPE  C217 7687  -0.473   7.843  14.597
   60DOPE  H17R 7688  -0.565   7.905  14.603
   60DOPE  H17S 7689  -0.432   7.854  14.494
   60DOPE  C218 7690  -0.369   7.890  14.698
   60DOPE  H18R 7691  -0.355   8.000  14.693
   60DOPE  H18S 7692  -0.270   7.843  14.678
   60DOPE  H18T 7693  -0.400   7.863  14.801
   60DOPE   C33 7694  -0.161   6.846  13.495
   60DOPE   H3X 7695  -0.053   6.841  13.520
   60DOPE   H3Y 7696  -0.198   6.741  13.496
   60DOPE   C34 7697  -0.219   6.928  13.610
   60DOPE   H4X 7698  -0.203   7.036  13.592
   60DOPE   H4Y 7699  -0.329   6.908  13.616
   60DOPE   C35 7700  -0.151   6.888  13.742
   60DOPE   H5X 7701  -0.042   6.906  13.729
   60DOPE   H5Y 7702  -0.165   6.779  13.758
   60DOPE   C36 7703  -0.193   6.963  13.869
   60DOPE   H6X 7704  -0.295   6.930  13.899
   60DOPE   H6Y 7705  -0.196   7.072  13.850
   60DOPE   C37 7706  -0.095   6.931  13.984
   60DOPE   H7X 7707  -0.096   6.821  13.998
   60DOPE   H7Y 7708   0.007   6.960  13.953
   60DOPE   C38 7709  -0.128   6.997  14.119
   60DOPE   H8X 7710  -0.062   6.950  14.196
   60DOPE   H8Y 7711  -0.232   6.971  14.147
   60DOPE   C39 7712  -0.109   7.146  14.115
   60DOPE   H9X 7713  -0.171   7.197  14.040
   60DOPE  C310 7714  -0.027   7.220  14.192
   60DOPE  H10X 7715  -0.022   7.328  14.173
   60DOPE  C311 7716   0.065   7.174  14.301
   60DOPE  H11X 7717   0.096   7.068  14.285
   60DOPE  H11Y 7718   0.157   7.235  14.295
   60DOPE  C312 7719   0.014   7.184  14.445
   60DOPE  H12X 7720  -0.062   7.264  14.455
   60DOPE  H12Y 7721   0.100   7.213  14.509
   60DOPE  C313 7722  -0.035   7.051  14.503
   60DOPE  H13X 7723  -0.145   7.044  14.490
   60DOPE  H13Y 7724   0.010   6.967  14.446
   60DOPE  C314 7725   0.001   7.028  14.651
   60DOPE  H14X 7726   0.111   7.043  14.663
   60DOPE  H14Y 7727  -0.020   6.922  14.675
   60DOPE  C315 7728  -0.073   7.116  14.753
   60DOPE  H15X 7729  -0.035   7.089  14.854
   60DOPE  H15Y 7730  -0.182   7.092  14.751
   60DOPE  C316 7731  -0.055   7.268  14.735
   60DOPE  H16X 7732  -0.121   7.303  14.653
   60DOPE  H16Y 7733   0.050   7.289  14.707
   60DOPE  C317 7734  -0.087   7.348  14.862
   60DOPE  H17X 7735  -0.189   7.322  14.895
   60DOPE  H17Y 7736  -0.015   7.316  14.940
   60DOPE  C318 7737  -0.075   7.500  14.845
   60DOPE  H18X 7738   0.028   7.528  14.818
   60DOPE  H18Y 7739  -0.144   7.535  14.765
   60DOPE  H18Z 7740  -0.102   7.551  14.940
   6123SM     N 7741   3.231   4.324  17.702
   6123SM   C15 7742   3.118   4.290  17.609
   6123SM  H15A 7743   3.027   4.271  17.664
   6123SM  H15B 7744   3.143   4.201  17.554
   6123SM  H15C 7745   3.101   4.370  17.538
   6123SM   C14 7746   3.194   4.444  17.785
   6123SM  H14A 7747   3.178   4.532  17.724
   6123SM  H14B 7748   3.272   4.464  17.857
   6123SM  H14C 7749   3.104   4.425  17.841
   6123SM   C13 7750   3.254   4.208  17.794
   6123SM  H13A 7751   3.166   4.180  17.849
   6123SM  H13B 7752   3.334   4.229  17.864
   6123SM  H13C 7753   3.286   4.123  17.735
   6123SM   C12 7754   3.358   4.350  17.622
   6123SM  H12A 7755   3.440   4.355  17.692
   6123SM  H12B 7756   3.351   4.445  17.573
   6123SM   C11 7757   3.398   4.243  17.516
   6123SM  H11A 7758   3.494   4.275  17.469
   6123SM  H11B 7759   3.322   4.243  17.436
   6123SM     P 7760   3.356   3.983  17.516
   6123SM   O13 7761   3.420   3.866  17.580
   6123SM   O14 7762   3.209   3.992  17.533
   6123SM   O11 7763   3.397   3.990  17.364
   6123SM   O12 7764   3.417   4.115  17.576
   6123SM   C1S 7765   3.304   4.008  17.258
   6123SM   H1S 7766   3.262   4.111  17.258
   6123SM   H1T 7767   3.219   3.937  17.268
   6123SM    NF 7768   3.470   4.089  17.097
   6123SM   HNF 7769   3.438   4.183  17.104
   6123SM   C2S 7770   3.373   3.984  17.120
   6123SM   H2S 7771   3.424   3.885  17.125
   6123SM   C3S 7772   3.266   3.976  17.007
   6123SM   H3S 7773   3.202   4.067  17.010
   6123SM    O3 7774   3.181   3.862  17.026
   6123SM   HO3 7775   3.204   3.829  17.114
   6123SM   C4S 7776   3.332   3.963  16.872
   6123SM   H4S 7777   3.362   3.860  16.848
   6123SM   C5S 7778   3.356   4.062  16.782
   6123SM   H5S 7779   3.323   4.164  16.805
   6123SM   C6S 7780   3.421   4.044  16.647
   6123SM   H6S 7781   3.356   4.095  16.572
   6123SM   H6T 7782   3.423   3.937  16.617
   6123SM   C7S 7783   3.566   4.093  16.625
   6123SM   H7S 7784   3.636   4.014  16.659
   6123SM   H7T 7785   3.585   4.184  16.685
   6123SM   C8S 7786   3.596   4.129  16.477
   6123SM   H8S 7787   3.704   4.153  16.466
   6123SM   H8T 7788   3.541   4.223  16.454
   6123SM   C9S 7789   3.556   4.025  16.371
   6123SM   H9S 7790   3.450   3.996  16.383
   6123SM   H9T 7791   3.618   3.933  16.383
   6123SM  C10S 7792   3.573   4.082  16.229
   6123SM  H10S 7793   3.680   4.108  16.214
   6123SM  H10T 7794   3.516   4.177  16.221
   6123SM  C11S 7795   3.528   3.989  16.116
   6123SM  H11S 7796   3.418   3.974  16.121
   6123SM  H11T 7797   3.573   3.889  16.128
   6123SM  C12S 7798   3.567   4.044  15.977
   6123SM  H12S 7799   3.670   4.086  15.982
   6123SM  H12T 7800   3.500   4.128  15.948
   6123SM  C13S 7801   3.562   3.938  15.866
   6123SM  H13S 7802   3.468   3.881  15.878
   6123SM  H13T 7803   3.645   3.866  15.880
   6123SM  C14S 7804   3.570   3.996  15.724
   6123SM  H14S 7805   3.640   3.932  15.666
   6123SM  H14T 7806   3.615   4.097  15.726
   6123SM  C15S 7807   3.435   4.000  15.649
   6123SM  H15S 7808   3.406   4.105  15.629
   6123SM  H15T 7809   3.355   3.955  15.712
   6123SM  C16S 7810   3.443   3.924  15.515
   6123SM  H16S 7811   3.498   3.829  15.535
   6123SM  H16T 7812   3.503   3.984  15.444
   6123SM  C17S 7813   3.308   3.889  15.452
   6123SM  H17S 7814   3.238   3.974  15.466
   6123SM  H17T 7815   3.264   3.802  15.505
   6123SM  C18S 7816   3.316   3.860  15.302
   6123SM  H18S 7817   3.345   3.951  15.247
   6123SM  H18T 7818   3.218   3.825  15.263
   6123SM  H18U 7819   3.392   3.781  15.281
   6123SM   C1F 7820   3.600   4.067  17.075
   6123SM    OF 7821   3.642   3.954  17.050
   6123SM   C2F 7822   3.691   4.186  17.073
   6123SM   H2F 7823   3.726   4.202  16.968
   6123SM   H2G 7824   3.781   4.159  17.133
   6123SM   C3F 7825   3.635   4.321  17.129
   6123SM   H3F 7826   3.720   4.392  17.128
   6123SM   H3G 7827   3.606   4.307  17.235
   6123SM   C4F 7828   3.519   4.390  17.052
   6123SM   H4F 7829   3.516   4.496  17.083
   6123SM   H4G 7830   3.422   4.346  17.082
   6123SM   C5F 7831   3.531   4.383  16.899
   6123SM   H5F 7832   3.534   4.277  16.869
   6123SM   H5G 7833   3.626   4.431  16.867
   6123SM   C6F 7834   3.413   4.450  16.826
   6123SM   H6F 7835   3.412   4.558  16.850
   6123SM   H6G 7836   3.318   4.407  16.863
   6123SM   C7F 7837   3.421   4.430  16.674
   6123SM   H7F 7838   3.411   4.322  16.650
   6123SM   H7G 7839   3.520   4.464  16.638
   6123SM   C8F 7840   3.312   4.507  16.598
   6123SM   H8F 7841   3.325   4.615  16.619
   6123SM   H8G 7842   3.211   4.477  16.635
   6123SM   C9F 7843   3.318   4.485  16.446
   6123SM   H9F 7844   3.424   4.493  16.411
   6123SM   H9G 7845   3.261   4.566  16.395
   6123SM  C10F 7846   3.257   4.352  16.400
   6123SM  H10F 7847   3.151   4.347  16.434
   6123SM  H10G 7848   3.312   4.268  16.448
   6123SM  C11F 7849   3.261   4.333  16.248
   6123SM  H11F 7850   3.366   4.338  16.214
   6123SM  H11G 7851   3.206   4.416  16.198
   6123SM  C12F 7852   3.199   4.199  16.207
   6123SM  H12F 7853   3.090   4.198  16.227
   6123SM  H12G 7854   3.246   4.120  16.269
   6123SM  C13F 7855   3.226   4.163  16.060
   6123SM  H13F 7856   3.212   4.054  16.048
   6123SM  H13G 7857   3.332   4.187  16.037
   6123SM  C14F 7858   3.137   4.234  15.957
   6123SM  H14F 7859   3.155   4.343  15.959
   6123SM  H14G 7860   3.030   4.217  15.984
   6123SM  C15F 7861   3.162   4.178  15.816
   6123SM  H15F 7862   3.158   4.067  15.822
   6123SM  H15G 7863   3.265   4.205  15.783
   6123SM  C16F 7864   3.059   4.224  15.712
   6123SM  H16F 7865   3.074   4.332  15.688
   6123SM  H16G 7866   2.958   4.214  15.757
   6123SM  C17F 7867   3.064   4.140  15.584
   6123SM  H17F 7868   3.065   4.033  15.614
   6123SM  H17G 7869   3.158   4.161  15.528
   6123SM  C18F 7870   2.942   4.162  15.493
   6123SM  H18F 7871   2.953   4.260  15.440
   6123SM  H18G 7872   2.853   4.170  15.558
   6123SM  C19F 7873   2.915   4.047  15.394
   6123SM  H19F 7874   2.807   4.051  15.368
   6123SM  H19G 7875   2.932   3.950  15.445
   6123SM  C20F 7876   2.993   4.051  15.261
   6123SM  H20F 7877   2.956   3.968  15.198
   6123SM  H20G 7878   3.101   4.035  15.280
   6123SM  C21F 7879   2.974   4.183  15.186
   6123SM  H21F 7880   3.041   4.258  15.232
   6123SM  H21G 7881   2.869   4.216  15.197
   6123SM  C22F 7882   3.006   4.176  15.037
   6123SM  H22F 7883   2.948   4.093  14.991
   6123SM  H22G 7884   3.114   4.151  15.026
   6123SM  C23F 7885   2.980   4.308  14.962
   6123SM  H23F 7886   3.012   4.300  14.856
   6123SM  H23G 7887   3.036   4.391  15.010
   6123SM  H23H 7888   2.872   4.333  14.964
   6223SM     N 7889   3.418   3.231  17.739
   6223SM   C15 7890   3.312   3.128  17.716
   6223SM  H15A 7891   3.215   3.159  17.753
   6223SM  H15B 7892   3.337   3.032  17.759
   6223SM  H15C 7893   3.299   3.112  17.610
   6223SM   C14 7894   3.430   3.257  17.886
   6223SM  H14A 7895   3.467   3.169  17.937
   6223SM  H14B 7896   3.335   3.282  17.930
   6223SM  H14C 7897   3.499   3.337  17.907
   6223SM   C13 7898   3.546   3.175  17.686
   6223SM  H13A 7899   3.628   3.245  17.695
   6223SM  H13B 7900   3.536   3.150  17.582
   6223SM  H13C 7901   3.573   3.083  17.737
   6223SM   C12 7902   3.382   3.360  17.665
   6223SM  H12A 7903   3.450   3.438  17.694
   6223SM  H12B 7904   3.283   3.390  17.693
   6223SM   C11 7905   3.382   3.356  17.509
   6223SM  H11A 7906   3.481   3.325  17.472
   6223SM  H11B 7907   3.365   3.459  17.471
   6223SM     P 7908   3.129   3.305  17.468
   6223SM   O13 7909   3.057   3.179  17.495
   6223SM   O14 7910   3.111   3.415  17.565
   6223SM   O11 7911   3.100   3.356  17.319
   6223SM   O12 7912   3.283   3.266  17.461
   6223SM   C1S 7913   3.179   3.300  17.212
   6223SM   H1S 7914   3.177   3.189  17.218
   6223SM   H1T 7915   3.285   3.332  17.220
   6223SM    NF 7916   3.194   3.453  17.011
   6223SM   HNF 7917   3.138   3.533  16.992
   6223SM   C2S 7918   3.127   3.335  17.068
   6223SM   H2S 7919   3.153   3.249  17.003
   6223SM   C3S 7920   2.972   3.353  17.065
   6223SM   H3S 7921   2.946   3.441  17.128
   6223SM    O3 7922   2.896   3.243  17.115
   6223SM   HO3 7923   2.953   3.196  17.176
   6223SM   C4S 7924   2.936   3.388  16.922
   6223SM   H4S 7925   2.945   3.495  16.901
   6223SM   C5S 7926   2.895   3.309  16.821
   6223SM   H5S 7927   2.880   3.201  16.837
   6223SM   C6S 7928   2.866   3.364  16.683
   6223SM   H6S 7929   2.885   3.473  16.678
   6223SM   H6T 7930   2.759   3.350  16.656
   6223SM   C7S 7931   2.956   3.295  16.577
   6223SM   H7S 7932   2.912   3.196  16.553
   6223SM   H7T 7933   3.059   3.281  16.615
   6223SM   C8S 7934   2.966   3.379  16.449
   6223SM   H8S 7935   3.033   3.465  16.471
   6223SM   H8T 7936   2.866   3.424  16.431
   6223SM   C9S 7937   3.016   3.305  16.323
   6223SM   H9S 7938   2.975   3.202  16.323
   6223SM   H9T 7939   3.127   3.298  16.328
   6223SM  C10S 7940   2.975   3.371  16.189
   6223SM  H10S 7941   2.989   3.481  16.196
   6223SM  H10T 7942   2.867   3.352  16.172
   6223SM  C11S 7943   3.055   3.323  16.066
   6223SM  H11S 7944   3.059   3.212  16.065
   6223SM  H11T 7945   3.159   3.361  16.077
   6223SM  C12S 7946   2.998   3.373  15.932
   6223SM  H12S 7947   2.968   3.480  15.945
   6223SM  H12T 7948   2.906   3.316  15.906
   6223SM  C13S 7949   3.099   3.369  15.816
   6223SM  H13S 7950   3.124   3.264  15.789
   6223SM  H13T 7951   3.192   3.417  15.853
   6223SM  C14S 7952   3.055   3.446  15.689
   6223SM  H14S 7953   3.145   3.490  15.641
   6223SM  H14T 7954   2.989   3.530  15.719
   6223SM  C15S 7955   2.987   3.359  15.582
   6223SM  H15S 7956   2.908   3.298  15.630
   6223SM  H15T 7957   3.063   3.290  15.540
   6223SM  C16S 7958   2.923   3.439  15.467
   6223SM  H16S 7959   2.832   3.490  15.506
   6223SM  H16T 7960   2.889   3.367  15.389
   6223SM  C17S 7961   3.009   3.549  15.403
   6223SM  H17S 7962   3.108   3.506  15.376
   6223SM  H17T 7963   3.027   3.630  15.476
   6223SM  C18S 7964   2.944   3.608  15.277
   6223SM  H18S 7965   2.919   3.528  15.205
   6223SM  H18T 7966   3.014   3.679  15.227
   6223SM  H18U 7967   2.851   3.663  15.302
   6223SM   C1F 7968   3.320   3.452  16.967
   6223SM    OF 7969   3.399   3.366  17.002
   6223SM   C2F 7970   3.358   3.557  16.866
   6223SM   H2F 7971   3.437   3.513  16.801
   6223SM   H2G 7972   3.403   3.643  16.920
   6223SM   C3F 7973   3.241   3.607  16.777
   6223SM   H3F 7974   3.175   3.673  16.837
   6223SM   H3G 7975   3.179   3.522  16.740
   6223SM   C4F 7976   3.290   3.686  16.654
   6223SM   H4F 7977   3.321   3.616  16.573
   6223SM   H4G 7978   3.383   3.739  16.684
   6223SM   C5F 7979   3.192   3.793  16.600
   6223SM   H5F 7980   3.248   3.868  16.541
   6223SM   H5G 7981   3.144   3.845  16.685
   6223SM   C6F 7982   3.082   3.744  16.505
   6223SM   H6F 7983   3.016   3.829  16.477
   6223SM   H6G 7984   3.018   3.672  16.560
   6223SM   C7F 7985   3.134   3.677  16.376
   6223SM   H7F 7986   3.046   3.631  16.326
   6223SM   H7G 7987   3.202   3.594  16.404
   6223SM   C8F 7988   3.203   3.765  16.271
   6223SM   H8F 7989   3.269   3.841  16.319
   6223SM   H8G 7990   3.124   3.820  16.215
   6223SM   C9F 7991   3.286   3.678  16.176
   6223SM   H9F 7992   3.250   3.573  16.184
   6223SM   H9G 7993   3.392   3.679  16.209
   6223SM  C10F 7994   3.277   3.715  16.027
   6223SM  H10F 7995   3.301   3.822  16.013
   6223SM  H10G 7996   3.172   3.700  15.993
   6223SM  C11F 7997   3.370   3.628  15.941
   6223SM  H11F 7998   3.353   3.521  15.967
   6223SM  H11G 7999   3.475   3.652  15.966
   6223SM  C12F 8000   3.345   3.646  15.791
   6223SM  H12F 8001   3.364   3.751  15.762
   6223SM  H12G 8002   3.237   3.629  15.771
   6223SM  C13F 8003   3.429   3.556  15.700
   6223SM  H13F 8004   3.401   3.580  15.595
   6223SM  H13G 8005   3.403   3.449  15.718
   6223SM  C14F 8006   3.581   3.575  15.717
   6223SM  H14F 8007   3.607   3.540  15.819
   6223SM  H14G 8008   3.606   3.683  15.711
   6223SM  C15F 8009   3.668   3.497  15.617
   6223SM  H15F 8010   3.625   3.396  15.597
   6223SM  H15G 8011   3.766   3.479  15.668
   6223SM  C16F 8012   3.703   3.569  15.486
   6223SM  H16F 8013   3.782   3.511  15.435
   6223SM  H16G 8014   3.746   3.669  15.510
   6223SM  C17F 8015   3.588   3.588  15.385
   6223SM  H17F 8016   3.629   3.625  15.289
   6223SM  H17G 8017   3.518   3.666  15.423
   6223SM  C18F 8018   3.504   3.462  15.359
   6223SM  H18F 8019   3.463   3.423  15.455
   6223SM  H18G 8020   3.569   3.383  15.317
   6223SM  C19F 8021   3.386   3.490  15.266
   6223SM  H19F 8022   3.424   3.523  15.168
   6223SM  H19G 8023   3.323   3.572  15.307
   6223SM  C20F 8024   3.299   3.365  15.249
   6223SM  H20F 8025   3.243   3.345  15.343
   6223SM  H20G 8026   3.367   3.279  15.233
   6223SM  C21F 8027   3.201   3.375  15.131
   6223SM  H21F 8028   3.261   3.391  15.039
   6223SM  H21G 8029   3.138   3.466  15.142
   6223SM  C22F 8030   3.112   3.252  15.113
   6223SM  H22F 8031   3.083   3.245  15.006
   6223SM  H22G 8032   3.018   3.267  15.171
   6223SM  C23F 8033   3.174   3.119  15.157
   6223SM  H23F 8034   3.275   3.105  15.113
   6223SM  H23G 8035   3.110   3.034  15.125
   6223SM  H23H 8036   3.184   3.115  15.268
   6323SM     N 8037   4.738   4.945  17.758
   6323SM   C15 8038   4.655   4.858  17.668
   6323SM  H15A 8039   4.619   4.769  17.717
   6323SM  H15B 8040   4.712   4.831  17.580
   6323SM  H15C 8041   4.570   4.914  17.631
   6323SM   C14 8042   4.653   4.982  17.876
   6323SM  H14A 8043   4.620   4.893  17.927
   6323SM  H14B 8044   4.565   5.034  17.842
   6323SM  H14C 8045   4.707   5.043  17.946
   6323SM   C13 8046   4.859   4.868  17.802
   6323SM  H13A 8047   4.829   4.777  17.854
   6323SM  H13B 8048   4.922   4.926  17.867
   6323SM  H13C 8049   4.917   4.839  17.716
   6323SM   C12 8050   4.780   5.070  17.681
   6323SM  H12A 8051   4.844   5.131  17.742
   6323SM  H12B 8052   4.690   5.126  17.660
   6323SM   C11 8053   4.848   5.050  17.543
   6323SM  H11A 8054   4.927   4.973  17.551
   6323SM  H11B 8055   4.900   5.144  17.514
   6323SM     P 8056   4.639   5.115  17.405
   6323SM   O13 8057   4.545   5.119  17.519
   6323SM   O14 8058   4.698   5.243  17.361
   6323SM   O11 8059   4.570   5.045  17.280
   6323SM   O12 8060   4.755   5.012  17.441
   6323SM   C1S 8061   4.651   5.038  17.161
   6323SM   H1S 8062   4.729   4.960  17.172
   6323SM   H1T 8063   4.701   5.134  17.138
   6323SM    NF 8064   4.653   5.027  16.918
   6323SM   HNF 8065   4.627   5.097  16.852
   6323SM   C2S 8066   4.568   5.005  17.033
   6323SM   H2S 8067   4.539   4.898  17.036
   6323SM   C3S 8068   4.437   5.090  17.027
   6323SM   H3S 8069   4.461   5.196  17.045
   6323SM    O3 8070   4.343   5.048  17.127
   6323SM   HO3 8071   4.402   5.019  17.197
   6323SM   C4S 8072   4.377   5.073  16.890
   6323SM   H4S 8073   4.316   4.983  16.876
   6323SM   C5S 8074   4.394   5.159  16.787
   6323SM   H5S 8075   4.451   5.252  16.801
   6323SM   C6S 8076   4.337   5.140  16.649
   6323SM   H6S 8077   4.281   5.231  16.618
   6323SM   H6T 8078   4.264   5.056  16.646
   6323SM   C7S 8079   4.447   5.112  16.544
   6323SM   H7S 8080   4.507   5.024  16.574
   6323SM   H7T 8081   4.515   5.199  16.537
   6323SM   C8S 8082   4.387   5.085  16.405
   6323SM   H8S 8083   4.330   5.175  16.375
   6323SM   H8T 8084   4.316   5.000  16.412
   6323SM   C9S 8085   4.491   5.054  16.296
   6323SM   H9S 8086   4.560   4.974  16.330
   6323SM   H9T 8087   4.552   5.146  16.280
   6323SM  C10S 8088   4.426   5.011  16.164
   6323SM  H10S 8089   4.336   5.074  16.146
   6323SM  H10T 8090   4.391   4.906  16.171
   6323SM  C11S 8091   4.517   5.028  16.042
   6323SM  H11S 8092   4.612   4.972  16.058
   6323SM  H11T 8093   4.542   5.135  16.031
   6323SM  C12S 8094   4.452   4.982  15.910
   6323SM  H12S 8095   4.355   5.033  15.897
   6323SM  H12T 8096   4.433   4.872  15.916
   6323SM  C13S 8097   4.541   5.010  15.788
   6323SM  H13S 8098   4.642   4.970  15.808
   6323SM  H13T 8099   4.550   5.120  15.774
   6323SM  C14S 8100   4.488   4.947  15.659
   6323SM  H14S 8101   4.391   4.993  15.631
   6323SM  H14T 8102   4.471   4.839  15.676
   6323SM  C15S 8103   4.588   4.963  15.543
   6323SM  H15S 8104   4.687   4.927  15.577
   6323SM  H15T 8105   4.598   5.071  15.519
   6323SM  C16S 8106   4.551   4.885  15.416
   6323SM  H16S 8107   4.547   4.776  15.438
   6323SM  H16T 8108   4.632   4.900  15.343
   6323SM  C17S 8109   4.419   4.929  15.351
   6323SM  H17S 8110   4.396   5.034  15.379
   6323SM  H17T 8111   4.337   4.866  15.391
   6323SM  C18S 8112   4.422   4.919  15.198
   6323SM  H18S 8113   4.469   5.010  15.154
   6323SM  H18T 8114   4.320   4.909  15.156
   6323SM  H18U 8115   4.484   4.833  15.166
   6323SM   C1F 8116   4.757   4.950  16.893
   6323SM    OF 8117   4.776   4.847  16.957
   6323SM   C2F 8118   4.847   4.990  16.781
   6323SM   H2F 8119   4.832   4.919  16.696
   6323SM   H2G 8120   4.952   4.980  16.817
   6323SM   C3F 8121   4.836   5.134  16.728
   6323SM   H3F 8122   4.857   5.208  16.809
   6323SM   H3G 8123   4.735   5.154  16.686
   6323SM   C4F 8124   4.940   5.149  16.617
   6323SM   H4F 8125   4.913   5.073  16.541
   6323SM   H4G 8126   5.041   5.125  16.655
   6323SM   C5F 8127   4.945   5.285  16.547
   6323SM   H5F 8128   5.024   5.347  16.594
   6323SM   H5G 8129   4.849   5.338  16.559
   6323SM   C6F 8130   4.974   5.266  16.397
   6323SM   H6F 8131   5.058   5.196  16.381
   6323SM   H6G 8132   5.005   5.365  16.356
   6323SM   C7F 8133   4.849   5.221  16.319
   6323SM   H7F 8134   4.763   5.279  16.357
   6323SM   H7G 8135   4.827   5.114  16.338
   6323SM   C8F 8136   4.859   5.246  16.168
   6323SM   H8F 8137   4.869   5.149  16.115
   6323SM   H8G 8138   4.950   5.305  16.146
   6323SM   C9F 8139   4.738   5.324  16.114
   6323SM   H9F 8140   4.746   5.429  16.149
   6323SM   H9G 8141   4.644   5.283  16.155
   6323SM  C10F 8142   4.732   5.323  15.961
   6323SM  H10F 8143   4.710   5.221  15.923
   6323SM  H10G 8144   4.833   5.349  15.924
   6323SM  C11F 8145   4.630   5.424  15.905
   6323SM  H11F 8146   4.645   5.521  15.957
   6323SM  H11G 8147   4.526   5.390  15.924
   6323SM  C12F 8148   4.654   5.444  15.755
   6323SM  H12F 8149   4.616   5.356  15.699
   6323SM  H12G 8150   4.764   5.446  15.739
   6323SM  C13F 8151   4.600   5.576  15.697
   6323SM  H13F 8152   4.622   5.660  15.766
   6323SM  H13G 8153   4.489   5.567  15.691
   6323SM  C14F 8154   4.664   5.606  15.560
   6323SM  H14F 8155   4.723   5.518  15.528
   6323SM  H14G 8156   4.737   5.689  15.571
   6323SM  C15F 8157   4.567   5.639  15.444
   6323SM  H15F 8158   4.624   5.636  15.349
   6323SM  H15G 8159   4.529   5.743  15.457
   6323SM  C16F 8160   4.446   5.544  15.433
   6323SM  H16F 8161   4.386   5.570  15.343
   6323SM  H16G 8162   4.380   5.566  15.519
   6323SM  C17F 8163   4.482   5.394  15.426
   6323SM  H17F 8164   4.398   5.330  15.459
   6323SM  H17G 8165   4.567   5.372  15.494
   6323SM  C18F 8166   4.518   5.352  15.285
   6323SM  H18F 8167   4.559   5.441  15.233
   6323SM  H18G 8168   4.428   5.317  15.229
   6323SM  C19F 8169   4.627   5.247  15.278
   6323SM  H19F 8170   4.592   5.148  15.316
   6323SM  H19G 8171   4.712   5.280  15.342
   6323SM  C20F 8172   4.675   5.235  15.134
   6323SM  H20F 8173   4.686   5.337  15.092
   6323SM  H20G 8174   4.599   5.182  15.072
   6323SM  C21F 8175   4.810   5.167  15.125
   6323SM  H21F 8176   4.883   5.215  15.193
   6323SM  H21G 8177   4.845   5.185  15.021
   6323SM  C22F 8178   4.806   5.017  15.150
   6323SM  H22F 8179   4.715   4.972  15.105
   6323SM  H22G 8180   4.802   4.999  15.259
   6323SM  C23F 8181   4.930   4.951  15.090
   6323SM  H23F 8182   4.909   4.919  14.986
   6323SM  H23G 8183   4.960   4.861  15.147
   6323SM  H23H 8184   5.016   5.021  15.089
   6423SM     N 8185   5.455   3.830  17.750
   6423SM   C15 8186   5.353   3.724  17.779
   6423SM  H15A 8187   5.278   3.724  17.702
   6423SM  H15B 8188   5.306   3.736  17.876
   6423SM  H15C 8189   5.397   3.626  17.774
   6423SM   C14 8190   5.384   3.961  17.733
   6423SM  H14A 8191   5.320   3.953  17.646
   6423SM  H14B 8192   5.456   4.040  17.716
   6423SM  H14C 8193   5.323   3.984  17.819
   6423SM   C13 8194   5.552   3.840  17.863
   6423SM  H13A 8195   5.500   3.865  17.955
   6423SM  H13B 8196   5.624   3.917  17.844
   6423SM  H13C 8197   5.603   3.746  17.878
   6423SM   C12 8198   5.527   3.794  17.620
   6423SM  H12A 8199   5.539   3.687  17.617
   6423SM  H12B 8200   5.625   3.839  17.619
   6423SM   C11 8201   5.456   3.832  17.488
   6423SM  H11A 8202   5.515   3.795  17.402
   6423SM  H11B 8203   5.451   3.943  17.476
   6423SM     P 8204   5.302   3.628  17.450
   6423SM   O13 8205   5.410   3.553  17.517
   6423SM   O14 8206   5.162   3.598  17.487
   6423SM   O11 8207   5.322   3.631  17.293
   6423SM   O12 8208   5.323   3.782  17.487
   6423SM   C1S 8209   5.260   3.739  17.222
   6423SM   H1S 8210   5.293   3.838  17.262
   6423SM   H1T 8211   5.150   3.734  17.229
   6423SM    NF 8212   5.275   3.868  17.014
   6423SM   HNF 8213   5.195   3.875  16.955
   6423SM   C2S 8214   5.300   3.737  17.072
   6423SM   H2S 8215   5.409   3.716  17.064
   6423SM   C3S 8216   5.223   3.623  17.001
   6423SM   H3S 8217   5.115   3.629  17.025
   6423SM    O3 8218   5.270   3.495  17.040
   6423SM   HO3 8219   5.300   3.505  17.131
   6423SM   C4S 8220   5.244   3.640  16.853
   6423SM   H4S 8221   5.333   3.589  16.813
   6423SM   C5S 8222   5.161   3.706  16.771
   6423SM   H5S 8223   5.067   3.747  16.812
   6423SM   C6S 8224   5.179   3.728  16.623
   6423SM   H6S 8225   5.144   3.830  16.597
   6423SM   H6T 8226   5.113   3.658  16.567
   6423SM   C7S 8227   5.320   3.708  16.566
   6423SM   H7S 8228   5.362   3.611  16.599
   6423SM   H7T 8229   5.386   3.788  16.604
   6423SM   C8S 8230   5.319   3.706  16.412
   6423SM   H8S 8231   5.270   3.612  16.378
   6423SM   H8T 8232   5.424   3.702  16.377
   6423SM   C9S 8233   5.244   3.824  16.347
   6423SM   H9S 8234   5.270   3.919  16.398
   6423SM   H9T 8235   5.135   3.808  16.360
   6423SM  C10S 8236   5.276   3.836  16.198
   6423SM  H10S 8237   5.277   3.734  16.153
   6423SM  H10T 8238   5.379   3.878  16.185
   6423SM  C11S 8239   5.177   3.922  16.120
   6423SM  H11S 8240   5.181   4.028  16.154
   6423SM  H11T 8241   5.073   3.886  16.139
   6423SM  C12S 8242   5.203   3.916  15.969
   6423SM  H12S 8243   5.209   3.809  15.937
   6423SM  H12T 8244   5.302   3.962  15.950
   6423SM  C13S 8245   5.098   3.987  15.883
   6423SM  H13S 8246   5.084   4.091  15.920
   6423SM  H13T 8247   5.001   3.934  15.891
   6423SM  C14S 8248   5.142   3.991  15.736
   6423SM  H14S 8249   5.165   3.887  15.703
   6423SM  H14T 8250   5.235   4.051  15.728
   6423SM  C15S 8251   5.037   4.049  15.641
   6423SM  H15S 8252   5.018   4.155  15.669
   6423SM  H15T 8253   4.943   3.992  15.654
   6423SM  C16S 8254   5.080   4.042  15.493
   6423SM  H16S 8255   5.191   4.053  15.486
   6423SM  H16T 8256   5.035   4.127  15.438
   6423SM  C17S 8257   5.036   3.911  15.426
   6423SM  H17S 8258   4.925   3.908  15.425
   6423SM  H17T 8259   5.070   3.826  15.490
   6423SM  C18S 8260   5.089   3.892  15.284
   6423SM  H18S 8261   5.052   3.972  15.217
   6423SM  H18T 8262   5.053   3.795  15.242
   6423SM  H18U 8263   5.200   3.893  15.283
   6423SM   C1F 8264   5.352   3.974  17.033
   6423SM    OF 8265   5.445   3.974  17.113
   6423SM   C2F 8266   5.316   4.095  16.953
   6423SM   H2F 8267   5.281   4.173  17.024
   6423SM   H2G 8268   5.231   4.071  16.885
   6423SM   C3F 8269   5.434   4.150  16.869
   6423SM   H3F 8270   5.524   4.164  16.933
   6423SM   H3G 8271   5.405   4.249  16.829
   6423SM   C4F 8272   5.474   4.061  16.749
   6423SM   H4F 8273   5.383   4.032  16.691
   6423SM   H4G 8274   5.521   3.968  16.786
   6423SM   C5F 8275   5.572   4.134  16.654
   6423SM   H5F 8276   5.647   4.186  16.717
   6423SM   H5G 8277   5.517   4.212  16.597
   6423SM   C6F 8278   5.648   4.043  16.557
   6423SM   H6F 8279   5.690   3.957  16.613
   6423SM   H6G 8280   5.732   4.100  16.514
   6423SM   C7F 8281   5.562   3.991  16.440
   6423SM   H7F 8282   5.521   4.075  16.381
   6423SM   H7G 8283   5.476   3.937  16.484
   6423SM   C8F 8284   5.638   3.893  16.348
   6423SM   H8F 8285   5.566   3.826  16.297
   6423SM   H8G 8286   5.705   3.829  16.410
   6423SM   C9F 8287   5.719   3.961  16.236
   6423SM   H9F 8288   5.788   3.885  16.193
   6423SM   H9G 8289   5.781   4.042  16.280
   6423SM  C10F 8290   5.632   4.018  16.123
   6423SM  H10F 8291   5.566   4.096  16.166
   6423SM  H10G 8292   5.568   3.938  16.082
   6423SM  C11F 8293   5.714   4.082  16.010
   6423SM  H11F 8294   5.796   4.141  16.056
   6423SM  H11G 8295   5.650   4.153  15.953
   6423SM  C12F 8296   5.774   3.981  15.910
   6423SM  H12F 8297   5.790   3.883  15.960
   6423SM  H12G 8298   5.874   4.018  15.878
   6423SM  C13F 8299   5.690   3.960  15.782
   6423SM  H13F 8300   5.745   3.890  15.715
   6423SM  H13G 8301   5.680   4.057  15.729
   6423SM  C14F 8302   5.550   3.905  15.811
   6423SM  H14F 8303   5.496   3.978  15.874
   6423SM  H14G 8304   5.561   3.811  15.870
   6423SM  C15F 8305   5.463   3.876  15.688
   6423SM  H15F 8306   5.436   3.972  15.638
   6423SM  H15G 8307   5.370   3.828  15.724
   6423SM  C16F 8308   5.528   3.783  15.585
   6423SM  H16F 8309   5.573   3.696  15.636
   6423SM  H16G 8310   5.609   3.839  15.533
   6423SM  C17F 8311   5.425   3.732  15.482
   6423SM  H17F 8312   5.370   3.818  15.440
   6423SM  H17G 8313   5.350   3.669  15.535
   6423SM  C18F 8314   5.489   3.649  15.370
   6423SM  H18F 8315   5.407   3.609  15.306
   6423SM  H18G 8316   5.543   3.563  15.414
   6423SM  C19F 8317   5.584   3.728  15.279
   6423SM  H19F 8318   5.624   3.660  15.201
   6423SM  H19G 8319   5.672   3.764  15.338
   6423SM  C20F 8320   5.517   3.847  15.211
   6423SM  H20F 8321   5.483   3.922  15.286
   6423SM  H20G 8322   5.427   3.811  15.157
   6423SM  C21F 8323   5.609   3.918  15.111
   6423SM  H21F 8324   5.642   3.843  15.036
   6423SM  H21G 8325   5.700   3.956  15.163
   6423SM  C22F 8326   5.538   4.032  15.040
   6423SM  H22F 8327   5.525   4.118  15.109
   6423SM  H22G 8328   5.436   3.998  15.011
   6423SM  C23F 8329   5.613   4.076  14.915
   6423SM  H23F 8330   5.706   4.131  14.941
   6423SM  H23G 8331   5.548   4.141  14.852
   6423SM  H23H 8332   5.641   3.988  14.853
   6523SM     N 8333   5.355   4.473  17.780
   6523SM   C15 8334   5.234   4.495  17.693
   6523SM  H15A 8335   5.147   4.445  17.732
   6523SM  H15B 8336   5.255   4.455  17.595
   6523SM  H15C 8337   5.215   4.600  17.678
   6523SM   C14 8338   5.334   4.537  17.914
   6523SM  H14A 8339   5.246   4.495  17.960
   6523SM  H14B 8340   5.325   4.644  17.902
   6523SM  H14C 8341   5.419   4.516  17.977
   6523SM   C13 8342   5.372   4.326  17.801
   6523SM  H13A 8343   5.453   4.304  17.870
   6523SM  H13B 8344   5.396   4.278  17.708
   6523SM  H13C 8345   5.281   4.280  17.837
   6523SM   C12 8346   5.479   4.530  17.713
   6523SM  H12A 8347   5.563   4.521  17.780
   6523SM  H12B 8348   5.465   4.635  17.694
   6523SM   C11 8349   5.520   4.469  17.576
   6523SM  H11A 8350   5.533   4.359  17.586
   6523SM  H11B 8351   5.620   4.509  17.546
   6523SM     P 8352   5.408   4.640  17.415
   6523SM   O13 8353   5.279   4.641  17.342
   6523SM   O14 8354   5.427   4.740  17.522
   6523SM   O11 8355   5.532   4.638  17.316
   6523SM   O12 8356   5.422   4.495  17.477
   6523SM   C1S 8357   5.578   4.758  17.252
   6523SM   H1S 8358   5.687   4.768  17.270
   6523SM   H1T 8359   5.531   4.850  17.294
   6523SM    NF 8360   5.411   4.752  17.072
   6523SM   HNF 8361   5.370   4.663  17.058
   6523SM   C2S 8362   5.553   4.758  17.097
   6523SM   H2S 8363   5.591   4.853  17.056
   6523SM   C3S 8364   5.629   4.642  17.027
   6523SM   H3S 8365   5.593   4.545  17.068
   6523SM    O3 8366   5.770   4.644  17.053
   6523SM   HO3 8367   5.778   4.689  17.138
   6523SM   C4S 8368   5.599   4.644  16.879
   6523SM   H4S 8369   5.512   4.583  16.851
   6523SM   C5S 8370   5.666   4.709  16.782
   6523SM   H5S 8371   5.754   4.768  16.810
   6523SM   C6S 8372   5.635   4.710  16.634
   6523SM   H6S 8373   5.727   4.687  16.577
   6523SM   H6T 8374   5.604   4.812  16.603
   6523SM   C7S 8375   5.525   4.616  16.580
   6523SM   H7S 8376   5.431   4.633  16.638
   6523SM   H7T 8377   5.555   4.510  16.594
   6523SM   C8S 8378   5.492   4.641  16.432
   6523SM   H8S 8379   5.472   4.749  16.415
   6523SM   H8T 8380   5.400   4.584  16.406
   6523SM   C9S 8381   5.600   4.595  16.333
   6523SM   H9S 8382   5.618   4.486  16.347
   6523SM   H9T 8383   5.696   4.648  16.354
   6523SM  C10S 8384   5.562   4.621  16.186
   6523SM  H10S 8385   5.579   4.728  16.162
   6523SM  H10T 8386   5.455   4.598  16.169
   6523SM  C11S 8387   5.647   4.534  16.091
   6523SM  H11S 8388   5.617   4.427  16.104
   6523SM  H11T 8389   5.752   4.543  16.124
   6523SM  C12S 8390   5.638   4.572  15.942
   6523SM  H12S 8391   5.676   4.675  15.931
   6523SM  H12T 8392   5.532   4.569  15.909
   6523SM  C13S 8393   5.723   4.478  15.855
   6523SM  H13S 8394   5.694   4.373  15.876
   6523SM  H13T 8395   5.829   4.489  15.885
   6523SM  C14S 8396   5.712   4.501  15.703
   6523SM  H14S 8397   5.789   4.437  15.654
   6523SM  H14T 8398   5.737   4.606  15.676
   6523SM  C15S 8399   5.575   4.465  15.645
   6523SM  H15S 8400   5.509   4.554  15.650
   6523SM  H15T 8401   5.529   4.386  15.710
   6523SM  C16S 8402   5.580   4.411  15.502
   6523SM  H16S 8403   5.487   4.355  15.480
   6523SM  H16T 8404   5.665   4.339  15.493
   6523SM  C17S 8405   5.595   4.521  15.397
   6523SM  H17S 8406   5.680   4.585  15.429
   6523SM  H17T 8407   5.504   4.584  15.396
   6523SM  C18S 8408   5.622   4.467  15.255
   6523SM  H18S 8409   5.726   4.428  15.248
   6523SM  H18T 8410   5.609   4.547  15.180
   6523SM  H18U 8411   5.552   4.384  15.231
   6523SM   C1F 8412   5.332   4.855  17.100
   6523SM    OF 8413   5.378   4.961  17.141
   6523SM   C2F 8414   5.186   4.827  17.090
   6523SM   H2F 8415   5.132   4.891  17.163
   6523SM   H2G 8416   5.166   4.721  17.116
   6523SM   C3F 8417   5.131   4.856  16.948
   6523SM   H3F 8418   5.145   4.963  16.924
   6523SM   H3G 8419   5.022   4.836  16.955
   6523SM   C4F 8420   5.186   4.770  16.832
   6523SM   H4F 8421   5.190   4.664  16.863
   6523SM   H4G 8422   5.289   4.803  16.806
   6523SM   C5F 8423   5.095   4.782  16.709
   6523SM   H5F 8424   5.092   4.889  16.678
   6523SM   H5G 8425   4.992   4.754  16.740
   6523SM   C6F 8426   5.132   4.696  16.587
   6523SM   H6F 8427   5.041   4.644  16.550
   6523SM   H6G 8428   5.204   4.618  16.618
   6523SM   C7F 8429   5.191   4.777  16.471
   6523SM   H7F 8430   5.230   4.707  16.394
   6523SM   H7G 8431   5.278   4.835  16.510
   6523SM   C8F 8432   5.094   4.874  16.400
   6523SM   H8F 8433   5.150   4.929  16.321
   6523SM   H8G 8434   5.058   4.950  16.473
   6523SM   C9F 8435   4.976   4.809  16.328
   6523SM   H9F 8436   4.918   4.889  16.277
   6523SM   H9G 8437   4.908   4.759  16.401
   6523SM  C10F 8438   5.023   4.708  16.223
   6523SM  H10F 8439   5.063   4.618  16.274
   6523SM  H10G 8440   5.106   4.753  16.164
   6523SM  C11F 8441   4.912   4.666  16.127
   6523SM  H11F 8442   4.881   4.753  16.065
   6523SM  H11G 8443   4.823   4.637  16.187
   6523SM  C12F 8444   4.953   4.549  16.037
   6523SM  H12F 8445   4.869   4.528  15.967
   6523SM  H12G 8446   4.970   4.459  16.099
   6523SM  C13F 8447   5.077   4.575  15.951
   6523SM  H13F 8448   5.098   4.485  15.889
   6523SM  H13G 8449   5.166   4.591  16.016
   6523SM  C14F 8450   5.060   4.696  15.858
   6523SM  H14F 8451   5.033   4.786  15.918
   6523SM  H14G 8452   4.976   4.677  15.788
   6523SM  C15F 8453   5.187   4.731  15.780
   6523SM  H15F 8454   5.267   4.755  15.853
   6523SM  H15G 8455   5.167   4.823  15.720
   6523SM  C16F 8456   5.237   4.621  15.686
   6523SM  H16F 8457   5.263   4.530  15.742
   6523SM  H16G 8458   5.330   4.660  15.639
   6523SM  C17F 8459   5.140   4.586  15.572
   6523SM  H17F 8460   5.116   4.680  15.518
   6523SM  H17G 8461   5.045   4.544  15.612
   6523SM  C18F 8462   5.204   4.487  15.474
   6523SM  H18F 8463   5.185   4.382  15.506
   6523SM  H18G 8464   5.314   4.502  15.478
   6523SM  C19F 8465   5.161   4.510  15.329
   6523SM  H19F 8466   5.159   4.619  15.310
   6523SM  H19G 8467   5.058   4.469  15.315
   6523SM  C20F 8468   5.257   4.448  15.226
   6523SM  H20F 8469   5.359   4.482  15.252
   6523SM  H20G 8470   5.234   4.487  15.125
   6523SM  C21F 8471   5.251   4.295  15.222
   6523SM  H21F 8472   5.260   4.254  15.325
   6523SM  H21G 8473   5.338   4.258  15.165
   6523SM  C22F 8474   5.123   4.245  15.155
   6523SM  H22F 8475   5.058   4.331  15.128
   6523SM  H22G 8476   5.065   4.184  15.229
   6523SM  C23F 8477   5.149   4.162  15.030
   6523SM  H23F 8478   5.201   4.224  14.953
   6523SM  H23G 8479   5.054   4.125  14.986
   6523SM  H23H 8480   5.214   4.075  15.054
   6623SM     N 8481   4.122   1.957  17.754
   6623SM   C15 8482   4.210   2.051  17.678
   6623SM  H15A 8483   4.300   2.000  17.644
   6623SM  H15B 8484   4.240   2.134  17.740
   6623SM  H15C 8485   4.157   2.088  17.591
   6623SM   C14 8486   4.198   1.908  17.874
   6623SM  H14A 8487   4.286   1.853  17.842
   6623SM  H14B 8488   4.137   1.841  17.933
   6623SM  H14C 8489   4.228   1.989  17.938
   6623SM   C13 8490   4.000   2.032  17.799
   6623SM  H13A 8491   3.942   2.062  17.713
   6623SM  H13B 8492   4.026   2.121  17.855
   6623SM  H13C 8493   3.936   1.970  17.859
   6623SM   C12 8494   4.083   1.839  17.667
   6623SM  H12A 8495   4.007   1.782  17.717
   6623SM  H12B 8496   4.168   1.774  17.655
   6623SM   C11 8497   4.030   1.872  17.526
   6623SM  H11A 8498   4.020   1.777  17.471
   6623SM  H11B 8499   4.106   1.933  17.472
   6623SM     P 8500   3.855   2.056  17.446
   6623SM   O13 8501   3.745   2.003  17.362
   6623SM   O14 8502   3.829   2.167  17.540
   6623SM   O11 8503   3.981   2.091  17.357
   6623SM   O12 8504   3.903   1.935  17.535
   6623SM   C1S 8505   4.007   2.019  17.236
   6623SM   H1S 8506   3.927   1.947  17.208
   6623SM   H1T 8507   4.099   1.959  17.250
   6623SM    NF 8508   3.907   2.113  17.032
   6623SM   HNF 8509   3.905   2.054  16.952
   6623SM   C2S 8510   4.026   2.114  17.114
   6623SM   H2S 8511   4.045   2.217  17.151
   6623SM   C3S 8512   4.151   2.068  17.034
   6623SM   H3S 8513   4.139   1.961  17.006
   6623SM    O3 8514   4.273   2.077  17.106
   6623SM   HO3 8515   4.250   2.106  17.195
   6623SM   C4S 8516   4.165   2.150  16.909
   6623SM   H4S 8517   4.188   2.257  16.927
   6623SM   C5S 8518   4.153   2.103  16.784
   6623SM   H5S 8519   4.132   1.997  16.767
   6623SM   C6S 8520   4.170   2.187  16.660
   6623SM   H6S 8521   4.270   2.234  16.659
   6623SM   H6T 8522   4.094   2.268  16.656
   6623SM   C7S 8523   4.158   2.102  16.532
   6623SM   H7S 8524   4.063   2.045  16.532
   6623SM   H7T 8525   4.236   2.023  16.528
   6623SM   C8S 8526   4.166   2.189  16.406
   6623SM   H8S 8527   4.266   2.237  16.397
   6623SM   H8T 8528   4.089   2.269  16.416
   6623SM   C9S 8529   4.134   2.111  16.279
   6623SM   H9S 8530   4.052   2.041  16.303
   6623SM   H9T 8531   4.220   2.048  16.246
   6623SM  C10S 8532   4.088   2.199  16.163
   6623SM  H10S 8533   4.176   2.249  16.118
   6623SM  H10T 8534   4.019   2.278  16.200
   6623SM  C11S 8535   4.015   2.115  16.058
   6623SM  H11S 8536   3.920   2.077  16.101
   6623SM  H11T 8537   4.078   2.027  16.032
   6623SM  C12S 8538   3.986   2.195  15.932
   6623SM  H12S 8539   4.083   2.231  15.891
   6623SM  H12T 8540   3.925   2.284  15.956
   6623SM  C13S 8541   3.916   2.111  15.825
   6623SM  H13S 8542   3.813   2.085  15.857
   6623SM  H13T 8543   3.973   2.018  15.809
   6623SM  C14S 8544   3.909   2.189  15.695
   6623SM  H14S 8545   4.007   2.240  15.685
   6623SM  H14T 8546   3.831   2.268  15.702
   6623SM  C15S 8547   3.889   2.105  15.569
   6623SM  H15S 8548   3.781   2.102  15.542
   6623SM  H15T 8549   3.923   2.001  15.587
   6623SM  C16S 8550   3.972   2.163  15.454
   6623SM  H16S 8551   3.952   2.107  15.359
   6623SM  H16T 8552   4.079   2.149  15.479
   6623SM  C17S 8553   3.947   2.311  15.431
   6623SM  H17S 8554   3.911   2.362  15.523
   6623SM  H17T 8555   3.865   2.322  15.356
   6623SM  C18S 8556   4.070   2.388  15.387
   6623SM  H18S 8557   4.049   2.497  15.391
   6623SM  H18T 8558   4.097   2.361  15.282
   6623SM  H18U 8559   4.156   2.367  15.453
   6623SM   C1F 8560   3.798   2.181  17.065
   6623SM    OF 8561   3.804   2.273  17.146
   6623SM   C2F 8562   3.675   2.143  16.991
   6623SM   H2F 8563   3.596   2.115  17.064
   6623SM   H2G 8564   3.695   2.055  16.926
   6623SM   C3F 8565   3.625   2.259  16.904
   6623SM   H3F 8566   3.581   2.335  16.973
   6623SM   H3G 8567   3.543   2.220  16.840
   6623SM   C4F 8568   3.727   2.335  16.818
   6623SM   H4F 8569   3.797   2.389  16.885
   6623SM   H4G 8570   3.673   2.413  16.759
   6623SM   C5F 8571   3.807   2.248  16.723
   6623SM   H5F 8572   3.867   2.173  16.779
   6623SM   H5G 8573   3.881   2.313  16.671
   6623SM   C6F 8574   3.726   2.176  16.616
   6623SM   H6F 8575   3.655   2.246  16.567
   6623SM   H6G 8576   3.665   2.099  16.667
   6623SM   C7F 8577   3.824   2.117  16.514
   6623SM   H7F 8578   3.865   2.023  16.556
   6623SM   H7G 8579   3.907   2.191  16.504
   6623SM   C8F 8580   3.774   2.093  16.371
   6623SM   H8F 8581   3.836   2.153  16.301
   6623SM   H8G 8582   3.672   2.134  16.361
   6623SM   C9F 8583   3.785   1.945  16.330
   6623SM   H9F 8584   3.752   1.878  16.413
   6623SM   H9G 8585   3.891   1.920  16.309
   6623SM  C10F 8586   3.703   1.914  16.206
   6623SM  H10F 8587   3.701   2.005  16.144
   6623SM  H10G 8588   3.598   1.891  16.237
   6623SM  C11F 8589   3.750   1.796  16.121
   6623SM  H11F 8590   3.670   1.720  16.119
   6623SM  H11G 8591   3.841   1.748  16.164
   6623SM  C12F 8592   3.776   1.842  15.978
   6623SM  H12F 8593   3.878   1.884  15.970
   6623SM  H12G 8594   3.703   1.921  15.951
   6623SM  C13F 8595   3.757   1.732  15.874
   6623SM  H13F 8596   3.771   1.778  15.774
   6623SM  H13G 8597   3.652   1.695  15.876
   6623SM  C14F 8598   3.853   1.616  15.895
   6623SM  H14F 8599   3.802   1.535  15.952
   6623SM  H14G 8600   3.940   1.648  15.956
   6623SM  C15F 8601   3.903   1.563  15.761
   6623SM  H15F 8602   3.813   1.540  15.699
   6623SM  H15G 8603   3.960   1.469  15.777
   6623SM  C16F 8604   3.989   1.662  15.681
   6623SM  H16F 8605   3.927   1.744  15.640
   6623SM  H16G 8606   4.029   1.605  15.594
   6623SM  C17F 8607   4.103   1.723  15.765
   6623SM  H17F 8608   4.159   1.642  15.816
   6623SM  H17G 8609   4.058   1.789  15.843
   6623SM  C18F 8610   4.200   1.809  15.683
   6623SM  H18F 8611   4.272   1.860  15.750
   6623SM  H18G 8612   4.139   1.888  15.634
   6623SM  C19F 8613   4.277   1.726  15.579
   6623SM  H19F 8614   4.207   1.661  15.523
   6623SM  H19G 8615   4.348   1.658  15.632
   6623SM  C20F 8616   4.351   1.809  15.475
   6623SM  H20F 8617   4.389   1.741  15.396
   6623SM  H20G 8618   4.440   1.856  15.522
   6623SM  C21F 8619   4.267   1.920  15.409
   6623SM  H21F 8620   4.324   1.958  15.322
   6623SM  H21G 8621   4.256   2.005  15.480
   6623SM  C22F 8622   4.129   1.880  15.355
   6623SM  H22F 8623   4.092   1.966  15.294
   6623SM  H22G 8624   4.056   1.866  15.438
   6623SM  C23F 8625   4.128   1.757  15.266
   6623SM  H23F 8626   4.048   1.764  15.189
   6623SM  H23G 8627   4.113   1.665  15.326
   6623SM  H23H 8628   4.226   1.747  15.214
   6723SM     N 8629   3.334   5.960  17.745
   6723SM   C15 8630   3.344   6.109  17.732
   6723SM  H15A 8631   3.440   6.143  17.768
   6723SM  H15B 8632   3.266   6.159  17.788
   6723SM  H15C 8633   3.333   6.137  17.628
   6723SM   C14 8634   3.443   5.900  17.661
   6723SM  H14A 8635   3.423   5.921  17.557
   6723SM  H14B 8636   3.442   5.793  17.670
   6723SM  H14C 8637   3.541   5.937  17.688
   6723SM   C13 8638   3.361   5.920  17.887
   6723SM  H13A 8639   3.457   5.958  17.919
   6723SM  H13B 8640   3.366   5.812  17.894
   6723SM  H13C 8641   3.284   5.957  17.953
   6723SM   C12 8642   3.199   5.909  17.699
   6723SM  H12A 8643   3.121   5.944  17.765
   6723SM  H12B 8644   3.199   5.801  17.705
   6723SM   C11 8645   3.158   5.941  17.554
   6723SM  H11A 8646   3.162   6.050  17.536
   6723SM  H11B 8647   3.052   5.912  17.537
   6723SM     P 8648   3.226   5.721  17.430
   6723SM   O13 8649   3.349   5.673  17.364
   6723SM   O14 8650   3.186   5.651  17.555
   6723SM   O11 8651   3.106   5.720  17.326
   6723SM   O12 8652   3.245   5.875  17.463
   6723SM   C1S 8653   3.072   5.836  17.248
   6723SM   H1S 8654   3.103   5.931  17.295
   6723SM   H1T 8655   2.962   5.841  17.239
   6723SM    NF 8656   3.147   5.968  17.055
   6723SM   HNF 8657   3.086   5.998  16.982
   6723SM   C2S 8658   3.131   5.831  17.104
   6723SM   H2S 8659   3.231   5.783  17.105
   6723SM   C3S 8660   3.034   5.743  17.019
   6723SM   H3S 8661   2.930   5.779  17.034
   6723SM    O3 8662   3.039   5.607  17.060
   6723SM   HO3 8663   3.080   5.608  17.146
   6723SM   C4S 8664   3.066   5.747  16.872
   6723SM   H4S 8665   3.161   5.696  16.846
   6723SM   C5S 8666   2.988   5.800  16.775
   6723SM   H5S 8667   2.892   5.845  16.804
   6723SM   C6S 8668   3.018   5.803  16.627
   6723SM   H6S 8669   3.048   5.906  16.597
   6723SM   H6T 8670   2.924   5.782  16.571
   6723SM   C7S 8671   3.125   5.704  16.577
   6723SM   H7S 8672   3.088   5.600  16.588
   6723SM   H7T 8673   3.217   5.715  16.640
   6723SM   C8S 8674   3.170   5.728  16.432
   6723SM   H8S 8675   3.258   5.665  16.409
   6723SM   H8T 8676   3.203   5.834  16.426
   6723SM   C9S 8677   3.063   5.705  16.324
   6723SM   H9S 8678   2.974   5.766  16.350
   6723SM   H9T 8679   3.032   5.599  16.322
   6723SM  C10S 8680   3.111   5.749  16.185
   6723SM  H10S 8681   3.195   5.822  16.194
   6723SM  H10T 8682   3.027   5.802  16.135
   6723SM  C11S 8683   3.155   5.636  16.091
   6723SM  H11S 8684   3.081   5.553  16.099
   6723SM  H11T 8685   3.253   5.595  16.122
   6723SM  C12S 8686   3.160   5.681  15.944
   6723SM  H12S 8687   3.253   5.740  15.928
   6723SM  H12T 8688   3.074   5.748  15.923
   6723SM  C13S 8689   3.152   5.564  15.847
   6723SM  H13S 8690   3.053   5.562  15.796
   6723SM  H13T 8691   3.155   5.470  15.906
   6723SM  C14S 8692   3.261   5.560  15.740
   6723SM  H14S 8693   3.300   5.456  15.730
   6723SM  H14T 8694   3.347   5.625  15.767
   6723SM  C15S 8695   3.208   5.594  15.601
   6723SM  H15S 8696   3.178   5.701  15.596
   6723SM  H15T 8697   3.119   5.532  15.580
   6723SM  C16S 8698   3.314   5.564  15.495
   6723SM  H16S 8699   3.356   5.462  15.510
   6723SM  H16T 8700   3.396   5.638  15.505
   6723SM  C17S 8701   3.252   5.570  15.356
   6723SM  H17S 8702   3.212   5.673  15.342
   6723SM  H17T 8703   3.167   5.498  15.353
   6723SM  C18S 8704   3.345   5.538  15.240
   6723SM  H18S 8705   3.428   5.611  15.239
   6723SM  H18T 8706   3.292   5.545  15.143
   6723SM  H18U 8707   3.386   5.435  15.251
   6723SM   C1F 8708   3.241   6.048  17.105
   6723SM    OF 8709   3.329   6.006  17.178
   6723SM   C2F 8710   3.235   6.194  17.073
   6723SM   H2F 8711   3.299   6.247  17.147
   6723SM   H2G 8712   3.130   6.230  17.085
   6723SM   C3F 8713   3.290   6.227  16.934
   6723SM   H3F 8714   3.390   6.181  16.921
   6723SM   H3G 8715   3.305   6.337  16.926
   6723SM   C4F 8716   3.201   6.179  16.819
   6723SM   H4F 8717   3.096   6.216  16.829
   6723SM   H4G 8718   3.197   6.068  16.819
   6723SM   C5F 8719   3.260   6.222  16.685
   6723SM   H5F 8720   3.371   6.217  16.692
   6723SM   H5G 8721   3.234   6.328  16.662
   6723SM   C6F 8722   3.217   6.131  16.571
   6723SM   H6F 8723   3.108   6.138  16.555
   6723SM   H6G 8724   3.242   6.025  16.596
   6723SM   C7F 8725   3.293   6.171  16.445
   6723SM   H7F 8726   3.402   6.164  16.463
   6723SM   H7G 8727   3.269   6.278  16.428
   6723SM   C8F 8728   3.258   6.092  16.320
   6723SM   H8F 8729   3.293   5.987  16.328
   6723SM   H8G 8730   3.317   6.136  16.236
   6723SM   C9F 8731   3.109   6.097  16.283
   6723SM   H9F 8732   3.064   6.191  16.319
   6723SM   H9G 8733   3.055   6.012  16.331
   6723SM  C10F 8734   3.094   6.093  16.130
   6723SM  H10F 8735   3.156   6.010  16.090
   6723SM  H10G 8736   3.135   6.187  16.089
   6723SM  C11F 8737   2.951   6.076  16.080
   6723SM  H11F 8738   2.893   6.167  16.103
   6723SM  H11G 8739   2.902   5.990  16.131
   6723SM  C12F 8740   2.950   6.051  15.928
   6723SM  H12F 8741   2.845   6.034  15.894
   6723SM  H12G 8742   3.007   5.958  15.906
   6723SM  C13F 8743   3.012   6.165  15.848
   6723SM  H13F 8744   3.120   6.174  15.873
   6723SM  H13G 8745   2.963   6.260  15.879
   6723SM  C14F 8746   2.998   6.151  15.695
   6723SM  H14F 8747   3.013   6.251  15.649
   6723SM  H14G 8748   2.894   6.118  15.674
   6723SM  C15F 8749   3.094   6.051  15.628
   6723SM  H15F 8750   3.033   5.970  15.582
   6723SM  H15G 8751   3.161   6.003  15.703
   6723SM  C16F 8752   3.178   6.112  15.514
   6723SM  H16F 8753   3.256   6.178  15.557
   6723SM  H16G 8754   3.114   6.177  15.451
   6723SM  C17F 8755   3.244   6.007  15.423
   6723SM  H17F 8756   3.167   5.943  15.376
   6723SM  H17G 8757   3.307   5.942  15.488
   6723SM  C18F 8758   3.334   6.069  15.314
   6723SM  H18F 8759   3.409   5.993  15.281
   6723SM  H18G 8760   3.390   6.153  15.359
   6723SM  C19F 8761   3.260   6.119  15.188
   6723SM  H19F 8762   3.323   6.195  15.138
   6723SM  H19G 8763   3.167   6.172  15.219
   6723SM  C20F 8764   3.230   6.008  15.085
   6723SM  H20F 8765   3.246   5.910  15.134
   6723SM  H20G 8766   3.304   6.016  15.002
   6723SM  C21F 8767   3.088   6.006  15.025
   6723SM  H21F 8768   3.017   5.976  15.106
   6723SM  H21G 8769   3.084   5.925  14.949
   6723SM  C22F 8770   3.035   6.133  14.959
   6723SM  H22F 8771   3.076   6.139  14.856
   6723SM  H22G 8772   3.070   6.224  15.013
   6723SM  C23F 8773   2.882   6.135  14.954
   6723SM  H23F 8774   2.845   6.208  14.879
   6723SM  H23G 8775   2.839   6.162  15.053
   6723SM  H23H 8776   2.842   6.034  14.927
   6823SM     N 8777   3.390   1.413  17.676
   6823SM   C15 8778   3.325   1.451  17.806
   6823SM  H15A 8779   3.276   1.367  17.853
   6823SM  H15B 8780   3.250   1.527  17.788
   6823SM  H15C 8781   3.396   1.492  17.877
   6823SM   C14 8782   3.485   1.299  17.698
   6823SM  H14A 8783   3.533   1.269  17.605
   6823SM  H14B 8784   3.433   1.212  17.736
   6823SM  H14C 8785   3.562   1.325  17.769
   6823SM   C13 8786   3.281   1.369  17.582
   6823SM  H13A 8787   3.223   1.455  17.554
   6823SM  H13B 8788   3.216   1.296  17.628
   6823SM  H13C 8789   3.322   1.326  17.492
   6823SM   C12 8790   3.463   1.532  17.615
   6823SM  H12A 8791   3.503   1.503  17.519
   6823SM  H12B 8792   3.547   1.557  17.678
   6823SM   C11 8793   3.382   1.663  17.594
   6823SM  H11A 8794   3.453   1.743  17.562
   6823SM  H11B 8795   3.340   1.693  17.692
   6823SM     P 8796   3.161   1.753  17.494
   6823SM   O13 8797   3.088   1.732  17.621
   6823SM   O14 8798   3.213   1.888  17.466
   6823SM   O11 8799   3.069   1.707  17.374
   6823SM   O12 8800   3.281   1.647  17.493
   6823SM   C1S 8801   3.100   1.597  17.288
   6823SM   H1S 8802   3.059   1.503  17.332
   6823SM   H1T 8803   3.209   1.583  17.273
   6823SM    NF 8804   3.051   1.499  17.065
   6823SM   HNF 8805   3.103   1.509  16.981
   6823SM   C2S 8806   3.038   1.618  17.147
   6823SM   H2S 8807   2.929   1.638  17.159
   6823SM   C3S 8808   3.103   1.742  17.078
   6823SM   H3S 8809   3.214   1.729  17.080
   6823SM    O3 8810   3.076   1.866  17.143
   6823SM   HO3 8811   3.058   1.842  17.234
   6823SM   C4S 8812   3.061   1.747  16.932
   6823SM   H4S 8813   3.138   1.709  16.863
   6823SM   C5S 8814   2.947   1.796  16.882
   6823SM   H5S 8815   2.874   1.839  16.952
   6823SM   C6S 8816   2.907   1.800  16.736
   6823SM   H6S 8817   2.899   1.906  16.704
   6823SM   H6T 8818   2.805   1.757  16.727
   6823SM   C7S 8819   2.992   1.727  16.629
   6823SM   H7S 8820   2.986   1.617  16.646
   6823SM   H7T 8821   3.098   1.757  16.636
   6823SM   C8S 8822   2.939   1.759  16.487
   6823SM   H8S 8823   2.944   1.869  16.471
   6823SM   H8T 8824   2.832   1.729  16.484
   6823SM   C9S 8825   3.011   1.688  16.371
   6823SM   H9S 8826   2.994   1.579  16.383
   6823SM   H9T 8827   3.121   1.705  16.378
   6823SM  C10S 8828   2.960   1.734  16.232
   6823SM  H10S 8829   3.015   1.825  16.199
   6823SM  H10T 8830   2.852   1.758  16.244
   6823SM  C11S 8831   2.961   1.623  16.126
   6823SM  H11S 8832   2.872   1.561  16.148
   6823SM  H11T 8833   3.050   1.557  16.141
   6823SM  C12S 8834   2.945   1.658  15.978
   6823SM  H12S 8835   3.019   1.734  15.946
   6823SM  H12T 8836   2.843   1.699  15.960
   6823SM  C13S 8837   2.959   1.529  15.893
   6823SM  H13S 8838   2.886   1.453  15.928
   6823SM  H13T 8839   3.060   1.486  15.909
   6823SM  C14S 8840   2.940   1.553  15.744
   6823SM  H14S 8841   3.003   1.641  15.716
   6823SM  H14T 8842   2.834   1.579  15.723
   6823SM  C15S 8843   2.983   1.434  15.656
   6823SM  H15S 8844   2.916   1.348  15.675
   6823SM  H15T 8845   3.086   1.403  15.683
   6823SM  C16S 8846   2.979   1.474  15.508
   6823SM  H16S 8847   3.049   1.558  15.493
   6823SM  H16T 8848   2.876   1.510  15.486
   6823SM  C17S 8849   3.013   1.365  15.406
   6823SM  H17S 8850   2.941   1.282  15.415
   6823SM  H17T 8851   3.115   1.326  15.427
   6823SM  C18S 8852   3.009   1.422  15.264
   6823SM  H18S 8853   3.035   1.344  15.189
   6823SM  H18T 8854   3.080   1.507  15.253
   6823SM  H18U 8855   2.908   1.461  15.241
   6823SM   C1F 8856   2.990   1.382  17.083
   6823SM    OF 8857   2.920   1.357  17.181
   6823SM   C2F 8858   3.005   1.286  16.968
   6823SM   H2F 8859   3.010   1.345  16.874
   6823SM   H2G 8860   2.913   1.225  16.964
   6823SM   C3F 8861   3.127   1.191  16.977
   6823SM   H3F 8862   3.132   1.136  16.881
   6823SM   H3G 8863   3.107   1.117  17.057
   6823SM   C4F 8864   3.265   1.256  17.004
   6823SM   H4F 8865   3.339   1.173  17.008
   6823SM   H4G 8866   3.265   1.304  17.104
   6823SM   C5F 8867   3.314   1.356  16.898
   6823SM   H5F 8868   3.257   1.451  16.905
   6823SM   H5G 8869   3.296   1.314  16.796
   6823SM   C6F 8870   3.464   1.385  16.915
   6823SM   H6F 8871   3.520   1.291  16.900
   6823SM   H6G 8872   3.481   1.419  17.020
   6823SM   C7F 8873   3.518   1.493  16.820
   6823SM   H7F 8874   3.623   1.514  16.847
   6823SM   H7G 8875   3.461   1.587  16.833
   6823SM   C8F 8876   3.511   1.451  16.672
   6823SM   H8F 8877   3.405   1.459  16.640
   6823SM   H8G 8878   3.541   1.345  16.660
   6823SM   C9F 8879   3.598   1.539  16.582
   6823SM   H9F 8880   3.706   1.523  16.607
   6823SM   H9G 8881   3.574   1.646  16.603
   6823SM  C10F 8882   3.583   1.511  16.433
   6823SM  H10F 8883   3.607   1.405  16.412
   6823SM  H10G 8884   3.654   1.575  16.376
   6823SM  C11F 8885   3.442   1.535  16.379
   6823SM  H11F 8886   3.405   1.633  16.414
   6823SM  H11G 8887   3.372   1.458  16.418
   6823SM  C12F 8888   3.441   1.531  16.226
   6823SM  H12F 8889   3.471   1.431  16.190
   6823SM  H12G 8890   3.514   1.606  16.188
   6823SM  C13F 8891   3.302   1.565  16.173
   6823SM  H13F 8892   3.271   1.663  16.214
   6823SM  H13G 8893   3.231   1.489  16.211
   6823SM  C14F 8894   3.292   1.573  16.020
   6823SM  H14F 8895   3.193   1.618  15.998
   6823SM  H14G 8896   3.295   1.471  15.975
   6823SM  C15F 8897   3.393   1.664  15.953
   6823SM  H15F 8898   3.482   1.603  15.926
   6823SM  H15G 8899   3.426   1.743  16.024
   6823SM  C16F 8900   3.336   1.734  15.829
   6823SM  H16F 8901   3.406   1.816  15.802
   6823SM  H16G 8902   3.238   1.781  15.853
   6823SM  C17F 8903   3.323   1.646  15.705
   6823SM  H17F 8904   3.250   1.564  15.722
   6823SM  H17G 8905   3.422   1.599  15.685
   6823SM  C18F 8906   3.282   1.728  15.582
   6823SM  H18F 8907   3.328   1.829  15.587
   6823SM  H18G 8908   3.171   1.741  15.584
   6823SM  C19F 8909   3.322   1.661  15.451
   6823SM  H19F 8910   3.284   1.556  15.452
   6823SM  H19G 8911   3.433   1.657  15.443
   6823SM  C20F 8912   3.265   1.731  15.327
   6823SM  H20F 8913   3.154   1.739  15.335
   6823SM  H20G 8914   3.287   1.664  15.241
   6823SM  C21F 8915   3.324   1.871  15.301
   6823SM  H21F 8916   3.434   1.867  15.315
   6823SM  H21G 8917   3.283   1.942  15.376
   6823SM  C22F 8918   3.294   1.923  15.160
   6823SM  H22F 8919   3.333   2.027  15.152
   6823SM  H22G 8920   3.184   1.926  15.145
   6823SM  C23F 8921   3.359   1.840  15.049
   6823SM  H23F 8922   3.326   1.874  14.949
   6823SM  H23G 8923   3.332   1.733  15.056
   6823SM  H23H 8924   3.470   1.849  15.055
   6923SM     N 8925   5.414   2.069  17.799
   6923SM   C15 8926   5.266   2.045  17.799
   6923SM  H15A 8927   5.217   2.095  17.880
   6923SM  H15B 8928   5.243   1.939  17.803
   6923SM  H15C 8929   5.224   2.082  17.706
   6923SM   C14 8930   5.437   2.217  17.807
   6923SM  H14A 8931   5.394   2.266  17.722
   6923SM  H14B 8932   5.543   2.240  17.810
   6923SM  H14C 8933   5.393   2.260  17.896
   6923SM   C13 8934   5.474   2.004  17.920
   6923SM  H13A 8935   5.426   2.039  18.009
   6923SM  H13B 8936   5.578   2.031  17.931
   6923SM  H13C 8937   5.465   1.896  17.918
   6923SM   C12 8938   5.474   2.011  17.672
   6923SM  H12A 8939   5.435   1.912  17.656
   6923SM  H12B 8940   5.581   2.002  17.685
   6923SM   C11 8941   5.448   2.088  17.541
   6923SM  H11A 8942   5.511   2.040  17.463
   6923SM  H11B 8943   5.485   2.193  17.549
   6923SM     P 8944   5.253   1.962  17.428
   6923SM   O13 8945   5.286   1.842  17.509
   6923SM   O14 8946   5.111   1.986  17.396
   6923SM   O11 8947   5.341   1.964  17.295
   6923SM   O12 8948   5.309   2.089  17.507
   6923SM   C1S 8949   5.381   2.089  17.236
   6923SM   H1S 8950   5.489   2.106  17.257
   6923SM   H1T 8951   5.326   2.176  17.277
   6923SM    NF 8952   5.224   2.101  17.049
   6923SM   HNF 8953   5.173   2.017  17.033
   6923SM   C2S 8954   5.365   2.092  17.081
   6923SM   H2S 8955   5.415   2.184  17.043
   6923SM   C3S 8956   5.435   1.970  17.016
   6923SM   H3S 8957   5.399   1.874  17.059
   6923SM    O3 8958   5.577   1.973  17.033
   6923SM   HO3 8959   5.595   2.054  17.082
   6923SM   C4S 8960   5.406   1.975  16.869
   6923SM   H4S 8961   5.444   2.066  16.819
   6923SM   C5S 8962   5.340   1.885  16.795
   6923SM   H5S 8963   5.301   1.793  16.841
   6923SM   C6S 8964   5.315   1.903  16.648
   6923SM   H6S 8965   5.323   2.010  16.620
   6923SM   H6T 8966   5.211   1.871  16.623
   6923SM   C7S 8967   5.412   1.828  16.557
   6923SM   H7S 8968   5.409   1.719  16.578
   6923SM   H7T 8969   5.513   1.866  16.580
   6923SM   C8S 8970   5.381   1.852  16.408
   6923SM   H8S 8971   5.383   1.961  16.386
   6923SM   H8T 8972   5.279   1.815  16.385
   6923SM   C9S 8973   5.482   1.782  16.316
   6923SM   H9S 8974   5.493   1.676  16.346
   6923SM   H9T 8975   5.580   1.833  16.328
   6923SM  C10S 8976   5.449   1.792  16.168
   6923SM  H10S 8977   5.541   1.822  16.113
   6923SM  H10T 8978   5.373   1.872  16.152
   6923SM  C11S 8979   5.400   1.660  16.111
   6923SM  H11S 8980   5.328   1.615  16.183
   6923SM  H11T 8981   5.485   1.589  16.100
   6923SM  C12S 8982   5.331   1.680  15.977
   6923SM  H12S 8983   5.247   1.752  15.989
   6923SM  H12T 8984   5.289   1.585  15.939
   6923SM  C13S 8985   5.429   1.737  15.875
   6923SM  H13S 8986   5.510   1.663  15.861
   6923SM  H13T 8987   5.475   1.831  15.912
   6923SM  C14S 8988   5.364   1.769  15.742
   6923SM  H14S 8989   5.287   1.848  15.757
   6923SM  H14T 8990   5.314   1.679  15.700
   6923SM  C15S 8991   5.470   1.820  15.646
   6923SM  H15S 8992   5.547   1.741  15.631
   6923SM  H15T 8993   5.520   1.909  15.689
   6923SM  C16S 8994   5.410   1.856  15.512
   6923SM  H16S 8995   5.346   1.946  15.524
   6923SM  H16T 8996   5.345   1.773  15.476
   6923SM  C17S 8997   5.518   1.884  15.410
   6923SM  H17S 8998   5.577   1.792  15.392
   6923SM  H17T 8999   5.587   1.962  15.450
   6923SM  C18S 9000   5.459   1.935  15.281
   6923SM  H18S 9001   5.405   1.854  15.226
   6923SM  H18T 9002   5.539   1.976  15.216
   6923SM  H18U 9003   5.388   2.017  15.303
   6923SM   C1F 9004   5.161   2.217  17.061
   6923SM    OF 9005   5.219   2.316  17.105
   6923SM   C2F 9006   5.019   2.221  17.016
   6923SM   H2F 9007   4.955   2.259  17.099
   6923SM   H2G 9008   4.984   2.119  16.989
   6923SM   C3F 9009   5.007   2.316  16.895
   6923SM   H3F 9010   5.039   2.418  16.924
   6923SM   H3G 9011   4.899   2.324  16.871
   6923SM   C4F 9012   5.084   2.273  16.768
   6923SM   H4F 9013   5.193   2.276  16.786
   6923SM   H4G 9014   5.061   2.349  16.691
   6923SM   C5F 9015   5.048   2.133  16.713
   6923SM   H5F 9016   4.939   2.113  16.727
   6923SM   H5G 9017   5.102   2.056  16.771
   6923SM   C6F 9018   5.081   2.119  16.563
   6923SM   H6F 9019   5.075   2.013  16.531
   6923SM   H6G 9020   5.186   2.153  16.549
   6923SM   C7F 9021   4.993   2.202  16.468
   6923SM   H7F 9022   4.949   2.286  16.526
   6923SM   H7G 9023   4.908   2.140  16.431
   6923SM   C8F 9024   5.071   2.266  16.353
   6923SM   H8F 9025   5.145   2.337  16.396
   6923SM   H8G 9026   5.001   2.325  16.290
   6923SM   C9F 9027   5.146   2.165  16.265
   6923SM   H9F 9028   5.215   2.104  16.327
   6923SM   H9G 9029   5.209   2.221  16.192
   6923SM  C10F 9030   5.052   2.071  16.188
   6923SM  H10F 9031   4.990   2.014  16.260
   6923SM  H10G 9032   5.114   1.999  16.131
   6923SM  C11F 9033   4.961   2.144  16.089
   6923SM  H11F 9034   4.889   2.211  16.140
   6923SM  H11G 9035   4.900   2.063  16.041
   6923SM  C12F 9036   5.041   2.223  15.985
   6923SM  H12F 9037   5.138   2.171  15.967
   6923SM  H12G 9038   5.068   2.323  16.026
   6923SM  C13F 9039   4.972   2.242  15.849
   6923SM  H13F 9040   5.045   2.285  15.777
   6923SM  H13G 9041   4.889   2.315  15.860
   6923SM  C14F 9042   4.916   2.112  15.790
   6923SM  H14F 9043   4.870   2.133  15.692
   6923SM  H14G 9044   4.833   2.074  15.853
   6923SM  C15F 9045   5.016   1.997  15.779
   6923SM  H15F 9046   4.964   1.908  15.822
   6923SM  H15G 9047   5.109   2.013  15.837
   6923SM  C16F 9048   5.048   1.962  15.635
   6923SM  H16F 9049   4.952   1.931  15.588
   6923SM  H16G 9050   5.117   1.875  15.629
   6923SM  C17F 9051   5.103   2.077  15.551
   6923SM  H17F 9052   5.207   2.101  15.581
   6923SM  H17G 9053   5.042   2.169  15.563
   6923SM  C18F 9054   5.094   2.030  15.406
   6923SM  H18F 9055   4.988   2.004  15.384
   6923SM  H18G 9056   5.154   1.938  15.396
   6923SM  C19F 9057   5.140   2.132  15.304
   6923SM  H19F 9058   5.239   2.172  15.335
   6923SM  H19G 9059   5.070   2.218  15.298
   6923SM  C20F 9060   5.153   2.062  15.170
   6923SM  H20F 9061   5.210   1.967  15.182
   6923SM  H20G 9062   5.213   2.126  15.102
   6923SM  C21F 9063   5.021   2.031  15.098
   6923SM  H21F 9064   4.957   2.121  15.102
   6923SM  H21G 9065   4.967   1.946  15.147
   6923SM  C22F 9066   5.052   1.998  14.952
   6923SM  H22F 9067   5.117   2.082  14.918
   6923SM  H22G 9068   4.960   2.003  14.890
   6923SM  C23F 9069   5.126   1.866  14.927
   6923SM  H23F 9070   5.185   1.872  14.833
   6923SM  H23G 9071   5.054   1.782  14.919
   6923SM  H23H 9072   5.197   1.843  15.010
   7023SM     N 9073   4.766   1.589  17.794
   7023SM   C15 9074   4.820   1.461  17.737
   7023SM  H15A 9075   4.773   1.445  17.641
   7023SM  H15B 9076   4.797   1.377  17.801
   7023SM  H15C 9077   4.927   1.467  17.723
   7023SM   C14 9078   4.619   1.571  17.814
   7023SM  H14A 9079   4.572   1.548  17.719
   7023SM  H14B 9080   4.572   1.661  17.852
   7023SM  H14C 9081   4.598   1.489  17.880
   7023SM   C13 9082   4.835   1.612  17.924
   7023SM  H13A 9083   4.941   1.624  17.910
   7023SM  H13B 9084   4.822   1.527  17.989
   7023SM  H13C 9085   4.797   1.699  17.976
   7023SM   C12 9086   4.793   1.702  17.695
   7023SM  H12A 9087   4.895   1.694  17.661
   7023SM  H12B 9088   4.783   1.797  17.744
   7023SM   C11 9089   4.703   1.706  17.569
   7023SM  H11A 9090   4.743   1.782  17.499
   7023SM  H11B 9091   4.602   1.740  17.599
   7023SM     P 9092   4.573   1.522  17.434
   7023SM   O13 9093   4.586   1.374  17.431
   7023SM   O14 9094   4.454   1.577  17.501
   7023SM   O11 9095   4.588   1.586  17.288
   7023SM   O12 9096   4.703   1.578  17.505
   7023SM   C1S 9097   4.721   1.612  17.241
   7023SM   H1S 9098   4.791   1.529  17.266
   7023SM   H1T 9099   4.762   1.705  17.286
   7023SM    NF 9100   4.838   1.557  17.030
   7023SM   HNF 9101   4.919   1.611  17.009
   7023SM   C2S 9102   4.724   1.628  17.086
   7023SM   H2S 9103   4.631   1.582  17.046
   7023SM   C3S 9104   4.725   1.778  17.048
   7023SM   H3S 9105   4.815   1.828  17.090
   7023SM    O3 9106   4.611   1.848  17.096
   7023SM   HO3 9107   4.570   1.789  17.159
   7023SM   C4S 9108   4.729   1.786  16.898
   7023SM   H4S 9109   4.634   1.756  16.850
   7023SM   C5S 9110   4.831   1.825  16.819
   7023SM   H5S 9111   4.927   1.856  16.863
   7023SM   C6S 9112   4.822   1.828  16.669
   7023SM   H6S 9113   4.834   1.932  16.631
   7023SM   H6T 9114   4.723   1.792  16.634
   7023SM   C7S 9115   4.927   1.738  16.601
   7023SM   H7S 9116   4.919   1.634  16.636
   7023SM   H7T 9117   5.029   1.774  16.628
   7023SM   C8S 9118   4.914   1.740  16.448
   7023SM   H8S 9119   4.922   1.845  16.413
   7023SM   H8T 9120   4.814   1.702  16.417
   7023SM   C9S 9121   5.023   1.656  16.381
   7023SM   H9S 9122   4.997   1.548  16.387
   7023SM   H9T 9123   5.117   1.672  16.438
   7023SM  C10S 9124   5.050   1.695  16.236
   7023SM  H10S 9125   5.135   1.633  16.200
   7023SM  H10T 9126   5.083   1.802  16.231
   7023SM  C11S 9127   4.935   1.671  16.139
   7023SM  H11S 9128   4.851   1.741  16.160
   7023SM  H11T 9129   4.898   1.567  16.153
   7023SM  C12S 9130   4.980   1.688  15.993
   7023SM  H12S 9131   5.069   1.623  15.974
   7023SM  H12T 9132   5.011   1.793  15.977
   7023SM  C13S 9133   4.870   1.644  15.897
   7023SM  H13S 9134   4.779   1.703  15.919
   7023SM  H13T 9135   4.852   1.538  15.927
   7023SM  C14S 9136   4.897   1.644  15.746
   7023SM  H14S 9137   4.948   1.551  15.715
   7023SM  H14T 9138   4.965   1.728  15.720
   7023SM  C15S 9139   4.765   1.661  15.667
   7023SM  H15S 9140   4.704   1.739  15.718
   7023SM  H15T 9141   4.706   1.566  15.671
   7023SM  C16S 9142   4.776   1.705  15.521
   7023SM  H16S 9143   4.811   1.811  15.523
   7023SM  H16T 9144   4.676   1.705  15.474
   7023SM  C17S 9145   4.874   1.632  15.431
   7023SM  H17S 9146   4.836   1.530  15.409
   7023SM  H17T 9147   4.973   1.622  15.480
   7023SM  C18S 9148   4.890   1.710  15.301
   7023SM  H18S 9149   4.961   1.659  15.232
   7023SM  H18T 9150   4.932   1.811  15.321
   7023SM  H18U 9151   4.793   1.721  15.248
   7023SM   C1F 9152   4.833   1.426  17.009
   7023SM    OF 9153   4.762   1.351  17.074
   7023SM   C2F 9154   4.915   1.375  16.895
   7023SM   H2F 9155   4.984   1.296  16.932
   7023SM   H2G 9156   4.974   1.458  16.852
   7023SM   C3F 9157   4.821   1.317  16.786
   7023SM   H3F 9158   4.769   1.228  16.826
   7023SM   H3G 9159   4.885   1.283  16.701
   7023SM   C4F 9160   4.715   1.417  16.735
   7023SM   H4F 9161   4.764   1.507  16.693
   7023SM   H4G 9162   4.652   1.450  16.821
   7023SM   C5F 9163   4.619   1.358  16.630
   7023SM   H5F 9164   4.537   1.431  16.611
   7023SM   H5G 9165   4.573   1.267  16.673
   7023SM   C6F 9166   4.687   1.323  16.498
   7023SM   H6F 9167   4.776   1.261  16.521
   7023SM   H6G 9168   4.722   1.414  16.445
   7023SM   C7F 9169   4.596   1.239  16.408
   7023SM   H7F 9170   4.549   1.163  16.474
   7023SM   H7G 9171   4.657   1.186  16.332
   7023SM   C8F 9172   4.481   1.314  16.340
   7023SM   H8F 9173   4.424   1.372  16.416
   7023SM   H8G 9174   4.412   1.238  16.298
   7023SM   C9F 9175   4.525   1.406  16.227
   7023SM   H9F 9176   4.604   1.476  16.263
   7023SM   H9G 9177   4.439   1.467  16.194
   7023SM  C10F 9178   4.578   1.329  16.106
   7023SM  H10F 9179   4.502   1.256  16.071
   7023SM  H10G 9180   4.668   1.270  16.135
   7023SM  C11F 9181   4.616   1.422  15.991
   7023SM  H11F 9182   4.684   1.499  16.035
   7023SM  H11G 9183   4.527   1.476  15.952
   7023SM  C12F 9184   4.688   1.349  15.877
   7023SM  H12F 9185   4.768   1.284  15.918
   7023SM  H12G 9186   4.737   1.425  15.812
   7023SM  C13F 9187   4.597   1.271  15.783
   7023SM  H13F 9188   4.500   1.324  15.777
   7023SM  H13G 9189   4.579   1.169  15.824
   7023SM  C14F 9190   4.654   1.263  15.640
   7023SM  H14F 9191   4.654   1.365  15.597
   7023SM  H14G 9192   4.584   1.201  15.580
   7023SM  C15F 9193   4.797   1.207  15.628
   7023SM  H15F 9194   4.795   1.097  15.648
   7023SM  H15G 9195   4.864   1.254  15.703
   7023SM  C16F 9196   4.860   1.232  15.489
   7023SM  H16F 9197   4.958   1.180  15.482
   7023SM  H16G 9198   4.880   1.341  15.481
   7023SM  C17F 9199   4.771   1.188  15.373
   7023SM  H17F 9200   4.665   1.217  15.393
   7023SM  H17G 9201   4.774   1.077  15.364
   7023SM  C18F 9202   4.803   1.253  15.238
   7023SM  H18F 9203   4.897   1.211  15.197
   7023SM  H18G 9204   4.815   1.362  15.252
   7023SM  C19F 9205   4.687   1.229  15.141
   7023SM  H19F 9206   4.593   1.270  15.185
   7023SM  H19G 9207   4.673   1.119  15.129
   7023SM  C20F 9208   4.705   1.286  15.002
   7023SM  H20F 9209   4.798   1.246  14.956
   7023SM  H20G 9210   4.716   1.397  15.008
   7023SM  C21F 9211   4.586   1.253  14.912
   7023SM  H21F 9212   4.490   1.280  14.963
   7023SM  H21G 9213   4.585   1.143  14.895
   7023SM  C22F 9214   4.595   1.324  14.778
   7023SM  H22F 9215   4.526   1.276  14.705
   7023SM  H22G 9216   4.699   1.309  14.744
   7023SM  C23F 9217   4.568   1.474  14.781
   7023SM  H23F 9218   4.583   1.520  14.681
   7023SM  H23G 9219   4.635   1.525  14.854
   7023SM  H23H 9220   4.463   1.492  14.812
   7123SM     N 9221   4.590   6.554  17.684
   7123SM   C15 9222   4.730   6.565  17.735
   7123SM  H15A 9223   4.774   6.657  17.697
   7123SM  H15B 9224   4.791   6.484  17.698
   7123SM  H15C 9225   4.733   6.566  17.843
   7123SM   C14 9226   4.533   6.422  17.727
   7123SM  H14A 9227   4.593   6.340  17.690
   7123SM  H14B 9228   4.432   6.410  17.691
   7123SM  H14C 9229   4.532   6.415  17.834
   7123SM   C13 9230   4.507   6.664  17.744
   7123SM  H13A 9231   4.544   6.760  17.713
   7123SM  H13B 9232   4.508   6.658  17.852
   7123SM  H13C 9233   4.404   6.657  17.711
   7123SM   C12 9234   4.589   6.567  17.532
   7123SM  H12A 9235   4.489   6.548  17.496
   7123SM  H12B 9236   4.653   6.492  17.488
   7123SM   C11 9237   4.635   6.703  17.473
   7123SM  H11A 9238   4.565   6.782  17.508
   7123SM  H11B 9239   4.626   6.697  17.362
   7123SM     P 9240   4.828   6.875  17.477
   7123SM   O13 9241   4.729   6.975  17.522
   7123SM   O14 9242   4.965   6.881  17.532
   7123SM   O11 9243   4.837   6.874  17.318
   7123SM   O12 9244   4.770   6.731  17.510
   7123SM   C1S 9245   4.895   6.761  17.251
   7123SM   H1S 9246   4.874   6.666  17.304
   7123SM   H1T 9247   5.005   6.772  17.245
   7123SM    NF 9248   4.844   6.614  17.054
   7123SM   HNF 9249   4.888   6.604  16.965
   7123SM   C2S 9250   4.836   6.750  17.107
   7123SM   H2S 9251   4.729   6.777  17.112
   7123SM   C3S 9252   4.909   6.851  17.014
   7123SM   H3S 9253   5.018   6.830  17.015
   7123SM    O3 9254   4.890   6.986  17.056
   7123SM   HO3 9255   4.870   6.978  17.149
   7123SM   C4S 9256   4.855   6.834  16.875
   7123SM   H4S 9257   4.756   6.878  16.858
   7123SM   C5S 9258   4.917   6.772  16.772
   7123SM   H5S 9259   5.019   6.732  16.783
   7123SM   C6S 9260   4.855   6.757  16.636
   7123SM   H6S 9261   4.746   6.775  16.640
   7123SM   H6T 9262   4.869   6.653  16.599
   7123SM   C7S 9263   4.913   6.852  16.531
   7123SM   H7S 9264   5.021   6.830  16.516
   7123SM   H7T 9265   4.903   6.957  16.566
   7123SM   C8S 9266   4.840   6.840  16.397
   7123SM   H8S 9267   4.730   6.843  16.415
   7123SM   H8T 9268   4.863   6.741  16.350
   7123SM   C9S 9269   4.875   6.953  16.301
   7123SM   H9S 9270   4.984   6.953  16.280
   7123SM   H9T 9271   4.848   7.050  16.347
   7123SM  C10S 9272   4.802   6.939  16.168
   7123SM  H10S 9273   4.700   6.899  16.185
   7123SM  H10T 9274   4.860   6.865  16.107
   7123SM  C11S 9275   4.790   7.071  16.093
   7123SM  H11S 9276   4.887   7.124  16.096
   7123SM  H11T 9277   4.717   7.135  16.147
   7123SM  C12S 9278   4.747   7.058  15.946
   7123SM  H12S 9279   4.746   7.159  15.901
   7123SM  H12T 9280   4.643   7.019  15.939
   7123SM  C13S 9281   4.840   6.969  15.864
   7123SM  H13S 9282   4.800   6.865  15.856
   7123SM  H13T 9283   4.937   6.961  15.917
   7123SM  C14S 9284   4.864   7.025  15.725
   7123SM  H14S 9285   4.884   7.134  15.730
   7123SM  H14T 9286   4.773   7.009  15.662
   7123SM  C15S 9287   4.985   6.958  15.660
   7123SM  H15S 9288   4.981   6.848  15.674
   7123SM  H15T 9289   5.076   6.993  15.713
   7123SM  C16S 9290   4.993   6.992  15.511
   7123SM  H16S 9291   5.099   7.004  15.483
   7123SM  H16T 9292   4.938   7.086  15.489
   7123SM  C17S 9293   4.935   6.876  15.432
   7123SM  H17S 9294   4.854   6.831  15.493
   7123SM  H17T 9295   5.019   6.804  15.423
   7123SM  C18S 9296   4.877   6.904  15.294
   7123SM  H18S 9297   4.917   6.998  15.252
   7123SM  H18T 9298   4.766   6.911  15.298
   7123SM  H18U 9299   4.903   6.819  15.227
   7123SM   C1F 9300   4.772   6.511  17.100
   7123SM    OF 9301   4.718   6.512  17.210
   7123SM   C2F 9302   4.761   6.395  17.008
   7123SM   H2F 9303   4.774   6.301  17.065
   7123SM   H2G 9304   4.842   6.401  16.932
   7123SM   C3F 9305   4.624   6.394  16.937
   7123SM   H3F 9306   4.603   6.491  16.887
   7123SM   H3G 9307   4.545   6.377  17.013
   7123SM   C4F 9308   4.615   6.281  16.834
   7123SM   H4F 9309   4.510   6.273  16.796
   7123SM   H4G 9310   4.638   6.187  16.887
   7123SM   C5F 9311   4.710   6.291  16.713
   7123SM   H5F 9312   4.687   6.207  16.644
   7123SM   H5G 9313   4.815   6.274  16.748
   7123SM   C6F 9314   4.704   6.424  16.637
   7123SM   H6F 9315   4.785   6.424  16.560
   7123SM   H6G 9316   4.725   6.507  16.707
   7123SM   C7F 9317   4.571   6.449  16.566
   7123SM   H7F 9318   4.486   6.432  16.635
   7123SM   H7G 9319   4.561   6.376  16.482
   7123SM   C8F 9320   4.562   6.593  16.512
   7123SM   H8F 9321   4.656   6.616  16.457
   7123SM   H8G 9322   4.558   6.662  16.599
   7123SM   C9F 9323   4.442   6.622  16.421
   7123SM   H9F 9324   4.436   6.731  16.401
   7123SM   H9G 9325   4.349   6.593  16.476
   7123SM  C10F 9326   4.445   6.547  16.287
   7123SM  H10F 9327   4.348   6.563  16.235
   7123SM  H10G 9328   4.454   6.439  16.308
   7123SM  C11F 9329   4.557   6.588  16.191
   7123SM  H11F 9330   4.585   6.497  16.134
   7123SM  H11G 9331   4.647   6.622  16.245
   7123SM  C12F 9332   4.511   6.695  16.090
   7123SM  H12F 9333   4.490   6.789  16.145
   7123SM  H12G 9334   4.416   6.663  16.042
   7123SM  C13F 9335   4.615   6.722  15.981
   7123SM  H13F 9336   4.712   6.745  16.031
   7123SM  H13G 9337   4.584   6.811  15.921
   7123SM  C14F 9338   4.643   6.607  15.885
   7123SM  H14F 9339   4.668   6.516  15.945
   7123SM  H14G 9340   4.735   6.629  15.826
   7123SM  C15F 9341   4.527   6.574  15.791
   7123SM  H15F 9342   4.433   6.566  15.849
   7123SM  H15G 9343   4.546   6.473  15.751
   7123SM  C16F 9344   4.506   6.671  15.673
   7123SM  H16F 9345   4.455   6.761  15.713
   7123SM  H16G 9346   4.436   6.622  15.601
   7123SM  C17F 9347   4.630   6.719  15.596
   7123SM  H17F 9348   4.696   6.776  15.664
   7123SM  H17G 9349   4.594   6.791  15.520
   7123SM  C18F 9350   4.712   6.612  15.520
   7123SM  H18F 9351   4.731   6.655  15.419
   7123SM  H18G 9352   4.653   6.520  15.501
   7123SM  C19F 9353   4.850   6.582  15.583
   7123SM  H19F 9354   4.846   6.495  15.652
   7123SM  H19G 9355   4.879   6.669  15.645
   7123SM  C20F 9356   4.962   6.563  15.480
   7123SM  H20F 9357   5.059   6.597  15.521
   7123SM  H20G 9358   4.938   6.623  15.390
   7123SM  C21F 9359   4.979   6.421  15.430
   7123SM  H21F 9360   4.878   6.379  15.411
   7123SM  H21G 9361   5.032   6.358  15.504
   7123SM  C22F 9362   5.048   6.419  15.295
   7123SM  H22F 9363   5.155   6.451  15.302
   7123SM  H22G 9364   4.996   6.490  15.227
   7123SM  C23F 9365   5.038   6.280  15.236
   7123SM  H23F 9366   5.126   6.219  15.266
   7123SM  H23G 9367   5.033   6.286  15.125
   7123SM  H23H 9368   4.946   6.229  15.270
   7223SM     N 9369   6.725   2.672  17.667
   7223SM   C15 9370   6.748   2.771  17.777
   7223SM  H15A 9371   6.661   2.778  17.841
   7223SM  H15B 9372   6.762   2.868  17.732
   7223SM  H15C 9373   6.836   2.747  17.836
   7223SM   C14 9374   6.846   2.666  17.580
   7223SM  H14A 9375   6.936   2.645  17.635
   7223SM  H14B 9376   6.857   2.762  17.531
   7223SM  H14C 9377   6.834   2.593  17.501
   7223SM   C13 9378   6.695   2.538  17.726
   7223SM  H13A 9379   6.676   2.466  17.648
   7223SM  H13B 9380   6.605   2.544  17.785
   7223SM  H13C 9381   6.775   2.503  17.788
   7223SM   C12 9382   6.608   2.720  17.583
   7223SM  H12A 9383   6.517   2.685  17.628
   7223SM  H12B 9384   6.616   2.675  17.485
   7223SM   C11 9385   6.592   2.874  17.563
   7223SM  H11A 9386   6.545   2.917  17.654
   7223SM  H11B 9387   6.522   2.889  17.478
   7223SM     P 9388   6.719   3.092  17.498
   7223SM   O13 9389   6.609   3.120  17.404
   7223SM   O14 9390   6.730   3.175  17.620
   7223SM   O11 9391   6.856   3.101  17.419
   7223SM   O12 9392   6.718   2.938  17.538
   7223SM   C1S 9393   6.895   2.997  17.329
   7223SM   H1S 9394   6.895   2.898  17.380
   7223SM   H1T 9395   7.000   3.016  17.297
   7223SM    NF 9396   6.858   2.871  17.121
   7223SM   HNF 9397   6.904   2.895  17.035
   7223SM   C2S 9398   6.809   2.985  17.199
   7223SM   H2S 9399   6.704   2.964  17.227
   7223SM   C3S 9400   6.813   3.118  17.118
   7223SM   H3S 9401   6.919   3.150  17.108
   7223SM    O3 9402   6.740   3.228  17.172
   7223SM   HO3 9403   6.703   3.197  17.255
   7223SM   C4S 9404   6.763   3.087  16.979
   7223SM   H4S 9405   6.841   3.102  16.902
   7223SM   C5S 9406   6.638   3.050  16.942
   7223SM   H5S 9407   6.559   3.047  17.018
   7223SM   C6S 9408   6.595   3.018  16.800
   7223SM   H6S 9409   6.508   3.080  16.772
   7223SM   H6T 9410   6.563   2.912  16.794
   7223SM   C7S 9411   6.706   3.039  16.696
   7223SM   H7S 9412   6.798   2.982  16.721
   7223SM   H7T 9413   6.733   3.147  16.698
   7223SM   C8S 9414   6.668   3.005  16.551
   7223SM   H8S 9415   6.566   3.043  16.529
   7223SM   H8T 9416   6.669   2.895  16.536
   7223SM   C9S 9417   6.767   3.073  16.455
   7223SM   H9S 9418   6.871   3.040  16.476
   7223SM   H9T 9419   6.765   3.183  16.474
   7223SM  C10S 9420   6.734   3.053  16.307
   7223SM  H10S 9421   6.624   3.054  16.293
   7223SM  H10T 9422   6.772   2.954  16.274
   7223SM  C11S 9423   6.795   3.165  16.223
   7223SM  H11S 9424   6.902   3.176  16.249
   7223SM  H11T 9425   6.744   3.261  16.247
   7223SM  C12S 9426   6.782   3.138  16.073
   7223SM  H12S 9427   6.676   3.129  16.044
   7223SM  H12T 9428   6.831   3.040  16.053
   7223SM  C13S 9429   6.851   3.245  15.987
   7223SM  H13S 9430   6.944   3.280  16.038
   7223SM  H13T 9431   6.784   3.333  15.975
   7223SM  C14S 9432   6.888   3.186  15.851
   7223SM  H14S 9433   6.796   3.148  15.803
   7223SM  H14T 9434   6.956   3.100  15.867
   7223SM  C15S 9435   6.958   3.284  15.756
   7223SM  H15S 9436   7.049   3.327  15.802
   7223SM  H15T 9437   6.888   3.368  15.735
   7223SM  C16S 9438   6.992   3.210  15.627
   7223SM  H16S 9439   6.905   3.144  15.604
   7223SM  H16T 9440   7.080   3.143  15.642
   7223SM  C17S 9441   7.014   3.300  15.505
   7223SM  H17S 9442   7.120   3.333  15.503
   7223SM  H17T 9443   6.953   3.392  15.517
   7223SM  C18S 9444   6.972   3.230  15.376
   7223SM  H18S 9445   7.045   3.150  15.350
   7223SM  H18T 9446   6.965   3.301  15.291
   7223SM  H18U 9447   6.872   3.182  15.388
   7223SM   C1F 9448   6.832   2.743  17.149
   7223SM    OF 9449   6.772   2.710  17.250
   7223SM   C2F 9450   6.873   2.641  17.047
   7223SM   H2F 9451   6.815   2.548  17.066
   7223SM   H2G 9452   6.981   2.617  17.062
   7223SM   C3F 9453   6.849   2.684  16.900
   7223SM   H3F 9454   6.909   2.774  16.874
   7223SM   H3G 9455   6.742   2.712  16.887
   7223SM   C4F 9456   6.881   2.572  16.800
   7223SM   H4F 9457   6.815   2.485  16.824
   7223SM   H4G 9458   6.985   2.537  16.813
   7223SM   C5F 9459   6.857   2.607  16.652
   7223SM   H5F 9460   6.753   2.644  16.638
   7223SM   H5G 9461   6.865   2.513  16.594
   7223SM   C6F 9462   6.955   2.708  16.590
   7223SM   H6F 9463   7.059   2.679  16.615
   7223SM   H6G 9464   6.936   2.810  16.631
   7223SM   C7F 9465   6.942   2.712  16.437
   7223SM   H7F 9466   6.838   2.743  16.411
   7223SM   H7G 9467   6.956   2.609  16.397
   7223SM   C8F 9468   7.040   2.805  16.365
   7223SM   H8F 9469   7.145   2.778  16.390
   7223SM   H8G 9470   7.023   2.909  16.399
   7223SM   C9F 9471   7.022   2.799  16.212
   7223SM   H9F 9472   6.913   2.807  16.191
   7223SM   H9G 9473   7.055   2.701  16.173
   7223SM  C10F 9474   7.091   2.914  16.137
   7223SM  H10F 9475   7.094   3.004  16.202
   7223SM  H10G 9476   7.030   2.942  16.048
   7223SM  C11F 9477   7.233   2.881  16.089
   7223SM  H11F 9478   7.288   2.833  16.173
   7223SM  H11G 9479   7.285   2.975  16.063
   7223SM  C12F 9480   7.241   2.789  15.965
   7223SM  H12F 9481   7.189   2.693  15.986
   7223SM  H12G 9482   7.347   2.766  15.945
   7223SM  C13F 9483   7.181   2.852  15.838
   7223SM  H13F 9484   7.226   2.952  15.821
   7223SM  H13G 9485   7.072   2.865  15.852
   7223SM  C14F 9486   7.204   2.766  15.712
   7223SM  H14F 9487   7.165   2.663  15.730
   7223SM  H14G 9488   7.314   2.758  15.695
   7223SM  C15F 9489   7.138   2.823  15.585
   7223SM  H15F 9490   7.173   2.763  15.498
   7223SM  H15G 9491   7.172   2.927  15.569
   7223SM  C16F 9492   6.985   2.821  15.589
   7223SM  H16F 9493   6.950   2.888  15.671
   7223SM  H16G 9494   6.949   2.718  15.614
   7223SM  C17F 9495   6.919   2.869  15.459
   7223SM  H17F 9496   6.960   2.969  15.435
   7223SM  H17G 9497   6.809   2.881  15.475
   7223SM  C18F 9498   6.942   2.779  15.336
   7223SM  H18F 9499   7.051   2.773  15.318
   7223SM  H18G 9500   6.898   2.827  15.246
   7223SM  C19F 9501   6.885   2.636  15.350
   7223SM  H19F 9502   6.925   2.593  15.444
   7223SM  H19G 9503   6.923   2.573  15.267
   7223SM  C20F 9504   6.732   2.626  15.351
   7223SM  H20F 9505   6.685   2.712  15.403
   7223SM  H20G 9506   6.708   2.535  15.410
   7223SM  C21F 9507   6.671   2.604  15.212
   7223SM  H21F 9508   6.579   2.543  15.222
   7223SM  H21G 9509   6.743   2.547  15.149
   7223SM  C22F 9510   6.632   2.733  15.137
   7223SM  H22F 9511   6.718   2.803  15.136
   7223SM  H22G 9512   6.549   2.782  15.193
   7223SM  C23F 9513   6.588   2.704  14.993
   7223SM  H23F 9514   6.507   2.628  14.991
   7223SM  H23G 9515   6.673   2.665  14.934
   7223SM  H23H 9516   6.551   2.797  14.945
   7323SM     N 9517   5.335   1.070  17.778
   7323SM   C15 9518   5.408   1.199  17.758
   7323SM  H15A 9519   5.458   1.230  17.848
   7323SM  H15B 9520   5.340   1.277  17.725
   7323SM  H15C 9521   5.479   1.188  17.677
   7323SM   C14 9522   5.433   0.966  17.821
   7323SM  H14A 9523   5.481   0.995  17.913
   7323SM  H14B 9524   5.510   0.953  17.746
   7323SM  H14C 9525   5.383   0.871  17.836
   7323SM   C13 9526   5.232   1.088  17.886
   7323SM  H13A 9527   5.281   1.112  17.979
   7323SM  H13B 9528   5.175   0.998  17.899
   7323SM  H13C 9529   5.164   1.168  17.862
   7323SM   C12 9530   5.265   1.027  17.650
   7323SM  H12A 9531   5.194   1.103  17.622
   7323SM  H12B 9532   5.205   0.940  17.670
   7323SM   C11 9533   5.354   1.000  17.526
   7323SM  H11A 9534   5.295   0.948  17.448
   7323SM  H11B 9535   5.436   0.931  17.553
   7323SM     P 9536   5.309   1.229  17.414
   7323SM   O13 9537   5.189   1.157  17.365
   7323SM   O14 9538   5.290   1.339  17.511
   7323SM   O11 9539   5.395   1.277  17.290
   7323SM   O12 9540   5.409   1.122  17.476
   7323SM   C1S 9541   5.444   1.179  17.196
   7323SM   H1S 9542   5.416   1.075  17.224
   7323SM   H1T 9543   5.555   1.184  17.192
   7323SM    NF 9544   5.423   1.097  16.964
   7323SM   HNF 9545   5.489   1.117  16.892
   7323SM   C2S 9546   5.388   1.206  17.054
   7323SM   H2S 9547   5.277   1.212  17.060
   7323SM   C3S 9548   5.443   1.345  17.006
   7323SM   H3S 9549   5.554   1.340  17.007
   7323SM    O3 9550   5.406   1.455  17.089
   7323SM   HO3 9551   5.385   1.414  17.173
   7323SM   C4S 9552   5.399   1.367  16.864
   7323SM   H4S 9553   5.481   1.353  16.792
   7323SM   C5S 9554   5.278   1.406  16.821
   7323SM   H5S 9555   5.199   1.426  16.895
   7323SM   C6S 9556   5.239   1.428  16.677
   7323SM   H6S 9557   5.213   1.534  16.661
   7323SM   H6T 9558   5.148   1.369  16.653
   7323SM   C7S 9559   5.347   1.390  16.574
   7323SM   H7S 9560   5.365   1.280  16.578
   7323SM   H7T 9561   5.442   1.442  16.596
   7323SM   C8S 9562   5.304   1.430  16.433
   7323SM   H8S 9563   5.291   1.540  16.429
   7323SM   H8T 9564   5.206   1.384  16.410
   7323SM   C9S 9565   5.403   1.390  16.324
   7323SM   H9S 9566   5.496   1.450  16.332
   7323SM   H9T 9567   5.353   1.417  16.228
   7323SM  C10S 9568   5.439   1.241  16.318
   7323SM  H10S 9569   5.347   1.180  16.316
   7323SM  H10T 9570   5.497   1.211  16.408
   7323SM  C11S 9571   5.521   1.209  16.193
   7323SM  H11S 9572   5.536   1.099  16.186
   7323SM  H11T 9573   5.621   1.256  16.201
   7323SM  C12S 9574   5.454   1.260  16.065
   7323SM  H12S 9575   5.475   1.369  16.052
   7323SM  H12T 9576   5.344   1.247  16.072
   7323SM  C13S 9577   5.503   1.187  15.941
   7323SM  H13S 9578   5.454   1.229  15.850
   7323SM  H13T 9579   5.474   1.081  15.949
   7323SM  C14S 9580   5.654   1.196  15.926
   7323SM  H14S 9581   5.705   1.168  16.021
   7323SM  H14T 9582   5.687   1.299  15.900
   7323SM  C15S 9583   5.700   1.097  15.821
   7323SM  H15S 9584   5.654   0.997  15.841
   7323SM  H15T 9585   5.810   1.087  15.838
   7323SM  C16S 9586   5.670   1.140  15.678
   7323SM  H16S 9587   5.741   1.219  15.646
   7323SM  H16T 9588   5.568   1.183  15.674
   7323SM  C17S 9589   5.672   1.025  15.578
   7323SM  H17S 9590   5.603   0.945  15.612
   7323SM  H17T 9591   5.772   0.976  15.571
   7323SM  C18S 9592   5.635   1.074  15.440
   7323SM  H18S 9593   5.703   1.156  15.408
   7323SM  H18T 9594   5.530   1.112  15.439
   7323SM  H18U 9595   5.646   0.992  15.366
   7323SM   C1F 9596   5.373   0.973  16.972
   7323SM    OF 9597   5.299   0.938  17.064
   7323SM   C2F 9598   5.417   0.877  16.866
   7323SM   H2F 9599   5.486   0.804  16.914
   7323SM   H2G 9600   5.475   0.931  16.789
   7323SM   C3F 9601   5.299   0.804  16.798
   7323SM   H3F 9602   5.239   0.747  16.872
   7323SM   H3G 9603   5.341   0.732  16.725
   7323SM   C4F 9604   5.206   0.900  16.722
   7323SM   H4F 9605   5.267   0.975  16.668
   7323SM   H4G 9606   5.142   0.954  16.794
   7323SM   C5F 9607   5.116   0.826  16.621
   7323SM   H5F 9608   5.014   0.869  16.626
   7323SM   H5G 9609   5.108   0.719  16.649
   7323SM   C6F 9610   5.165   0.835  16.475
   7323SM   H6F 9611   5.104   0.768  16.411
   7323SM   H6G 9612   5.270   0.798  16.470
   7323SM   C7F 9613   5.159   0.977  16.413
   7323SM   H7F 9614   5.205   0.972  16.312
   7323SM   H7G 9615   5.220   1.047  16.474
   7323SM   C8F 9616   5.016   1.033  16.399
   7323SM   H8F 9617   4.962   1.020  16.495
   7323SM   H8G 9618   4.962   0.974  16.322
   7323SM   C9F 9619   5.012   1.182  16.363
   7323SM   H9F 9620   5.066   1.237  16.443
   7323SM   H9G 9621   4.906   1.217  16.364
   7323SM  C10F 9622   5.070   1.217  16.226
   7323SM  H10F 9623   5.166   1.163  16.210
   7323SM  H10G 9624   5.093   1.326  16.222
   7323SM  C11F 9625   4.973   1.185  16.112
   7323SM  H11F 9626   4.885   1.253  16.120
   7323SM  H11G 9627   4.936   1.081  16.124
   7323SM  C12F 9628   5.036   1.199  15.974
   7323SM  H12F 9629   5.090   1.296  15.965
   7323SM  H12G 9630   4.956   1.198  15.897
   7323SM  C13F 9631   5.130   1.083  15.941
   7323SM  H13F 9632   5.074   0.988  15.954
   7323SM  H13G 9633   5.216   1.080  16.012
   7323SM  C14F 9634   5.182   1.090  15.798
   7323SM  H14F 9635   5.252   1.176  15.787
   7323SM  H14G 9636   5.097   1.107  15.729
   7323SM  C15F 9637   5.251   0.960  15.759
   7323SM  H15F 9638   5.176   0.878  15.765
   7323SM  H15G 9639   5.333   0.936  15.831
   7323SM  C16F 9640   5.308   0.965  15.617
   7323SM  H16F 9641   5.403   1.022  15.619
   7323SM  H16G 9642   5.237   1.019  15.551
   7323SM  C17F 9643   5.329   0.824  15.562
   7323SM  H17F 9644   5.229   0.776  15.550
   7323SM  H17G 9645   5.386   0.764  15.636
   7323SM  C18F 9646   5.402   0.818  15.427
   7323SM  H18F 9647   5.398   0.712  15.394
   7323SM  H18G 9648   5.510   0.841  15.443
   7323SM  C19F 9649   5.346   0.912  15.319
   7323SM  H19F 9650   5.347   1.015  15.359
   7323SM  H19G 9651   5.240   0.887  15.297
   7323SM  C20F 9652   5.427   0.916  15.188
   7323SM  H20F 9653   5.535   0.926  15.212
   7323SM  H20G 9654   5.397   1.007  15.133
   7323SM  C21F 9655   5.412   0.797  15.092
   7323SM  H21F 9656   5.474   0.825  15.005
   7323SM  H21G 9657   5.307   0.787  15.059
   7323SM  C22F 9658   5.464   0.662  15.145
   7323SM  H22F 9659   5.391   0.623  15.219
   7323SM  H22G 9660   5.561   0.679  15.196
   7323SM  C23F 9661   5.481   0.555  15.037
   7323SM  H23F 9662   5.556   0.587  14.962
   7323SM  H23G 9663   5.385   0.536  14.985
   7323SM  H23H 9664   5.516   0.460  15.083
   7423SM     N 9665   0.499   4.469  17.688
   7423SM   C15 9666   0.577   4.483  17.814
   7423SM  H15A 9667   0.662   4.548  17.802
   7423SM  H15B 9668   0.614   4.387  17.848
   7423SM  H15C 9669   0.516   4.525  17.893
   7423SM   C14 9670   0.382   4.377  17.711
   7423SM  H14A 9671   0.415   4.275  17.716
   7423SM  H14B 9672   0.316   4.380  17.626
   7423SM  H14C 9673   0.326   4.403  17.799
   7423SM   C13 9674   0.445   4.603  17.646
   7423SM  H13A 9675   0.389   4.594  17.554
   7423SM  H13B 9676   0.525   4.674  17.629
   7423SM  H13C 9677   0.379   4.643  17.721
   7423SM   C12 9678   0.588   4.411  17.579
   7423SM  H12A 9679   0.649   4.334  17.623
   7423SM  H12B 9680   0.656   4.487  17.543
   7423SM   C11 9681   0.518   4.341  17.459
   7423SM  H11A 9682   0.590   4.333  17.375
   7423SM  H11B 9683   0.434   4.403  17.423
   7423SM     P 9684   0.576   4.095  17.516
   7423SM   O13 9685   0.693   4.148  17.590
   7423SM   O14 9686   0.508   3.977  17.574
   7423SM   O11 9687   0.620   4.066  17.367
   7423SM   O12 9688   0.471   4.212  17.499
   7423SM   C1S 9689   0.521   4.050  17.264
   7423SM   H1S 9690   0.433   4.115  17.281
   7423SM   H1T 9691   0.486   3.945  17.261
   7423SM    NF 9692   0.478   4.077  17.018
   7423SM   HNF 9693   0.503   4.024  16.937
   7423SM   C2S 9694   0.580   4.085  17.123
   7423SM   H2S 9695   0.616   4.190  17.126
   7423SM   C3S 9696   0.702   3.992  17.094
   7423SM   H3S 9697   0.670   3.888  17.115
   7423SM    O3 9698   0.814   4.019  17.177
   7423SM   HO3 9699   0.776   4.057  17.256
   7423SM   C4S 9700   0.741   4.005  16.949
   7423SM   H4S 9701   0.789   4.100  16.923
   7423SM   C5S 9702   0.724   3.909  16.855
   7423SM   H5S 9703   0.684   3.811  16.883
   7423SM   C6S 9704   0.760   3.919  16.709
   7423SM   H6S 9705   0.673   3.887  16.648
   7423SM   H6T 9706   0.841   3.846  16.687
   7423SM   C7S 9707   0.806   4.057  16.660
   7423SM   H7S 9708   0.897   4.086  16.717
   7423SM   H7T 9709   0.726   4.132  16.678
   7423SM   C8S 9710   0.843   4.057  16.510
   7423SM   H8S 9711   0.903   3.966  16.488
   7423SM   H8T 9712   0.907   4.145  16.488
   7423SM   C9S 9713   0.721   4.062  16.417
   7423SM   H9S 9714   0.660   4.153  16.438
   7423SM   H9T 9715   0.657   3.973  16.438
   7423SM  C10S 9716   0.761   4.060  16.269
   7423SM  H10S 9717   0.831   3.975  16.253
   7423SM  H10T 9718   0.815   4.154  16.244
   7423SM  C11S 9719   0.642   4.043  16.175
   7423SM  H11S 9720   0.571   4.127  16.188
   7423SM  H11T 9721   0.588   3.949  16.202
   7423SM  C12S 9722   0.685   4.035  16.029
   7423SM  H12S 9723   0.762   3.955  16.019
   7423SM  H12T 9724   0.731   4.131  15.998
   7423SM  C13S 9725   0.569   4.004  15.933
   7423SM  H13S 9726   0.490   4.081  15.945
   7423SM  H13T 9727   0.525   3.905  15.960
   7423SM  C14S 9728   0.614   4.001  15.787
   7423SM  H14S 9729   0.702   3.934  15.775
   7423SM  H14T 9730   0.649   4.102  15.757
   7423SM  C15S 9731   0.507   3.950  15.692
   7423SM  H15S 9732   0.423   4.023  15.688
   7423SM  H15T 9733   0.465   3.854  15.728
   7423SM  C16S 9734   0.565   3.931  15.552
   7423SM  H16S 9735   0.631   3.842  15.551
   7423SM  H16T 9736   0.629   4.018  15.527
   7423SM  C17S 9737   0.458   3.917  15.444
   7423SM  H17S 9738   0.381   3.997  15.456
   7423SM  H17T 9739   0.405   3.820  15.458
   7423SM  C18S 9740   0.518   3.926  15.304
   7423SM  H18S 9741   0.607   3.859  15.296
   7423SM  H18T 9742   0.551   4.029  15.282
   7423SM  H18U 9743   0.443   3.896  15.227
   7423SM   C1F 9744   0.368   4.151  17.011
   7423SM    OF 9745   0.335   4.228  17.101
   7423SM   C2F 9746   0.284   4.134  16.888
   7423SM   H2F 9747   0.209   4.055  16.908
   7423SM   H2G 9748   0.348   4.101  16.804
   7423SM   C3F 9749   0.211   4.264  16.847
   7423SM   H3F 9750   0.283   4.337  16.806
   7423SM   H3G 9751   0.165   4.311  16.936
   7423SM   C4F 9752   0.098   4.237  16.745
   7423SM   H4F 9753   0.038   4.329  16.733
   7423SM   H4G 9754   0.031   4.158  16.784
   7423SM   C5F 9755   0.144   4.190  16.606
   7423SM   H5F 9756   0.054   4.178  16.543
   7423SM   H5G 9757   0.192   4.090  16.615
   7423SM   C6F 9758   0.241   4.285  16.534
   7423SM   H6F 9759   0.257   4.247  16.431
   7423SM   H6G 9760   0.339   4.283  16.586
   7423SM   C7F 9761   0.193   4.431  16.527
   7423SM   H7F 9762   0.173   4.469  16.630
   7423SM   H7G 9763   0.096   4.435  16.472
   7423SM   C8F 9764   0.298   4.523  16.463
   7423SM   H8F 9765   0.394   4.509  16.517
   7423SM   H8G 9766   0.268   4.629  16.477
   7423SM   C9F 9767   0.319   4.500  16.313
   7423SM   H9F 9768   0.355   4.396  16.295
   7423SM   H9G 9769   0.400   4.569  16.280
   7423SM  C10F 9770   0.194   4.526  16.229
   7423SM  H10F 9771   0.159   4.630  16.245
   7423SM  H10G 9772   0.113   4.457  16.260
   7423SM  C11F 9773   0.220   4.506  16.079
   7423SM  H11F 9774   0.123   4.505  16.025
   7423SM  H11G 9775   0.267   4.406  16.067
   7423SM  C12F 9776   0.309   4.614  16.017
   7423SM  H12F 9777   0.409   4.612  16.066
   7423SM  H12G 9778   0.265   4.714  16.036
   7423SM  C13F 9779   0.329   4.595  15.867
   7423SM  H13F 9780   0.399   4.671  15.828
   7423SM  H13G 9781   0.231   4.609  15.815
   7423SM  C14F 9782   0.382   4.455  15.832
   7423SM  H14F 9783   0.308   4.378  15.861
   7423SM  H14G 9784   0.476   4.435  15.888
   7423SM  C15F 9785   0.407   4.440  15.683
   7423SM  H15F 9786   0.489   4.507  15.651
   7423SM  H15G 9787   0.315   4.471  15.628
   7423SM  C16F 9788   0.440   4.296  15.647
   7423SM  H16F 9789   0.362   4.228  15.687
   7423SM  H16G 9790   0.537   4.270  15.696
   7423SM  C17F 9791   0.453   4.277  15.497
   7423SM  H17F 9792   0.506   4.182  15.476
   7423SM  H17G 9793   0.518   4.359  15.458
   7423SM  C18F 9794   0.319   4.275  15.423
   7423SM  H18F 9795   0.270   4.374  15.434
   7423SM  H18G 9796   0.252   4.198  15.469
   7423SM  C19F 9797   0.331   4.241  15.275
   7423SM  H19F 9798   0.241   4.278  15.222
   7423SM  H19G 9799   0.334   4.131  15.263
   7423SM  C20F 9800   0.457   4.302  15.213
   7423SM  H20F 9801   0.549   4.263  15.262
   7423SM  H20G 9802   0.454   4.412  15.228
   7423SM  C21F 9803   0.466   4.271  15.064
   7423SM  H21F 9804   0.489   4.366  15.012
   7423SM  H21G 9805   0.365   4.242  15.030
   7423SM  C22F 9806   0.571   4.163  15.031
   7423SM  H22F 9807   0.525   4.063  15.044
   7423SM  H22G 9808   0.655   4.168  15.104
   7423SM  C23F 9809   0.630   4.172  14.890
   7423SM  H23F 9810   0.729   4.223  14.894
   7423SM  H23G 9811   0.564   4.229  14.822
   7423SM  H23H 9812   0.647   4.071  14.847
   7523SM     N 9813   6.762   5.429  17.696
   7523SM   C15 9814   6.691   5.377  17.817
   7523SM  H15A 9815   6.600   5.326  17.789
   7523SM  H15B 9816   6.664   5.458  17.884
   7523SM  H15C 9817   6.753   5.308  17.872
   7523SM   C14 9818   6.801   5.316  17.605
   7523SM  H14A 9819   6.863   5.354  17.526
   7523SM  H14B 9820   6.715   5.271  17.558
   7523SM  H14C 9821   6.860   5.241  17.656
   7523SM   C13 9822   6.671   5.519  17.618
   7523SM  H13A 9823   6.650   5.611  17.670
   7523SM  H13B 9824   6.577   5.470  17.596
   7523SM  H13C 9825   6.717   5.546  17.524
   7523SM   C12 9826   6.888   5.504  17.737
   7523SM  H12A 9827   6.948   5.440  17.800
   7523SM  H12B 9828   6.860   5.590  17.796
   7523SM   C11 9829   6.980   5.550  17.623
   7523SM  H11A 9830   7.040   5.636  17.660
   7523SM  H11B 9831   6.918   5.589  17.539
   7523SM     P 9832   7.172   5.476  17.472
   7523SM   O13 9833   7.260   5.581  17.530
   7523SM   O14 9834   7.235   5.355  17.415
   7523SM   O11 9835   7.077   5.544  17.367
   7523SM   O12 9836   7.064   5.441  17.583
   7523SM   C1S 9837   6.990   5.468  17.282
   7523SM   H1S 9838   6.887   5.506  17.295
   7523SM   H1T 9839   6.987   5.360  17.306
   7523SM    NF 9840   7.108   5.375  17.087
   7523SM   HNF 9841   7.207   5.380  17.095
   7523SM   C2S 9842   7.029   5.489  17.132
   7523SM   H2S 9843   6.936   5.493  17.071
   7523SM   C3S 9844   7.099   5.627  17.121
   7523SM   H3S 9845   7.195   5.626  17.176
   7523SM    O3 9846   7.016   5.727  17.181
   7523SM   HO3 9847   7.006   5.690  17.269
   7523SM   C4S 9848   7.124   5.671  16.980
   7523SM   H4S 9849   7.066   5.758  16.947
   7523SM   C5S 9850   7.216   5.620  16.897
   7523SM   H5S 9851   7.281   5.537  16.928
   7523SM   C6S 9852   7.240   5.673  16.759
   7523SM   H6S 9853   7.347   5.661  16.734
   7523SM   H6T 9854   7.225   5.783  16.759
   7523SM   C7S 9855   7.149   5.614  16.651
   7523SM   H7S 9856   7.045   5.638  16.683
   7523SM   H7T 9857   7.152   5.503  16.645
   7523SM   C8S 9858   7.182   5.677  16.515
   7523SM   H8S 9859   7.286   5.650  16.486
   7523SM   H8T 9860   7.192   5.785  16.537
   7523SM   C9S 9861   7.083   5.668  16.397
   7523SM   H9S 9862   7.117   5.756  16.339
   7523SM   H9T 9863   6.980   5.690  16.430
   7523SM  C10S 9864   7.080   5.553  16.291
   7523SM  H10S 9865   7.005   5.477  16.322
   7523SM  H10T 9866   7.176   5.500  16.274
   7523SM  C11S 9867   7.044   5.608  16.152
   7523SM  H11S 9868   7.063   5.718  16.157
   7523SM  H11T 9869   6.936   5.593  16.132
   7523SM  C12S 9870   7.128   5.568  16.028
   7523SM  H12S 9871   7.114   5.460  16.004
   7523SM  H12T 9872   7.236   5.586  16.047
   7523SM  C13S 9873   7.084   5.657  15.910
   7523SM  H13S 9874   7.084   5.761  15.947
   7523SM  H13T 9875   6.981   5.630  15.878
   7523SM  C14S 9876   7.176   5.668  15.789
   7523SM  H14S 9877   7.191   5.569  15.739
   7523SM  H14T 9878   7.274   5.704  15.828
   7523SM  C15S 9879   7.124   5.770  15.686
   7523SM  H15S 9880   7.078   5.855  15.739
   7523SM  H15T 9881   7.046   5.721  15.624
   7523SM  C16S 9882   7.234   5.824  15.594
   7523SM  H16S 9883   7.266   5.740  15.528
   7523SM  H16T 9884   7.321   5.856  15.655
   7523SM  C17S 9885   7.192   5.939  15.504
   7523SM  H17S 9886   7.147   6.019  15.567
   7523SM  H17T 9887   7.114   5.904  15.433
   7523SM  C18S 9888   7.311   5.997  15.426
   7523SM  H18S 9889   7.389   6.032  15.496
   7523SM  H18T 9890   7.279   6.082  15.363
   7523SM  H18U 9891   7.355   5.919  15.360
   7523SM   C1F 9892   7.046   5.260  17.067
   7523SM    OF 9893   6.924   5.253  17.084
   7523SM   C2F 9894   7.125   5.140  17.024
   7523SM   H2F 9895   7.156   5.082  17.113
   7523SM   H2G 9896   7.215   5.173  16.968
   7523SM   C3F 9897   7.030   5.059  16.934
   7523SM   H3F 9898   6.990   5.126  16.855
   7523SM   H3G 9899   6.945   5.024  16.998
   7523SM   C4F 9900   7.081   4.935  16.861
   7523SM   H4F 9901   6.990   4.877  16.832
   7523SM   H4G 9902   7.138   4.869  16.929
   7523SM   C5F 9903   7.150   4.965  16.727
   7523SM   H5F 9904   7.079   5.029  16.670
   7523SM   H5G 9905   7.161   4.870  16.671
   7523SM   C6F 9906   7.283   5.041  16.731
   7523SM   H6F 9907   7.349   5.005  16.812
   7523SM   H6G 9908   7.262   5.148  16.750
   7523SM   C7F 9909   7.358   5.027  16.597
   7523SM   H7F 9910   7.380   4.920  16.579
   7523SM   H7G 9911   7.457   5.077  16.604
   7523SM   C8F 9912   7.278   5.082  16.478
   7523SM   H8F 9913   7.246   5.187  16.496
   7523SM   H8G 9914   7.183   5.025  16.469
   7523SM   C9F 9915   7.347   5.071  16.342
   7523SM   H9F 9916   7.280   5.118  16.267
   7523SM   H9G 9917   7.355   4.962  16.321
   7523SM  C10F 9918   7.491   5.120  16.324
   7523SM  H10F 9919   7.553   5.028  16.312
   7523SM  H10G 9920   7.526   5.170  16.417
   7523SM  C11F 9921   7.517   5.213  16.204
   7523SM  H11F 9922   7.627   5.226  16.193
   7523SM  H11G 9923   7.479   5.316  16.222
   7523SM  C12F 9924   7.457   5.172  16.070
   7523SM  H12F 9925   7.347   5.157  16.078
   7523SM  H12G 9926   7.504   5.077  16.037
   7523SM  C13F 9927   7.482   5.282  15.967
   7523SM  H13F 9928   7.592   5.294  15.955
   7523SM  H13G 9929   7.443   5.379  16.005
   7523SM  C14F 9930   7.418   5.254  15.830
   7523SM  H14F 9931   7.435   5.147  15.804
   7523SM  H14G 9932   7.475   5.309  15.752
   7523SM  C15F 9933   7.271   5.299  15.828
   7523SM  H15F 9934   7.271   5.409  15.845
   7523SM  H15G 9935   7.220   5.253  15.915
   7523SM  C16F 9936   7.188   5.269  15.702
   7523SM  H16F 9937   7.251   5.212  15.630
   7523SM  H16G 9938   7.159   5.364  15.652
   7523SM  C17F 9939   7.063   5.187  15.737
   7523SM  H17F 9940   7.011   5.231  15.824
   7523SM  H17G 9941   7.103   5.087  15.767
   7523SM  C18F 9942   6.963   5.151  15.628
   7523SM  H18F 9943   6.884   5.086  15.671
   7523SM  H18G 9944   7.016   5.088  15.553
   7523SM  C19F 9945   6.895   5.270  15.560
   7523SM  H19F 9946   6.966   5.355  15.551
   7523SM  H19G 9947   6.809   5.303  15.622
   7523SM  C20F 9948   6.847   5.232  15.419
   7523SM  H20F 9949   6.780   5.311  15.380
   7523SM  H20G 9950   6.787   5.138  15.424
   7523SM  C21F 9951   6.965   5.212  15.323
   7523SM  H21F 9952   7.033   5.132  15.359
   7523SM  H21G 9953   7.025   5.306  15.319
   7523SM  C22F 9954   6.921   5.175  15.183
   7523SM  H22F 9955   6.866   5.262  15.142
   7523SM  H22G 9956   6.850   5.089  15.187
   7523SM  C23F 9957   7.039   5.140  15.092
   7523SM  H23F 9958   7.006   5.130  14.986
   7523SM  H23G 9959   7.085   5.044  15.124
   7523SM  H23H 9960   7.116   5.219  15.099
   7623SM     N 9961   0.582   5.955  17.754
   7623SM   C15 9962   0.512   5.826  17.786
   7623SM  H15A 9963   0.450   5.799  17.702
   7623SM  H15B 9964   0.452   5.832  17.875
   7623SM  H15C 9965   0.584   5.745  17.795
   7623SM   C14 9966   0.479   6.062  17.736
   7623SM  H14A 9967   0.411   6.069  17.819
   7623SM  H14B 9968   0.417   6.035  17.651
   7623SM  H14C 9969   0.524   6.157  17.711
   7623SM   C13 9970   0.683   5.985  17.861
   7623SM  H13A 9971   0.752   5.902  17.870
   7623SM  H13B 9972   0.638   5.998  17.958
   7623SM  H13C 9973   0.743   6.071  17.834
   7623SM   C12 9974   0.655   5.940  17.622
   7623SM  H12A 9975   0.723   5.856  17.627
   7623SM  H12B 9976   0.714   6.028  17.601
   7623SM   C11 9977   0.564   5.912  17.501
   7623SM  H11A 9978   0.627   5.930  17.411
   7623SM  H11B 9979   0.481   5.985  17.490
   7623SM     P 9980   0.609   5.662  17.461
   7623SM   O13 9981   0.734   5.672  17.539
   7623SM   O14 9982   0.542   5.529  17.461
   7623SM   O11 9983   0.640   5.705  17.312
   7623SM   O12 9984   0.511   5.778  17.508
   7623SM   C1S 9985   0.539   5.771  17.233
   7623SM   H1S 9986   0.569   5.876  17.215
   7623SM   H1T 9987   0.439   5.775  17.281
   7623SM    NF 9988   0.492   5.561  17.117
   7623SM   HNF 9989   0.557   5.494  17.082
   7623SM   C2S 9990   0.521   5.702  17.096
   7623SM   H2S 9991   0.435   5.748  17.043
   7623SM   C3S 9992   0.650   5.731  17.014
   7623SM   H3S 9993   0.739   5.709  17.076
   7623SM    O3 9994   0.660   5.868  16.974
   7623SM   HO3 9995   0.603   5.916  17.035
   7623SM   C4S 9996   0.654   5.649  16.888
   7623SM   H4S 9997   0.578   5.673  16.812
   7623SM   C5S 9998   0.746   5.553  16.866
   7623SM   H5S 9999   0.821   5.534  16.944
   7623SM   C6S10000   0.760   5.467  16.743
   7623SM   H6S10001   0.722   5.365  16.762
   7623SM   H6T10002   0.869   5.456  16.726
   7623SM   C7S10003   0.699   5.520  16.612
   7623SM   H7S10004   0.691   5.631  16.613
   7623SM   H7T10005   0.597   5.478  16.601
   7623SM   C8S10006   0.789   5.484  16.492
   7623SM   H8S10007   0.806   5.374  16.485
   7623SM   H8T10008   0.887   5.528  16.521
   7623SM   C9S10009   0.750   5.548  16.357
   7623SM   H9S10010   0.807   5.642  16.345
   7623SM   H9T10011   0.644   5.577  16.367
   7623SM  C10S10012   0.770   5.462  16.229
   7623SM  H10S10013   0.707   5.370  16.235
   7623SM  H10T10014   0.876   5.429  16.225
   7623SM  C11S10015   0.732   5.535  16.097
   7623SM  H11S10016   0.759   5.642  16.111
   7623SM  H11T10017   0.623   5.525  16.080
   7623SM  C12S10018   0.800   5.498  15.965
   7623SM  H12S10019   0.878   5.420  15.981
   7623SM  H12T10020   0.849   5.591  15.929
   7623SM  C13S10021   0.709   5.462  15.846
   7623SM  H13S10022   0.633   5.542  15.833
   7623SM  H13T10023   0.652   5.368  15.864
   7623SM  C14S10024   0.792   5.451  15.716
   7623SM  H14S10025   0.857   5.361  15.720
   7623SM  H14T10026   0.858   5.540  15.709
   7623SM  C15S10027   0.706   5.448  15.589
   7623SM  H15S10028   0.649   5.543  15.586
   7623SM  H15T10029   0.633   5.365  15.593
   7623SM  C16S10030   0.789   5.436  15.461
   7623SM  H16S10031   0.833   5.334  15.455
   7623SM  H16T10032   0.873   5.509  15.465
   7623SM  C17S10033   0.708   5.465  15.334
   7623SM  H17S10034   0.749   5.554  15.283
   7623SM  H17T10035   0.604   5.490  15.364
   7623SM  C18S10036   0.701   5.349  15.234
   7623SM  H18S10037   0.648   5.380  15.141
   7623SM  H18T10038   0.644   5.264  15.279
   7623SM  H18U10039   0.802   5.314  15.207
   7623SM   C1F10040   0.377   5.520  17.170
   7623SM    OF10041   0.298   5.594  17.226
   7623SM   C2F10042   0.344   5.376  17.151
   7623SM   H2F10043   0.299   5.335  17.243
   7623SM   H2G10044   0.437   5.318  17.129
   7623SM   C3F10045   0.245   5.364  17.033
   7623SM   H3F10046   0.151   5.412  17.067
   7623SM   H3G10047   0.222   5.257  17.016
   7623SM   C4F10048   0.295   5.429  16.903
   7623SM   H4F10049   0.400   5.463  16.912
   7623SM   H4G10050   0.238   5.522  16.882
   7623SM   C5F10051   0.294   5.337  16.781
   7623SM   H5F10052   0.246   5.239  16.802
   7623SM   H5G10053   0.401   5.319  16.757
   7623SM   C6F10054   0.228   5.400  16.658
   7623SM   H6F10055   0.267   5.504  16.649
   7623SM   H6G10056   0.118   5.407  16.672
   7623SM   C7F10057   0.258   5.320  16.531
   7623SM   H7F10058   0.185   5.237  16.522
   7623SM   H7G10059   0.359   5.275  16.543
   7623SM   C8F10060   0.266   5.402  16.402
   7623SM   H8F10061   0.166   5.445  16.380
   7623SM   H8G10062   0.291   5.334  16.318
   7623SM   C9F10063   0.374   5.510  16.410
   7623SM   H9F10064   0.466   5.465  16.454
   7623SM   H9G10065   0.341   5.592  16.478
   7623SM  C10F10066   0.414   5.572  16.275
   7623SM  H10F10067   0.335   5.550  16.201
   7623SM  H10G10068   0.502   5.515  16.238
   7623SM  C11F10069   0.440   5.725  16.280
   7623SM  H11F10070   0.471   5.756  16.382
   7623SM  H11G10071   0.346   5.778  16.255
   7623SM  C12F10072   0.546   5.772  16.179
   7623SM  H12F10073   0.533   5.705  16.091
   7623SM  H12G10074   0.646   5.756  16.225
   7623SM  C13F10075   0.541   5.916  16.126
   7623SM  H13F10076   0.634   5.967  16.158
   7623SM  H13G10077   0.455   5.970  16.171
   7623SM  C14F10078   0.532   5.924  15.972
   7623SM  H14F10079   0.539   6.031  15.941
   7623SM  H14G10080   0.432   5.887  15.941
   7623SM  C15F10081   0.640   5.845  15.896
   7623SM  H15F10082   0.632   5.736  15.919
   7623SM  H15G10083   0.741   5.877  15.931
   7623SM  C16F10084   0.633   5.856  15.742
   7623SM  H16F10085   0.723   5.807  15.699
   7623SM  H16G10086   0.634   5.963  15.711
   7623SM  C17F10087   0.509   5.785  15.684
   7623SM  H17F10088   0.418   5.839  15.716
   7623SM  H17G10089   0.505   5.683  15.727
   7623SM  C18F10090   0.506   5.772  15.531
   7623SM  H18F10091   0.607   5.749  15.491
   7623SM  H18G10092   0.473   5.868  15.487
   7623SM  C19F10093   0.410   5.660  15.490
   7623SM  H19F10094   0.327   5.659  15.564
   7623SM  H19G10095   0.458   5.560  15.496
   7623SM  C20F10096   0.343   5.679  15.353
   7623SM  H20F10097   0.292   5.777  15.356
   7623SM  H20G10098   0.267   5.599  15.341
   7623SM  C21F10099   0.430   5.675  15.228
   7623SM  H21F10100   0.473   5.574  15.214
   7623SM  H21G10101   0.513   5.748  15.235
   7623SM  C22F10102   0.341   5.708  15.106
   7623SM  H22F10103   0.250   5.645  15.111
   7623SM  H22G10104   0.392   5.675  15.012
   7623SM  C23F10105   0.304   5.856  15.095
   7623SM  H23F10106   0.246   5.873  15.002
   7623SM  H23G10107   0.393   5.921  15.094
   7623SM  H23H10108   0.241   5.889  15.181
   7723SM     N10109   0.291   1.940  17.786
   7723SM   C1510110   0.328   1.809  17.726
   7723SM  H15A10111   0.240   1.752  17.698
   7723SM  H15B10112   0.389   1.750  17.793
   7723SM  H15C10113   0.385   1.828  17.636
   7723SM   C1410114   0.212   1.922  17.911
   7723SM  H14A10115   0.271   1.872  17.986
   7723SM  H14B10116   0.125   1.861  17.893
   7723SM  H14C10117   0.180   2.017  17.951
   7723SM   C1310118   0.418   2.013  17.817
   7723SM  H13A10119   0.481   1.957  17.884
   7723SM  H13B10120   0.399   2.111  17.858
   7723SM  H13C10121   0.472   2.028  17.724
   7723SM   C1210122   0.213   2.019  17.683
   7723SM  H12A10123   0.211   2.123  17.712
   7723SM  H12B10124   0.110   1.986  17.681
   7723SM   C1110125   0.265   2.014  17.537
   7723SM  H11A10126   0.205   2.088  17.480
   7723SM  H11B10127   0.243   1.914  17.494
   7723SM     P10128   0.464   2.084  17.391
   7723SM   O1310129   0.416   2.221  17.366
   7723SM   O1410130   0.610   2.062  17.392
   7723SM   O1110131   0.397   1.979  17.294
   7723SM   O1210132   0.405   2.040  17.531
   7723SM   C1S10133   0.289   2.011  17.206
   7723SM   H1S10134   0.230   2.097  17.244
   7723SM   H1T10135   0.219   1.924  17.200
   7723SM    NF10136   0.226   2.080  16.975
   7723SM   HNF10137   0.214   2.026  16.893
   7723SM   C2S10138   0.337   2.040  17.061
   7723SM   H2S10139   0.409   2.125  17.065
   7723SM   C3S10140   0.412   1.915  17.004
   7723SM   H3S10141   0.342   1.829  17.009
   7723SM    O310142   0.527   1.876  17.079
   7723SM   HO310143   0.512   1.919  17.164
   7723SM   C4S10144   0.452   1.939  16.860
   7723SM   H4S10145   0.521   2.023  16.845
   7723SM   C5S10146   0.412   1.864  16.755
   7723SM   H5S10147   0.348   1.776  16.774
   7723SM   C6S10148   0.447   1.882  16.609
   7723SM   H6S10149   0.353   1.879  16.550
   7723SM   H6T10150   0.507   1.795  16.576
   7723SM   C7S10151   0.521   2.011  16.567
   7723SM   H7S10152   0.618   2.021  16.620
   7723SM   H7T10153   0.457   2.098  16.595
   7723SM   C8S10154   0.546   2.019  16.415
   7723SM   H8S10155   0.568   2.124  16.386
   7723SM   H8T10156   0.453   1.989  16.363
   7723SM   C9S10157   0.664   1.931  16.367
   7723SM   H9S10158   0.678   1.852  16.443
   7723SM   H9T10159   0.758   1.990  16.363
   7723SM  C10S10160   0.637   1.859  16.234
   7723SM  H10S10161   0.528   1.849  16.220
   7723SM  H10T10162   0.682   1.758  16.240
   7723SM  C11S10163   0.688   1.924  16.105
   7723SM  H11S10164   0.799   1.936  16.108
   7723SM  H11T10165   0.643   2.026  16.096
   7723SM  C12S10166   0.648   1.839  15.983
   7723SM  H12S10167   0.541   1.811  15.990
   7723SM  H12T10168   0.708   1.746  15.979
   7723SM  C13S10169   0.666   1.919  15.855
   7723SM  H13S10170   0.772   1.951  15.851
   7723SM  H13T10171   0.602   2.009  15.866
   7723SM  C14S10172   0.627   1.851  15.723
   7723SM  H14S10173   0.521   1.876  15.703
   7723SM  H14T10174   0.633   1.740  15.736
   7723SM  C15S10175   0.712   1.892  15.600
   7723SM  H15S10176   0.805   1.830  15.599
   7723SM  H15T10177   0.742   1.998  15.608
   7723SM  C16S10178   0.641   1.872  15.465
   7723SM  H16S10179   0.534   1.897  15.480
   7723SM  H16T10180   0.649   1.765  15.435
   7723SM  C17S10181   0.689   1.957  15.348
   7723SM  H17S10182   0.800   1.963  15.347
   7723SM  H17T10183   0.649   2.060  15.362
   7723SM  C18S10184   0.640   1.903  15.213
   7723SM  H18S10185   0.724   1.863  15.153
   7723SM  H18T10186   0.589   1.983  15.154
   7723SM  H18U10187   0.567   1.821  15.227
   7723SM   C1F10188   0.153   2.191  16.990
   7723SM    OF10189   0.138   2.249  17.097
   7723SM   C2F10190   0.088   2.242  16.866
   7723SM   H2F10191  -0.020   2.254  16.886
   7723SM   H2G10192   0.101   2.166  16.786
   7723SM   C3F10193   0.150   2.377  16.825
   7723SM   H3F10194   0.260   2.363  16.814
   7723SM   H3G10195   0.134   2.451  16.906
   7723SM   C4F10196   0.097   2.432  16.691
   7723SM   H4F10197   0.157   2.521  16.661
   7723SM   H4G10198  -0.010   2.463  16.701
   7723SM   C5F10199   0.106   2.326  16.582
   7723SM   H5F10200   0.029   2.249  16.601
   7723SM   H5G10201   0.206   2.278  16.590
   7723SM   C6F10202   0.088   2.376  16.439
   7723SM   H6F10203   0.169   2.448  16.415
   7723SM   H6G10204  -0.007   2.434  16.429
   7723SM   C7F10205   0.086   2.262  16.336
   7723SM   H7F10206   0.134   2.296  16.241
   7723SM   H7G10207  -0.019   2.238  16.312
   7723SM   C8F10208   0.154   2.132  16.383
   7723SM   H8F10209   0.102   2.096  16.475
   7723SM   H8G10210   0.261   2.148  16.409
   7723SM   C9F10211   0.140   2.020  16.281
   7723SM   H9F10212   0.226   2.023  16.211
   7723SM   H9G10213   0.048   2.039  16.221
   7723SM  C10F10214   0.124   1.882  16.346
   7723SM  H10F10215   0.063   1.889  16.438
   7723SM  H10G10216   0.224   1.842  16.374
   7723SM  C11F10217   0.053   1.786  16.251
   7723SM  H11F10218  -0.044   1.831  16.222
   7723SM  H11G10219   0.031   1.689  16.302
   7723SM  C12F10220   0.137   1.759  16.126
   7723SM  H12F10221   0.205   1.674  16.150
   7723SM  H12G10222   0.200   1.846  16.100
   7723SM  C13F10223   0.055   1.722  16.003
   7723SM  H13F10224  -0.054   1.738  16.021
   7723SM  H13G10225   0.070   1.613  15.988
   7723SM  C14F10226   0.097   1.796  15.875
   7723SM  H14F10227   0.207   1.809  15.873
   7723SM  H14G10228   0.050   1.897  15.871
   7723SM  C15F10229   0.054   1.708  15.758
   7723SM  H15F10230  -0.054   1.684  15.770
   7723SM  H15G10231   0.105   1.610  15.773
   7723SM  C16F10232   0.077   1.749  15.612
   7723SM  H16F10233  -0.020   1.773  15.565
   7723SM  H16G10234   0.115   1.657  15.563
   7723SM  C17F10235   0.178   1.859  15.573
   7723SM  H17F10236   0.272   1.852  15.632
   7723SM  H17G10237   0.133   1.958  15.594
   7723SM  C18F10238   0.208   1.841  15.423
   7723SM  H18F10239   0.111   1.846  15.368
   7723SM  H18G10240   0.247   1.738  15.406
   7723SM  C19F10241   0.307   1.939  15.361
   7723SM  H19F10242   0.392   1.880  15.321
   7723SM  H19G10243   0.346   2.005  15.441
   7723SM  C20F10244   0.254   2.027  15.246
   7723SM  H20F10245   0.333   2.096  15.211
   7723SM  H20G10246   0.172   2.090  15.288
   7723SM  C21F10247   0.199   1.948  15.126
   7723SM  H21F10248   0.102   1.996  15.099
   7723SM  H21G10249   0.178   1.843  15.153
   7723SM  C22F10250   0.282   1.954  14.998
   7723SM  H22F10251   0.372   1.889  15.008
   7723SM  H22G10252   0.317   2.058  14.982
   7723SM  C23F10253   0.199   1.910  14.876
   7723SM  H23F10254   0.162   1.807  14.889
   7723SM  H23G10255   0.259   1.915  14.783
   7723SM  H23H10256   0.111   1.976  14.864
   7823SM     N10257   1.231   7.084  17.767
   7823SM   C1510258   1.338   6.982  17.742
   7823SM  H15A10259   1.346   6.965  17.635
   7823SM  H15B10260   1.314   6.887  17.787
   7823SM  H15C10261   1.434   7.016  17.778
   7823SM   C1410262   1.102   7.028  17.714
   7823SM  H14A10263   1.110   7.021  17.607
   7823SM  H14B10264   1.018   7.093  17.736
   7823SM  H14C10265   1.083   6.929  17.753
   7823SM   C1310266   1.219   7.108  17.914
   7823SM  H13A10267   1.191   7.017  17.965
   7823SM  H13B10268   1.146   7.184  17.937
   7823SM  H13C10269   1.314   7.138  17.956
   7823SM   C1210270   1.265   7.213  17.693
   7823SM  H12A10271   1.350   7.260  17.740
   7823SM  H12B10272   1.182   7.281  17.701
   7823SM   C1110273   1.301   7.202  17.543
   7823SM  H11A10274   1.398   7.147  17.534
   7823SM  H11B10275   1.320   7.305  17.506
   7823SM     P10276   1.230   7.033  17.356
   7823SM   O1310277   1.277   6.913  17.429
   7823SM   O1410278   1.114   7.017  17.265
   7823SM   O1110279   1.351   7.097  17.275
   7823SM   O1210280   1.196   7.144  17.465
   7823SM   C1S10281   1.347   7.235  17.233
   7823SM   H1S10282   1.440   7.284  17.269
   7823SM   H1T10283   1.262   7.292  17.276
   7823SM    NF10284   1.209   7.228  17.027
   7823SM   HNF10285   1.190   7.137  16.992
   7823SM   C2S10286   1.343   7.252  17.077
   7823SM   H2S10287   1.369   7.358  17.055
   7823SM   C3S10288   1.448   7.159  17.010
   7823SM   H3S10289   1.424   7.052  17.029
   7823SM    O310290   1.583   7.180  17.051
   7823SM   HO310291   1.590   7.275  17.063
   7823SM   C4S10292   1.443   7.186  16.862
   7823SM   H4S10293   1.472   7.289  16.835
   7823SM   C5S10294   1.405   7.100  16.764
   7823SM   H5S10295   1.372   6.999  16.792
   7823SM   C6S10296   1.400   7.133  16.617
   7823SM   H6S10297   1.312   7.083  16.571
   7823SM   H6T10298   1.490   7.092  16.566
   7823SM   C7S10299   1.389   7.283  16.583
   7823SM   H7S10300   1.479   7.337  16.620
   7823SM   H7T10301   1.302   7.327  16.635
   7823SM   C8S10302   1.375   7.313  16.432
   7823SM   H8S10303   1.274   7.283  16.398
   7823SM   H8T10304   1.449   7.255  16.373
   7823SM   C9S10305   1.397   7.462  16.407
   7823SM   H9S10306   1.505   7.484  16.422
   7823SM   H9T10307   1.344   7.518  16.487
   7823SM  C10S10308   1.351   7.519  16.273
   7823SM  H10S10309   1.397   7.620  16.266
   7823SM  H10T10310   1.241   7.535  16.272
   7823SM  C11S10311   1.387   7.449  16.142
   7823SM  H11S10312   1.339   7.349  16.134
   7823SM  H11T10313   1.497   7.435  16.136
   7823SM  C12S10314   1.342   7.540  16.026
   7823SM  H12S10315   1.377   7.643  16.048
   7823SM  H12T10316   1.231   7.542  16.020
   7823SM  C13S10317   1.401   7.502  15.890
   7823SM  H13S10318   1.356   7.407  15.854
   7823SM  H13T10319   1.510   7.486  15.904
   7823SM  C14S10320   1.379   7.614  15.787
   7823SM  H14S10321   1.424   7.707  15.827
   7823SM  H14T10322   1.270   7.632  15.775
   7823SM  C15S10323   1.444   7.583  15.652
   7823SM  H15S10324   1.503   7.489  15.661
   7823SM  H15T10325   1.516   7.664  15.628
   7823SM  C16S10326   1.346   7.569  15.535
   7823SM  H16S10327   1.382   7.634  15.453
   7823SM  H16T10328   1.245   7.607  15.562
   7823SM  C17S10329   1.336   7.425  15.483
   7823SM  H17S10330   1.267   7.368  15.548
   7823SM  H17T10331   1.437   7.377  15.490
   7823SM  C18S10332   1.290   7.415  15.338
   7823SM  H18S10333   1.267   7.311  15.309
   7823SM  H18T10334   1.371   7.452  15.271
   7823SM  H18U10335   1.200   7.478  15.321
   7823SM   C1F10336   1.105   7.308  17.049
   7823SM    OF10337   1.113   7.409  17.118
   7823SM   C2F10338   0.975   7.260  16.991
   7823SM   H2F10339   0.911   7.227  17.075
   7823SM   H2G10340   0.994   7.171  16.927
   7823SM   C3F10341   0.902   7.366  16.905
   7823SM   H3F10342   0.885   7.459  16.963
   7823SM   H3G10343   0.803   7.325  16.874
   7823SM   C4F10344   0.977   7.403  16.776
   7823SM   H4F10345   1.001   7.310  16.719
   7823SM   H4G10346   1.072   7.453  16.802
   7823SM   C5F10347   0.894   7.496  16.685
   7823SM   H5F10348   0.846   7.574  16.748
   7823SM   H5G10349   0.814   7.438  16.635
   7823SM   C6F10350   0.980   7.568  16.580
   7823SM   H6F10351   1.063   7.619  16.633
   7823SM   H6G10352   0.920   7.645  16.529
   7823SM   C7F10353   1.042   7.474  16.475
   7823SM   H7F10354   1.081   7.382  16.521
   7823SM   H7G10355   1.128   7.530  16.432
   7823SM   C8F10356   0.946   7.441  16.360
   7823SM   H8F10357   0.913   7.536  16.314
   7823SM   H8G10358   0.856   7.390  16.401
   7823SM   C9F10359   1.007   7.353  16.249
   7823SM   H9F10360   1.106   7.393  16.219
   7823SM   H9G10361   0.943   7.358  16.158
   7823SM  C10F10362   1.020   7.206  16.289
   7823SM  H10F10363   0.919   7.163  16.307
   7823SM  H10G10364   1.077   7.198  16.384
   7823SM  C11F10365   1.091   7.124  16.180
   7823SM  H11F10366   1.190   7.172  16.159
   7823SM  H11G10367   1.032   7.129  16.086
   7823SM  C12F10368   1.114   6.979  16.224
   7823SM  H12F10369   1.017   6.926  16.236
   7823SM  H12G10370   1.164   6.983  16.323
   7823SM  C13F10371   1.207   6.902  16.129
   7823SM  H13F10372   1.265   6.828  16.188
   7823SM  H13G10373   1.279   6.974  16.086
   7823SM  C14F10374   1.139   6.825  16.014
   7823SM  H14F10375   1.077   6.744  16.059
   7823SM  H14G10376   1.219   6.777  15.954
   7823SM  C15F10377   1.052   6.906  15.918
   7823SM  H15F10378   1.114   6.980  15.864
   7823SM  H15G10379   0.972   6.960  15.972
   7823SM  C16F10380   0.986   6.812  15.816
   7823SM  H16F10381   0.904   6.757  15.868
   7823SM  H16G10382   1.059   6.735  15.784
   7823SM  C17F10383   0.926   6.885  15.695
   7823SM  H17F10384   0.886   6.983  15.726
   7823SM  H17G10385   0.841   6.824  15.657
   7823SM  C18F10386   1.024   6.902  15.577
   7823SM  H18F10387   1.105   6.973  15.603
   7823SM  H18G10388   0.968   6.946  15.492
   7823SM  C19F10389   1.084   6.768  15.533
   7823SM  H19F10390   1.007   6.690  15.548
   7823SM  H19G10391   1.171   6.743  15.596
   7823SM  C20F10392   1.125   6.763  15.386
   7823SM  H20F10393   1.208   6.834  15.366
   7823SM  H20G10394   1.038   6.793  15.323
   7823SM  C21F10395   1.167   6.621  15.348
   7823SM  H21F10396   1.094   6.547  15.389
   7823SM  H21G10397   1.266   6.599  15.392
   7823SM  C22F10398   1.173   6.604  15.197
   7823SM  H22F10399   1.233   6.690  15.159
   7823SM  H22G10400   1.071   6.614  15.153
   7823SM  C23F10401   1.237   6.473  15.151
   7823SM  H23F10402   1.172   6.387  15.176
   7823SM  H23G10403   1.336   6.459  15.199
   7823SM  H23H10404   1.252   6.475  15.041
   7923SM     N10405   6.852   0.501  17.782
   7923SM   C1510406   6.801   0.635  17.827
   7923SM  H15A10407   6.720   0.623  17.898
   7923SM  H15B10408   6.764   0.690  17.742
   7923SM  H15C10409   6.876   0.697  17.874
   7923SM   C1410410   6.953   0.515  17.672
   7923SM  H14A10411   6.987   0.418  17.639
   7923SM  H14B10412   7.041   0.573  17.699
   7923SM  H14C10413   6.907   0.560  17.586
   7923SM   C1310414   6.911   0.423  17.896
   7923SM  H13A10415   6.942   0.326  17.861
   7923SM  H13B10416   6.840   0.407  17.975
   7923SM  H13C10417   6.999   0.470  17.937
   7923SM   C1210418   6.734   0.421  17.725
   7923SM  H12A10419   6.664   0.399  17.804
   7923SM  H12B10420   6.771   0.325  17.691
   7923SM   C1110421   6.658   0.481  17.604
   7923SM  H11A10422   6.631   0.587  17.625
   7923SM  H11B10423   6.563   0.427  17.590
   7923SM     P10424   6.746   0.339  17.406
   7923SM   O1310425   6.744   0.230  17.507
   7923SM   O1410426   6.640   0.342  17.303
   7923SM   O1110427   6.889   0.344  17.337
   7923SM   O1210428   6.739   0.477  17.486
   7923SM   C1S10429   6.944   0.462  17.278
   7923SM   H1S10430   7.055   0.455  17.283
   7923SM   H1T10431   6.917   0.554  17.334
   7923SM    NF10432   6.770   0.530  17.123
   7923SM   HNF10433   6.700   0.463  17.146
   7923SM   C2S10434   6.907   0.481  17.127
   7923SM   H2S10435   6.974   0.558  17.083
   7923SM   C3S10436   6.929   0.351  17.045
   7923SM   H3S10437   6.870   0.268  17.091
   7923SM    O310438   7.066   0.310  17.045
   7923SM   HO310439   7.111   0.363  17.111
   7923SM   C4S10440   6.880   0.368  16.902
   7923SM   H4S10441   6.784   0.318  16.883
   7923SM   C5S10442   6.940   0.433  16.800
   7923SM   H5S10443   7.038   0.482  16.816
   7923SM   C6S10444   6.885   0.445  16.660
   7923SM   H6S10445   6.824   0.537  16.650
   7923SM   H6T10446   6.819   0.359  16.635
   7923SM   C7S10447   6.998   0.452  16.554
   7923SM   H7S10448   7.060   0.360  16.559
   7923SM   H7T10449   7.063   0.538  16.578
   7923SM   C8S10450   6.947   0.469  16.409
   7923SM   H8S10451   6.860   0.538  16.410
   7923SM   H8T10452   6.913   0.372  16.368
   7923SM   C9S10453   7.054   0.531  16.317
   7923SM   H9S10454   7.137   0.458  16.302
   7923SM   H9T10455   7.097   0.618  16.371
   7923SM  C10S10456   7.000   0.579  16.182
   7923SM  H10S10457   6.995   0.690  16.183
   7923SM  H10T10458   6.897   0.541  16.167
   7923SM  C11S10459   7.084   0.539  16.059
   7923SM  H11S10460   7.077   0.429  16.044
   7923SM  H11T10461   7.190   0.564  16.079
   7923SM  C12S10462   7.039   0.612  15.931
   7923SM  H12S10463   7.129   0.653  15.880
   7923SM  H12T10464   6.975   0.698  15.958
   7923SM  C13S10465   6.963   0.520  15.834
   7923SM  H13S10466   6.893   0.462  15.898
   7923SM  H13T10467   7.035   0.450  15.787
   7923SM  C14S10468   6.881   0.590  15.725
   7923SM  H14S10469   6.952   0.624  15.646
   7923SM  H14T10470   6.832   0.682  15.764
   7923SM  C15S10471   6.775   0.510  15.649
   7923SM  H15S10472   6.694   0.477  15.718
   7923SM  H15T10473   6.820   0.421  15.602
   7923SM  C16S10474   6.716   0.599  15.538
   7923SM  H16S10475   6.799   0.648  15.483
   7923SM  H16T10476   6.659   0.682  15.586
   7923SM  C17S10477   6.630   0.523  15.436
   7923SM  H17S10478   6.553   0.464  15.490
   7923SM  H17T10479   6.696   0.451  15.383
   7923SM  C18S10480   6.563   0.615  15.334
   7923SM  H18S10481   6.639   0.682  15.287
   7923SM  H18T10482   6.486   0.682  15.378
   7923SM  H18U10483   6.513   0.555  15.255
   7923SM   C1F10484   6.748   0.659  17.146
   7923SM    OF10485   6.841   0.737  17.149
   7923SM   C2F10486   6.607   0.702  17.172
   7923SM   H2F10487   6.600   0.741  17.275
   7923SM   H2G10488   6.539   0.615  17.162
   7923SM   C3F10489   6.569   0.812  17.071
   7923SM   H3F10490   6.632   0.902  17.089
   7923SM   H3G10491   6.464   0.842  17.091
   7923SM   C4F10492   6.585   0.772  16.923
   7923SM   H4F10493   6.693   0.775  16.897
   7923SM   H4G10494   6.533   0.848  16.861
   7923SM   C5F10495   6.529   0.636  16.881
   7923SM   H5F10496   6.429   0.622  16.927
   7923SM   H5G10497   6.594   0.554  16.915
   7923SM   C6F10498   6.517   0.630  16.728
   7923SM   H6F10499   6.619   0.636  16.683
   7923SM   H6G10500   6.459   0.718  16.692
   7923SM   C7F10501   6.450   0.503  16.675
   7923SM   H7F10502   6.345   0.501  16.709
   7923SM   H7G10503   6.501   0.414  16.717
   7923SM   C8F10504   6.452   0.496  16.521
   7923SM   H8F10505   6.451   0.598  16.476
   7923SM   H8G10506   6.358   0.447  16.487
   7923SM   C9F10507   6.571   0.416  16.466
   7923SM   H9F10508   6.606   0.346  16.545
   7923SM   H9G10509   6.656   0.485  16.444
   7923SM  C10F10510   6.537   0.332  16.342
   7923SM  H10F10511   6.439   0.282  16.356
   7923SM  H10G10512   6.615   0.254  16.330
   7923SM  C11F10513   6.536   0.416  16.214
   7923SM  H11F10514   6.638   0.456  16.198
   7923SM  H11G10515   6.467   0.502  16.228
   7923SM  C12F10516   6.493   0.340  16.088
   7923SM  H12F10517   6.475   0.414  16.006
   7923SM  H12G10518   6.395   0.290  16.108
   7923SM  C13F10519   6.592   0.235  16.035
   7923SM  H13F10520   6.556   0.200  15.936
   7923SM  H13G10521   6.596   0.147  16.104
   7923SM  C14F10522   6.736   0.283  16.011
   7923SM  H14F10523   6.782   0.309  16.109
   7923SM  H14G10524   6.728   0.376  15.950
   7923SM  C15F10525   6.823   0.177  15.940
   7923SM  H15F10526   6.779   0.077  15.957
   7923SM  H15G10527   6.924   0.177  15.988
   7923SM  C16F10528   6.843   0.199  15.789
   7923SM  H16F10529   6.896   0.295  15.772
   7923SM  H16G10530   6.745   0.205  15.738
   7923SM  C17F10531   6.932   0.092  15.723
   7923SM  H17F10532   6.880  -0.005  15.733
   7923SM  H17G10533   7.029   0.085  15.776
   7923SM  C18F10534   6.959   0.114  15.572
   7923SM  H18F10535   6.862   0.126  15.520
   7923SM  H18G10536   7.006   0.021  15.534
   7923SM  C19F10537   7.052   0.232  15.535
   7923SM  H19F10538   7.135   0.238  15.609
   7923SM  H19G10539   6.995   0.327  15.541
   7923SM  C20F10540   7.113   0.218  15.394
   7923SM  H20F10541   7.186   0.134  15.397
   7923SM  H20G10542   7.170   0.310  15.369
   7923SM  C21F10543   7.011   0.190  15.283
   7923SM  H21F10544   6.948   0.279  15.264
   7923SM  H21G10545   6.944   0.109  15.318
   7923SM  C22F10546   7.074   0.139  15.152
   7923SM  H22F10547   6.999   0.076  15.099
   7923SM  H22G10548   7.161   0.074  15.175
   7923SM  C23F10549   7.116   0.250  15.056
   7923SM  H23F10550   7.159   0.206  14.963
   7923SM  H23G10551   7.192   0.317  15.102
   7923SM  H23H10552   7.028   0.311  15.027
   8023SM     N10553   0.599   0.496  17.712
   8023SM   C1510554   0.709   0.524  17.810
   8023SM  H15A10555   0.758   0.433  17.839
   8023SM  H15B10556   0.670   0.568  17.901
   8023SM  H15C10557   0.784   0.590  17.770
   8023SM   C1410558   0.653   0.417  17.595
   8023SM  H14A10559   0.738   0.465  17.549
   8023SM  H14B10560   0.576   0.407  17.519
   8023SM  H14C10561   0.682   0.318  17.624
   8023SM   C1310562   0.498   0.408  17.778
   8023SM  H13A10563   0.542   0.312  17.800
   8023SM  H13B10564   0.416   0.389  17.711
   8023SM  H13C10565   0.461   0.451  17.870
   8023SM   C1210566   0.537   0.623  17.659
   8023SM  H12A10567   0.603   0.664  17.584
   8023SM  H12B10568   0.529   0.696  17.739
   8023SM   C1110569   0.397   0.610  17.593
   8023SM  H11A10570   0.371   0.707  17.547
   8023SM  H11B10571   0.324   0.594  17.675
   8023SM     P10572   0.271   0.408  17.479
   8023SM   O1310573   0.322   0.270  17.476
   8023SM   O1410574   0.173   0.439  17.586
   8023SM   O1110575   0.211   0.443  17.336
   8023SM   O1210576   0.393   0.508  17.494
   8023SM   C1S10577   0.297   0.488  17.229
   8023SM   H1S10578   0.390   0.537  17.266
   8023SM   H1T10579   0.243   0.566  17.171
   8023SM    NF10580   0.465   0.404  17.065
   8023SM   HNF10581   0.462   0.420  16.967
   8023SM   C2S10582   0.338   0.374  17.129
   8023SM   H2S10583   0.351   0.280  17.186
   8023SM   C3S10584   0.221   0.356  17.027
   8023SM   H3S10585   0.197   0.456  16.982
   8023SM    O310586   0.101   0.312  17.091
   8023SM   HO310587   0.108   0.353  17.177
   8023SM   C4S10588   0.260   0.261  16.915
   8023SM   H4S10589   0.280   0.157  16.947
   8023SM   C5S10590   0.268   0.294  16.784
   8023SM   H5S10591   0.245   0.397  16.753
   8023SM   C6S10592   0.307   0.201  16.670
   8023SM   H6S10593   0.217   0.146  16.634
   8023SM   H6T10594   0.380   0.125  16.704
   8023SM   C7S10595   0.366   0.274  16.547
   8023SM   H7S10596   0.453   0.335  16.579
   8023SM   H7T10597   0.288   0.341  16.505
   8023SM   C8S10598   0.413   0.181  16.433
   8023SM   H8S10599   0.330   0.111  16.409
   8023SM   H8T10600   0.500   0.123  16.471
   8023SM   C9S10601   0.455   0.251  16.302
   8023SM   H9S10602   0.533   0.327  16.326
   8023SM   H9T10603   0.367   0.305  16.261
   8023SM  C10S10604   0.511   0.156  16.194
   8023SM  H10S10605   0.438   0.073  16.178
   8023SM  H10T10606   0.606   0.111  16.232
   8023SM  C11S10607   0.538   0.225  16.059
   8023SM  H11S10608   0.598   0.316  16.079
   8023SM  H11T10609   0.441   0.254  16.014
   8023SM  C12S10610   0.616   0.144  15.953
   8023SM  H12S10611   0.658   0.054  16.003
   8023SM  H12T10612   0.702   0.204  15.916
   8023SM  C13S10613   0.533   0.098  15.831
   8023SM  H13S10614   0.429   0.075  15.863
   8023SM  H13T10615   0.580   0.003  15.798
   8023SM  C14S10616   0.530   0.188  15.706
   8023SM  H14S10617   0.622   0.249  15.698
   8023SM  H14T10618   0.443   0.257  15.713
   8023SM  C15S10619   0.517   0.101  15.579
   8023SM  H15S10620   0.435   0.028  15.595
   8023SM  H15T10621   0.612   0.044  15.564
   8023SM  C16S10622   0.478   0.171  15.449
   8023SM  H16S10623   0.539   0.262  15.433
   8023SM  H16T10624   0.371   0.198  15.459
   8023SM  C17S10625   0.489   0.078  15.327
   8023SM  H17S10626   0.438  -0.018  15.350
   8023SM  H17T10627   0.596   0.056  15.309
   8023SM  C18S10628   0.427   0.135  15.199
   8023SM  H18S10629   0.468   0.083  15.110
   8023SM  H18T10630   0.448   0.244  15.190
   8023SM  H18U10631   0.317   0.121  15.198
   8023SM   C1F10632   0.584   0.412  17.127
   8023SM    OF10633   0.598   0.388  17.246
   8023SM   C2F10634   0.701   0.447  17.041
   8023SM   H2F10635   0.677   0.425  16.934
   8023SM   H2G10636   0.786   0.381  17.070
   8023SM   C3F10637   0.745   0.594  17.057
   8023SM   H3F10638   0.830   0.612  16.988
   8023SM   H3G10639   0.784   0.610  17.160
   8023SM   C4F10640   0.635   0.698  17.028
   8023SM   H4F10641   0.681   0.799  17.034
   8023SM   H4G10642   0.558   0.692  17.108
   8023SM   C5F10643   0.565   0.682  16.892
   8023SM   H5F10644   0.479   0.753  16.886
   8023SM   H5G10645   0.519   0.581  16.884
   8023SM   C6F10646   0.656   0.704  16.770
   8023SM   H6F10647   0.726   0.619  16.759
   8023SM   H6G10648   0.717   0.795  16.787
   8023SM   C7F10649   0.576   0.723  16.639
   8023SM   H7F10650   0.645   0.754  16.558
   8023SM   H7G10651   0.503   0.805  16.655
   8023SM   C8F10652   0.500   0.597  16.595
   8023SM   H8F10653   0.454   0.550  16.685
   8023SM   H8G10654   0.571   0.523  16.552
   8023SM   C9F10655   0.384   0.623  16.497
   8023SM   H9F10656   0.336   0.721  16.521
   8023SM   H9G10657   0.306   0.545  16.513
   8023SM  C10F10658   0.420   0.624  16.349
   8023SM  H10F10659   0.492   0.543  16.326
   8023SM  H10G10660   0.470   0.722  16.328
   8023SM  C11F10661   0.297   0.611  16.257
   8023SM  H11F10662   0.224   0.690  16.287
   8023SM  H11G10663   0.247   0.513  16.273
   8023SM  C12F10664   0.330   0.631  16.108
   8023SM  H12F10665   0.407   0.711  16.107
   8023SM  H12G10666   0.240   0.665  16.054
   8023SM  C13F10667   0.388   0.506  16.040
   8023SM  H13F10668   0.309   0.428  16.036
   8023SM  H13G10669   0.467   0.471  16.109
   8023SM  C14F10670   0.454   0.519  15.900
   8023SM  H14F10671   0.513   0.427  15.881
   8023SM  H14G10672   0.527   0.603  15.900
   8023SM  C15F10673   0.360   0.537  15.781
   8023SM  H15F10674   0.307   0.634  15.795
   8023SM  H15G10675   0.286   0.454  15.780
   8023SM  C16F10676   0.427   0.546  15.642
   8023SM  H16F10677   0.489   0.456  15.622
   8023SM  H16G10678   0.495   0.634  15.643
   8023SM  C17F10679   0.325   0.565  15.528
   8023SM  H17F10680   0.376   0.606  15.439
   8023SM  H17G10681   0.252   0.642  15.563
   8023SM  C18F10682   0.251   0.436  15.488
   8023SM  H18F10683   0.236   0.374  15.580
   8023SM  H18G10684   0.319   0.382  15.419
   8023SM  C19F10685   0.116   0.445  15.414
   8023SM  H19F10686   0.134   0.464  15.306
   8023SM  H19G10687   0.053   0.530  15.448
   8023SM  C20F10688   0.032   0.316  15.424
   8023SM  H20F10689  -0.077   0.341  15.420
   8023SM  H20G10690   0.052   0.266  15.521
   8023SM  C21F10691   0.064   0.222  15.308
   8023SM  H21F10692   0.038   0.117  15.332
   8023SM  H21G10693   0.175   0.227  15.293
   8023SM  C22F10694  -0.005   0.263  15.177
   8023SM  H22F10695  -0.023   0.372  15.179
   8023SM  H22G10696  -0.105   0.215  15.172
   8023SM  C23F10697   0.076   0.229  15.052
   8023SM  H23F10698   0.174   0.281  15.054
   8023SM  H23G10699   0.021   0.264  14.961
   8023SM  H23H10700   0.093   0.120  15.043
   8123SM     N10701   3.408   3.745  12.190
   8123SM   C1510702   3.316   3.626  12.196
   8123SM  H15A10703   3.365   3.538  12.159
   8123SM  H15B10704   3.224   3.642  12.141
   8123SM  H15C10705   3.291   3.606  12.299
   8123SM   C1410706   3.441   3.775  12.047
   8123SM  H14A10707   3.512   3.856  12.040
   8123SM  H14B10708   3.352   3.803  11.993
   8123SM  H14C10709   3.483   3.688  12.000
   8123SM   C1310710   3.338   3.862  12.252
   8123SM  H13A10711   3.242   3.883  12.207
   8123SM  H13B10712   3.400   3.951  12.249
   8123SM  H13C10713   3.322   3.841  12.357
   8123SM   C1210714   3.535   3.712  12.267
   8123SM  H12A10715   3.596   3.801  12.274
   8123SM  H12B10716   3.592   3.639  12.212
   8123SM   C1110717   3.519   3.660  12.413
   8123SM  H11A10718   3.620   3.639  12.455
   8123SM  H11B10719   3.466   3.562  12.411
   8123SM     P10720   3.517   3.875  12.559
   8123SM   O1310721   3.641   3.907  12.486
   8123SM   O1410722   3.417   3.985  12.569
   8123SM   O1110723   3.552   3.819  12.703
   8123SM   O1210724   3.445   3.751  12.493
   8123SM   C1S10725   3.456   3.737  12.772
   8123SM   H1S10726   3.442   3.640  12.718
   8123SM   H1T10727   3.358   3.788  12.778
   8123SM    NF10728   3.386   3.652  12.995
   8123SM   HNF10729   3.373   3.694  13.084
   8123SM   C2S10730   3.500   3.702  12.918
   8123SM   H2S10731   3.577   3.622  12.914
   8123SM   C3S10732   3.566   3.828  12.985
   8123SM   H3S10733   3.493   3.912  12.980
   8123SM    O310734   3.686   3.873  12.923
   8123SM   HO310735   3.675   3.845  12.832
   8123SM   C4S10736   3.593   3.802  13.132
   8123SM   H4S10737   3.525   3.858  13.197
   8123SM   C5S10738   3.690   3.726  13.188
   8123SM   H5S10739   3.760   3.672  13.123
   8123SM   C6S10740   3.710   3.708  13.337
   8123SM   H6S10741   3.819   3.704  13.358
   8123SM   H6T10742   3.669   3.610  13.370
   8123SM   C7S10743   3.652   3.821  13.425
   8123SM   H7S10744   3.542   3.827  13.411
   8123SM   H7T10745   3.695   3.917  13.391
   8123SM   C8S10746   3.679   3.807  13.576
   8123SM   H8S10747   3.786   3.785  13.593
   8123SM   H8T10748   3.620   3.722  13.616
   8123SM   C9S10749   3.641   3.936  13.652
   8123SM   H9S10750   3.539   3.967  13.621
   8123SM   H9T10751   3.711   4.015  13.619
   8123SM  C10S10752   3.646   3.926  13.805
   8123SM  H10S10753   3.653   4.029  13.846
   8123SM  H10T10754   3.737   3.870  13.837
   8123SM  C11S10755   3.520   3.861  13.865
   8123SM  H11S10756   3.524   3.752  13.846
   8123SM  H11T10757   3.431   3.901  13.812
   8123SM  C12S10758   3.500   3.885  14.016
   8123SM  H12S10759   3.403   3.839  14.046
   8123SM  H12T10760   3.492   3.994  14.035
   8123SM  C13S10761   3.611   3.826  14.103
   8123SM  H13S10762   3.705   3.885  14.088
   8123SM  H13T10763   3.631   3.722  14.070
   8123SM  C14S10764   3.575   3.824  14.252
   8123SM  H14S10765   3.487   3.758  14.266
   8123SM  H14T10766   3.546   3.926  14.286
   8123SM  C15S10767   3.690   3.771  14.338
   8123SM  H15S10768   3.770   3.848  14.347
   8123SM  H15T10769   3.734   3.683  14.286
   8123SM  C16S10770   3.646   3.724  14.477
   8123SM  H16S10771   3.729   3.666  14.522
   8123SM  H16T10772   3.559   3.656  14.465
   8123SM  C17S10773   3.609   3.835  14.575
   8123SM  H17S10774   3.521   3.891  14.536
   8123SM  H17T10775   3.693   3.907  14.583
   8123SM  C18S10776   3.576   3.781  14.715
   8123SM  H18S10777   3.663   3.725  14.756
   8123SM  H18T10778   3.490   3.711  14.710
   8123SM  H18U10779   3.550   3.863  14.784
   8123SM   C1F10780   3.310   3.545  12.967
   8123SM    OF10781   3.315   3.484  12.860
   8123SM   C2F10782   3.209   3.508  13.072
   8123SM   H2F10783   3.123   3.462  13.019
   8123SM   H2G10784   3.172   3.600  13.122
   8123SM   C3F10785   3.263   3.408  13.177
   8123SM   H3F10786   3.317   3.325  13.127
   8123SM   H3G10787   3.176   3.364  13.230
   8123SM   C4F10788   3.358   3.466  13.283
   8123SM   H4F10789   3.447   3.511  13.235
   8123SM   H4G10790   3.394   3.381  13.344
   8123SM   C5F10791   3.290   3.566  13.377
   8123SM   H5F10792   3.189   3.528  13.404
   8123SM   H5G10793   3.277   3.663  13.326
   8123SM   C6F10794   3.370   3.585  13.506
   8123SM   H6F10795   3.476   3.603  13.477
   8123SM   H6G10796   3.369   3.491  13.565
   8123SM   C7F10797   3.322   3.703  13.592
   8123SM   H7F10798   3.314   3.793  13.527
   8123SM   H7G10799   3.401   3.725  13.667
   8123SM   C8F10800   3.190   3.680  13.665
   8123SM   H8F10801   3.110   3.661  13.591
   8123SM   H8G10802   3.163   3.773  13.720
   8123SM   C9F10803   3.193   3.565  13.768
   8123SM   H9F10804   3.210   3.468  13.716
   8123SM   H9G10805   3.093   3.560  13.816
   8123SM  C10F10806   3.297   3.583  13.878
   8123SM  H10F10807   3.284   3.685  13.919
   8123SM  H10G10808   3.399   3.576  13.835
   8123SM  C11F10809   3.284   3.481  13.992
   8123SM  H11F10810   3.364   3.404  13.981
   8123SM  H11G10811   3.187   3.428  13.987
   8123SM  C12F10812   3.296   3.549  14.129
   8123SM  H12F10813   3.372   3.630  14.124
   8123SM  H12G10814   3.334   3.475  14.203
   8123SM  C13F10815   3.161   3.605  14.176
   8123SM  H13F10816   3.090   3.520  14.188
   8123SM  H13G10817   3.120   3.671  14.097
   8123SM  C14F10818   3.167   3.684  14.308
   8123SM  H14F10819   3.067   3.728  14.328
   8123SM  H14G10820   3.239   3.767  14.296
   8123SM  C15F10821   3.208   3.598  14.429
   8123SM  H15F10822   3.303   3.547  14.404
   8123SM  H15G10823   3.132   3.520  14.449
   8123SM  C16F10824   3.234   3.682  14.554
   8123SM  H16F10825   3.295   3.770  14.524
   8123SM  H16G10826   3.295   3.622  14.625
   8123SM  C17F10827   3.109   3.727  14.631
   8123SM  H17F10828   3.046   3.637  14.652
   8123SM  H17G10829   3.049   3.796  14.569
   8123SM  C18F10830   3.145   3.794  14.765
   8123SM  H18F10831   3.206   3.723  14.825
   8123SM  H18G10832   3.053   3.815  14.822
   8123SM  C19F10833   3.223   3.925  14.745
   8123SM  H19F10834   3.155   3.999  14.698
   8123SM  H19G10835   3.308   3.909  14.675
   8123SM  C20F10836   3.283   3.984  14.874
   8123SM  H20F10837   3.365   3.919  14.908
   8123SM  H20G10838   3.206   3.985  14.954
   8123SM  C21F10839   3.336   4.126  14.846
   8123SM  H21F10840   3.251   4.195  14.830
   8123SM  H21G10841   3.393   4.122  14.751
   8123SM  C22F10842   3.430   4.183  14.954
   8123SM  H22F10843   3.479   4.273  14.911
   8123SM  H22G10844   3.510   4.109  14.974
   8123SM  C23F10845   3.363   4.224  15.085
   8123SM  H23F10846   3.437   4.265  15.156
   8123SM  H23G10847   3.313   4.136  15.132
   8123SM  H23H10848   3.285   4.301  15.066
   8223SM     N10849   3.946   4.313  12.283
   8223SM   C1510850   3.826   4.395  12.251
   8223SM  H15A10851   3.807   4.400  12.145
   8223SM  H15B10852   3.843   4.496  12.285
   8223SM  H15C10853   3.739   4.358  12.303
   8223SM   C1410854   3.918   4.169  12.252
   8223SM  H14A10855   4.007   4.109  12.267
   8223SM  H14B10856   3.884   4.156  12.150
   8223SM  H14C10857   3.842   4.131  12.318
   8223SM   C1310858   4.061   4.363  12.201
   8223SM  H13A10859   4.039   4.359  12.096
   8223SM  H13B10860   4.151   4.308  12.221
   8223SM  H13C10861   4.080   4.467  12.226
   8223SM   C1210862   3.979   4.326  12.432
   8223SM  H12A10863   4.053   4.252  12.458
   8223SM  H12B10864   3.891   4.299  12.489
   8223SM   C1110865   4.027   4.464  12.483
   8223SM  H11A10866   4.128   4.482  12.442
   8223SM  H11B10867   4.035   4.460  12.594
   8223SM     P10868   3.980   4.717  12.444
   8223SM   O1310869   4.105   4.728  12.366
   8223SM   O1410870   3.863   4.797  12.399
   8223SM   O1110871   4.010   4.743  12.599
   8223SM   O1210872   3.935   4.566  12.446
   8223SM   C1S10873   3.901   4.727  12.691
   8223SM   H1S10874   3.830   4.648  12.658
   8223SM   H1T10875   3.844   4.823  12.697
   8223SM    NF10876   3.824   4.660  12.910
   8223SM   HNF10877   3.788   4.733  12.967
   8223SM   C2S10878   3.945   4.688  12.835
   8223SM   H2S10879   4.006   4.595  12.830
   8223SM   C3S10880   4.032   4.800  12.901
   8223SM   H3S10881   3.978   4.896  12.890
   8223SM    O310882   4.159   4.815  12.840
   8223SM   HO310883   4.147   4.781  12.751
   8223SM   C4S10884   4.044   4.773  13.051
   8223SM   H4S10885   3.983   4.842  13.111
   8223SM   C5S10886   4.118   4.681  13.117
   8223SM   H5S10887   4.184   4.613  13.061
   8223SM   C6S10888   4.120   4.663  13.268
   8223SM   H6S10889   4.076   4.565  13.294
   8223SM   H6T10890   4.058   4.740  13.320
   8223SM   C7S10891   4.262   4.668  13.329
   8223SM   H7S10892   4.305   4.769  13.316
   8223SM   H7T10893   4.327   4.597  13.273
   8223SM   C8S10894   4.270   4.628  13.479
   8223SM   H8S10895   4.378   4.619  13.503
   8223SM   H8T10896   4.225   4.528  13.495
   8223SM   C9S10897   4.209   4.730  13.576
   8223SM   H9S10898   4.099   4.713  13.585
   8223SM   H9T10899   4.224   4.831  13.533
   8223SM  C10S10900   4.274   4.731  13.717
   8223SM  H10S10901   4.236   4.820  13.771
   8223SM  H10T10902   4.383   4.744  13.706
   8223SM  C11S10903   4.246   4.608  13.805
   8223SM  H11S10904   4.292   4.518  13.759
   8223SM  H11T10905   4.136   4.591  13.810
   8223SM  C12S10906   4.301   4.626  13.948
   8223SM  H12S10907   4.257   4.719  13.990
   8223SM  H12T10908   4.411   4.640  13.944
   8223SM  C13S10909   4.269   4.510  14.044
   8223SM  H13S10910   4.323   4.419  14.012
   8223SM  H13T10911   4.160   4.489  14.039
   8223SM  C14S10912   4.305   4.543  14.190
   8223SM  H14S10913   4.253   4.637  14.219
   8223SM  H14T10914   4.415   4.563  14.197
   8223SM  C15S10915   4.267   4.433  14.290
   8223SM  H15S10916   4.326   4.341  14.267
   8223SM  H15T10917   4.160   4.408  14.276
   8223SM  C16S10918   4.290   4.474  14.436
   8223SM  H16S10919   4.235   4.568  14.456
   8223SM  H16T10920   4.399   4.494  14.452
   8223SM  C17S10921   4.244   4.367  14.536
   8223SM  H17S10922   4.299   4.273  14.516
   8223SM  H17T10923   4.136   4.347  14.520
   8223SM  C18S10924   4.266   4.408  14.682
   8223SM  H18S10925   4.374   4.428  14.701
   8223SM  H18T10926   4.233   4.327  14.751
   8223SM  H18U10927   4.209   4.500  14.706
   8223SM   C1F10928   3.756   4.547  12.895
   8223SM    OF10929   3.798   4.454  12.828
   8223SM   C2F10930   3.620   4.544  12.956
   8223SM   H2F10931   3.553   4.506  12.876
   8223SM   H2G10932   3.588   4.648  12.979
   8223SM   C3F10933   3.606   4.453  13.081
   8223SM   H3F10934   3.613   4.347  13.049
   8223SM   H3G10935   3.504   4.469  13.123
   8223SM   C4F10936   3.707   4.474  13.196
   8223SM   H4F10937   3.802   4.423  13.169
   8223SM   H4G10938   3.668   4.422  13.286
   8223SM   C5F10939   3.742   4.619  13.236
   8223SM   H5F10940   3.806   4.663  13.157
   8223SM   H5G10941   3.807   4.615  13.326
   8223SM   C6F10942   3.625   4.713  13.262
   8223SM   H6F10943   3.558   4.720  13.173
   8223SM   H6G10944   3.666   4.815  13.279
   8223SM   C7F10945   3.541   4.676  13.384
   8223SM   H7F10946   3.481   4.584  13.364
   8223SM   H7G10947   3.470   4.760  13.402
   8223SM   C8F10948   3.623   4.655  13.511
   8223SM   H8F10949   3.704   4.731  13.518
   8223SM   H8G10950   3.673   4.555  13.505
   8223SM   C9F10951   3.538   4.662  13.638
   8223SM   H9F10952   3.432   4.651  13.608
   8223SM   H9G10953   3.548   4.762  13.686
   8223SM  C10F10954   3.571   4.553  13.742
   8223SM  H10F10955   3.546   4.455  13.695
   8223SM  H10G10956   3.505   4.566  13.830
   8223SM  C11F10957   3.716   4.549  13.792
   8223SM  H11F10958   3.787   4.564  13.708
   8223SM  H11G10959   3.734   4.446  13.831
   8223SM  C12F10960   3.746   4.648  13.906
   8223SM  H12F10961   3.654   4.703  13.933
   8223SM  H12G10962   3.819   4.723  13.869
   8223SM  C13F10963   3.801   4.580  14.033
   8223SM  H13F10964   3.888   4.516  14.006
   8223SM  H13G10965   3.722   4.515  14.076
   8223SM  C14F10966   3.846   4.683  14.138
   8223SM  H14F10967   3.766   4.759  14.146
   8223SM  H14G10968   3.937   4.734  14.100
   8223SM  C15F10969   3.875   4.629  14.279
   8223SM  H15F10970   3.933   4.707  14.334
   8223SM  H15G10971   3.940   4.539  14.272
   8223SM  C16F10972   3.749   4.597  14.362
   8223SM  H16F10973   3.697   4.512  14.313
   8223SM  H16G10974   3.679   4.683  14.360
   8223SM  C17F10975   3.776   4.559  14.510
   8223SM  H17F10976   3.855   4.480  14.510
   8223SM  H17G10977   3.684   4.514  14.552
   8223SM  C18F10978   3.822   4.673  14.603
   8223SM  H18F10979   3.901   4.732  14.553
   8223SM  H18G10980   3.869   4.627  14.693
   8223SM  C19F10981   3.708   4.765  14.653
   8223SM  H19F10982   3.635   4.703  14.709
   8223SM  H19G10983   3.656   4.807  14.564
   8223SM  C20F10984   3.751   4.883  14.743
   8223SM  H20F10985   3.659   4.935  14.778
   8223SM  H20G10986   3.807   4.956  14.681
   8223SM  C21F10987   3.835   4.846  14.867
   8223SM  H21F10988   3.928   4.794  14.835
   8223SM  H21G10989   3.778   4.774  14.929
   8223SM  C22F10990   3.875   4.969  14.952
   8223SM  H22F10991   3.781   5.016  14.990
   8223SM  H22G10992   3.923   5.048  14.890
   8223SM  C23F10993   3.967   4.938  15.069
   8223SM  H23F10994   3.925   4.852  15.127
   8223SM  H23G10995   3.975   5.025  15.138
   8223SM  H23H10996   4.069   4.909  15.035
   8323SM     N10997   4.835   4.556  12.190
   8323SM   C1510998   4.937   4.666  12.174
   8323SM  H15A10999   4.891   4.757  12.138
   8323SM  H15B11000   5.015   4.638  12.105
   8323SM  H15C11001   4.984   4.687  12.269
   8323SM   C1411002   4.783   4.519  12.054
   8323SM  H14A11003   4.737   4.603  12.005
   8323SM  H14B11004   4.710   4.440  12.058
   8323SM  H14C11005   4.864   4.485  11.991
   8323SM   C1311006   4.902   4.436  12.250
   8323SM  H13A11007   4.988   4.405  12.194
   8323SM  H13B11008   4.833   4.353  12.259
   8323SM  H13C11009   4.932   4.459  12.351
   8323SM   C1211010   4.722   4.601  12.281
   8323SM  H12A11011   4.646   4.525  12.285
   8323SM  H12B11012   4.675   4.689  12.240
   8323SM   C1111013   4.758   4.629  12.429
   8323SM  H11A11014   4.675   4.686  12.477
   8323SM  H11B11015   4.847   4.696  12.434
   8323SM     P11016   4.672   4.429  12.574
   8323SM   O1311017   4.555   4.417  12.483
   8323SM   O1411018   4.724   4.303  12.630
   8323SM   O1111019   4.637   4.528  12.693
   8323SM   O1211020   4.787   4.507  12.497
   8323SM   C1S11021   4.741   4.598  12.764
   8323SM   H1S11022   4.698   4.694  12.800
   8323SM   H1T11023   4.828   4.625  12.701
   8323SM    NF11024   4.889   4.421  12.850
   8323SM   HNF11025   4.852   4.339  12.806
   8323SM   C2S11026   4.792   4.521  12.891
   8323SM   H2S11027   4.843   4.595  12.957
   8323SM   C3S11028   4.670   4.463  12.969
   8323SM   H3S11029   4.619   4.388  12.905
   8323SM    O311030   4.572   4.561  13.004
   8323SM   HO311031   4.597   4.641  12.955
   8323SM   C4S11032   4.712   4.397  13.098
   8323SM   H4S11033   4.790   4.450  13.155
   8323SM   C5S11034   4.658   4.283  13.146
   8323SM   H5S11035   4.577   4.236  13.089
   8323SM   C6S11036   4.694   4.213  13.275
   8323SM   H6S11037   4.790   4.158  13.264
   8323SM   H6T11038   4.616   4.136  13.293
   8323SM   C7S11039   4.699   4.301  13.403
   8323SM   H7S11040   4.608   4.364  13.409
   8323SM   H7T11041   4.787   4.368  13.400
   8323SM   C8S11042   4.704   4.212  13.529
   8323SM   H8S11043   4.789   4.141  13.518
   8323SM   H8T11044   4.610   4.152  13.530
   8323SM   C9S11045   4.713   4.281  13.666
   8323SM   H9S11046   4.627   4.350  13.681
   8323SM   H9T11047   4.805   4.343  13.669
   8323SM  C10S11048   4.714   4.174  13.778
   8323SM  H10S11049   4.764   4.082  13.738
   8323SM  H10T11050   4.607   4.152  13.798
   8323SM  C11S11051   4.786   4.206  13.910
   8323SM  H11S11052   4.735   4.293  13.957
   8323SM  H11T11053   4.892   4.232  13.888
   8323SM  C12S11054   4.788   4.094  14.015
   8323SM  H12S11055   4.833   4.001  13.974
   8323SM  H12T11056   4.680   4.079  14.039
   8323SM  C13S11057   4.846   4.127  14.152
   8323SM  H13S11058   4.788   4.217  14.181
   8323SM  H13T11059   4.955   4.152  14.147
   8323SM  C14S11060   4.819   4.019  14.259
   8323SM  H14S11061   4.875   3.927  14.235
   8323SM  H14T11062   4.710   3.995  14.254
   8323SM  C15S11063   4.846   4.061  14.405
   8323SM  H15S11064   4.801   3.983  14.470
   8323SM  H15T11065   4.793   4.156  14.428
   8323SM  C16S11066   4.994   4.073  14.442
   8323SM  H16S11067   5.036   4.163  14.392
   8323SM  H16T11068   5.049   3.984  14.404
   8323SM  C17S11069   5.015   4.084  14.593
   8323SM  H17S11070   4.987   3.987  14.641
   8323SM  H17T11071   4.947   4.161  14.634
   8323SM  C18S11072   5.159   4.119  14.633
   8323SM  H18S11073   5.191   4.214  14.585
   8323SM  H18T11074   5.229   4.039  14.600
   8323SM  H18U11075   5.168   4.130  14.743
   8323SM   C1F11076   5.014   4.458  12.822
   8323SM    OF11077   5.044   4.577  12.821
   8323SM   C2F11078   5.115   4.352  12.793
   8323SM   H2F11079   5.186   4.391  12.717
   8323SM   H2G11080   5.066   4.261  12.753
   8323SM   C3F11081   5.194   4.318  12.922
   8323SM   H3F11082   5.228   4.412  12.970
   8323SM   H3G11083   5.286   4.262  12.895
   8323SM   C4F11084   5.113   4.234  13.022
   8323SM   H4F11085   5.104   4.132  12.979
   8323SM   H4G11086   5.011   4.275  13.035
   8323SM   C5F11087   5.179   4.224  13.160
   8323SM   H5F11088   5.289   4.232  13.149
   8323SM   H5G11089   5.158   4.123  13.201
   8323SM   C6F11090   5.128   4.326  13.263
   8323SM   H6F11091   5.058   4.399  13.218
   8323SM   H6G11092   5.218   4.384  13.296
   8323SM   C7F11093   5.066   4.262  13.388
   8323SM   H7F11094   5.120   4.168  13.411
   8323SM   H7G11095   4.960   4.234  13.370
   8323SM   C8F11096   5.081   4.343  13.517
   8323SM   H8F11097   5.013   4.431  13.511
   8323SM   H8G11098   5.186   4.378  13.523
   8323SM   C9F11099   5.061   4.263  13.647
   8323SM   H9F11100   5.133   4.178  13.645
   8323SM   H9G11101   4.961   4.216  13.651
   8323SM  C10F11102   5.092   4.345  13.773
   8323SM  H10F11103   5.200   4.366  13.762
   8323SM  H10G11104   5.084   4.283  13.865
   8323SM  C11F11105   5.020   4.481  13.789
   8323SM  H11F11106   4.973   4.512  13.693
   8323SM  H11G11107   5.097   4.558  13.811
   8323SM  C12F11108   4.915   4.501  13.900
   8323SM  H12F11109   4.821   4.451  13.869
   8323SM  H12G11110   4.889   4.609  13.901
   8323SM  C13F11111   4.954   4.462  14.045
   8323SM  H13F11112   5.047   4.516  14.073
   8323SM  H13G11113   4.978   4.353  14.049
   8323SM  C14F11114   4.841   4.495  14.144
   8323SM  H14F11115   4.746   4.451  14.107
   8323SM  H14G11116   4.828   4.605  14.144
   8323SM  C15F11117   4.858   4.451  14.291
   8323SM  H15F11118   4.848   4.342  14.308
   8323SM  H15G11119   4.776   4.498  14.350
   8323SM  C16F11120   4.992   4.486  14.354
   8323SM  H16F11121   5.042   4.563  14.290
   8323SM  H16G11122   5.058   4.397  14.355
   8323SM  C17F11123   4.977   4.543  14.495
   8323SM  H17F11124   4.896   4.620  14.496
   8323SM  H17G11125   5.073   4.593  14.519
   8323SM  C18F11126   4.952   4.439  14.605
   8323SM  H18F11127   5.026   4.358  14.589
   8323SM  H18G11128   4.850   4.395  14.595
   8323SM  C19F11129   4.974   4.495  14.747
   8323SM  H19F11130   5.074   4.543  14.751
   8323SM  H19G11131   4.978   4.409  14.818
   8323SM  C20F11132   4.868   4.596  14.792
   8323SM  H20F11133   4.768   4.548  14.793
   8323SM  H20G11134   4.858   4.676  14.715
   8323SM  C21F11135   4.897   4.664  14.928
   8323SM  H21F11136   4.806   4.722  14.954
   8323SM  H21G11137   4.980   4.735  14.914
   8323SM  C22F11138   4.935   4.574  15.048
   8323SM  H22F11139   5.046   4.565  15.051
   8323SM  H22G11140   4.898   4.470  15.034
   8323SM  C23F11141   4.881   4.621  15.184
   8323SM  H23F11142   4.957   4.682  15.237
   8323SM  H23G11143   4.858   4.533  15.248
   8323SM  H23H11144   4.788   4.680  15.172
   8423SM     N11145   4.218   2.282  12.188
   8423SM   C1511146   4.092   2.202  12.183
   8423SM  H15A11147   4.018   2.248  12.118
   8423SM  H15B11148   4.049   2.199  12.282
   8423SM  H15C11149   4.110   2.100  12.152
   8423SM   C1411150   4.314   2.216  12.283
   8423SM  H14A11151   4.275   2.220  12.384
   8423SM  H14B11152   4.409   2.267  12.287
   8423SM  H14C11153   4.333   2.113  12.259
   8423SM   C1311154   4.281   2.290  12.052
   8423SM  H13A11155   4.305   2.192  12.015
   8423SM  H13B11156   4.372   2.347  12.057
   8423SM  H13C11157   4.214   2.340  11.983
   8423SM   C1211158   4.184   2.422  12.238
   8423SM  H12A11159   4.144   2.479  12.155
   8423SM  H12B11160   4.274   2.473  12.269
   8423SM   C1111161   4.081   2.434  12.353
   8423SM  H11A11162   3.980   2.406  12.315
   8423SM  H11B11163   4.072   2.541  12.383
   8423SM     P11164   4.214   2.395  12.575
   8423SM   O1311165   4.332   2.308  12.574
   8423SM   O1411166   4.239   2.541  12.563
   8423SM   O1111167   4.129   2.367  12.705
   8423SM   O1211168   4.113   2.349  12.463
   8423SM   C1S11169   4.062   2.473  12.773
   8423SM   H1S11170   3.957   2.479  12.738
   8423SM   H1T11171   4.108   2.573  12.757
   8423SM    NF11172   4.208   2.451  12.965
   8423SM   HNF11173   4.258   2.367  12.944
   8423SM   C2S11174   4.069   2.449  12.926
   8423SM   H2S11175   4.015   2.534  12.974
   8423SM   C3S11176   3.998   2.318  12.967
   8423SM   H3S11177   4.055   2.230  12.931
   8423SM    O311178   3.867   2.308  12.912
   8423SM   HO311179   3.877   2.343  12.824
   8423SM   C4S11180   3.990   2.317  13.118
   8423SM   H4S11181   3.925   2.396  13.158
   8423SM   C5S11182   4.054   2.234  13.202
   8423SM   H5S11183   4.118   2.155  13.161
   8423SM   C6S11184   4.046   2.239  13.353
   8423SM   H6S11185   4.149   2.235  13.393
   8423SM   H6T11186   3.994   2.149  13.392
   8423SM   C7S11187   3.980   2.365  13.415
   8423SM   H7S11188   3.869   2.357  13.405
   8423SM   H7T11189   4.014   2.455  13.360
   8423SM   C8S11190   4.017   2.389  13.563
   8423SM   H8S11191   3.974   2.486  13.595
   8423SM   H8T11192   4.128   2.398  13.570
   8423SM   C9S11193   3.972   2.280  13.661
   8423SM   H9S11194   4.005   2.180  13.624
   8423SM   H9T11195   3.861   2.279  13.666
   8423SM  C10S11196   4.031   2.302  13.801
   8423SM  H10S11197   4.003   2.404  13.837
   8423SM  H10T11198   4.142   2.297  13.795
   8423SM  C11S11199   3.983   2.199  13.903
   8423SM  H11S11200   4.002   2.097  13.864
   8423SM  H11T11201   3.873   2.210  13.914
   8423SM  C12S11202   4.049   2.213  14.041
   8423SM  H12S11203   4.043   2.319  14.074
   8423SM  H12T11204   4.156   2.184  14.036
   8423SM  C13S11205   3.974   2.125  14.141
   8423SM  H13S11206   3.976   2.020  14.106
   8423SM  H13T11207   3.868   2.159  14.139
   8423SM  C14S11208   4.019   2.130  14.288
   8423SM  H14S11209   4.026   2.235  14.322
   8423SM  H14T11210   4.120   2.084  14.298
   8423SM  C15S11211   3.915   2.055  14.372
   8423SM  H15S11212   3.888   1.960  14.320
   8423SM  H15T11213   3.825   2.120  14.376
   8423SM  C16S11214   3.948   2.022  14.517
   8423SM  H16S11215   4.023   1.939  14.517
   8423SM  H16T11216   3.858   1.981  14.566
   8423SM  C17S11217   3.997   2.142  14.597
   8423SM  H17S11218   3.927   2.227  14.580
   8423SM  H17T11219   4.097   2.172  14.560
   8423SM  C18S11220   4.005   2.112  14.747
   8423SM  H18S11221   4.081   2.035  14.767
   8423SM  H18T11222   3.907   2.074  14.784
   8423SM  H18U11223   4.030   2.204  14.804
   8423SM   C1F11224   4.273   2.565  12.983
   8423SM    OF11225   4.211   2.669  13.005
   8423SM   C2F11226   4.422   2.559  12.979
   8423SM   H2F11227   4.460   2.633  12.906
   8423SM   H2G11228   4.454   2.457  12.947
   8423SM   C3F11229   4.479   2.590  13.119
   8423SM   H3F11230   4.448   2.694  13.146
   8423SM   H3G11231   4.590   2.586  13.114
   8423SM   C4F11232   4.427   2.493  13.226
   8423SM   H4F11233   4.447   2.389  13.193
   8423SM   H4G11234   4.317   2.503  13.236
   8423SM   C5F11235   4.487   2.514  13.365
   8423SM   H5F11236   4.461   2.615  13.403
   8423SM   H5G11237   4.598   2.505  13.360
   8423SM   C6F11238   4.432   2.407  13.460
   8423SM   H6F11239   4.457   2.307  13.419
   8423SM   H6G11240   4.321   2.415  13.463
   8423SM   C7F11241   4.488   2.416  13.602
   8423SM   H7F11242   4.460   2.513  13.649
   8423SM   H7G11243   4.599   2.410  13.597
   8423SM   C8F11244   4.435   2.300  13.687
   8423SM   H8F11245   4.457   2.205  13.633
   8423SM   H8G11246   4.325   2.308  13.696
   8423SM   C9F11247   4.500   2.293  13.825
   8423SM   H9F11248   4.470   2.381  13.885
   8423SM   H9G11249   4.611   2.297  13.812
   8423SM  C10F11250   4.465   2.163  13.898
   8423SM  H10F11251   4.485   2.078  13.830
   8423SM  H10G11252   4.356   2.162  13.922
   8423SM  C11F11253   4.546   2.143  14.026
   8423SM  H11F11254   4.655   2.145  14.003
   8423SM  H11G11255   4.524   2.043  14.069
   8423SM  C12F11256   4.518   2.249  14.133
   8423SM  H12F11257   4.409   2.254  14.153
   8423SM  H12G11258   4.551   2.348  14.096
   8423SM  C13F11259   4.593   2.217  14.263
   8423SM  H13F11260   4.698   2.192  14.237
   8423SM  H13G11261   4.549   2.128  14.311
   8423SM  C14F11262   4.594   2.334  14.361
   8423SM  H14F11263   4.643   2.422  14.314
   8423SM  H14G11264   4.657   2.302  14.448
   8423SM  C15F11265   4.457   2.375  14.415
   8423SM  H15F11266   4.410   2.285  14.461
   8423SM  H15G11267   4.392   2.408  14.331
   8423SM  C16F11268   4.467   2.488  14.518
   8423SM  H16F11269   4.520   2.574  14.471
   8423SM  H16G11270   4.529   2.455  14.604
   8423SM  C17F11271   4.331   2.537  14.570
   8423SM  H17F11272   4.273   2.577  14.484
   8423SM  H17G11273   4.347   2.621  14.641
   8423SM  C18F11274   4.247   2.429  14.639
   8423SM  H18F11275   4.234   2.343  14.570
   8423SM  H18G11276   4.145   2.469  14.659
   8423SM  C19F11277   4.305   2.379  14.772
   8423SM  H19F11278   4.409   2.342  14.760
   8423SM  H19G11279   4.244   2.291  14.803
   8423SM  C20F11280   4.297   2.485  14.883
   8423SM  H20F11281   4.209   2.549  14.861
   8423SM  H20G11282   4.387   2.551  14.880
   8423SM  C21F11283   4.276   2.425  15.022
   8423SM  H21F11284   4.228   2.326  15.014
   8423SM  H21G11285   4.206   2.490  15.079
   8423SM  C22F11286   4.404   2.413  15.104
   8423SM  H22F11287   4.454   2.512  15.113
   8423SM  H22G11288   4.478   2.349  15.051
   8423SM  C23F11289   4.373   2.357  15.243
   8423SM  H23F11290   4.463   2.311  15.288
   8423SM  H23G11291   4.294   2.279  15.237
   8423SM  H23H11292   4.335   2.437  15.310
   8523SM     N11293   5.933   3.604  12.341
   8523SM   C1511294   5.802   3.647  12.283
   8523SM  H15A11295   5.785   3.751  12.307
   8523SM  H15B11296   5.719   3.590  12.323
   8523SM  H15C11297   5.799   3.637  12.175
   8523SM   C1411298   5.916   3.597  12.490
   8523SM  H14A11299   5.834   3.532  12.517
   8523SM  H14B11300   5.891   3.696  12.526
   8523SM  H14C11301   6.006   3.565  12.540
   8523SM   C1311302   5.968   3.470  12.284
   8523SM  H13A11303   5.971   3.474  12.176
   8523SM  H13B11304   5.893   3.396  12.311
   8523SM  H13C11305   6.064   3.435  12.320
   8523SM   C1211306   6.039   3.706  12.305
   8523SM  H12A11307   6.031   3.727  12.199
   8523SM  H12B11308   6.137   3.664  12.321
   8523SM   C1111309   6.034   3.842  12.379
   8523SM  H11A11310   6.112   3.907  12.333
   8523SM  H11B11311   6.062   3.829  12.485
   8523SM     P11312   5.886   4.055  12.388
   8523SM   O1311313   5.981   4.122  12.297
   8523SM   O1411314   5.741   4.085  12.376
   8523SM   O1111315   5.932   4.075  12.540
   8523SM   O1211316   5.904   3.900  12.370
   8523SM   C1S11317   5.827   4.057  12.638
   8523SM   H1S11318   5.767   3.967  12.613
   8523SM   H1T11319   5.759   4.145  12.639
   8523SM    NF11320   5.766   3.998  12.866
   8523SM   HNF11321   5.719   4.072  12.915
   8523SM   C2S11322   5.879   4.033  12.782
   8523SM   H2S11323   5.950   3.947  12.781
   8523SM   C3S11324   5.957   4.158  12.832
   8523SM   H3S11325   5.891   4.247  12.817
   8523SM    O311326   6.077   4.179  12.758
   8523SM   HO311327   6.056   4.143  12.672
   8523SM   C4S11328   5.991   4.147  12.979
   8523SM   H4S11329   6.036   4.052  13.011
   8523SM   C5S11330   5.969   4.245  13.069
   8523SM   H5S11331   5.926   4.339  13.031
   8523SM   C6S11332   6.001   4.245  13.218
   8523SM   H6S11333   5.906   4.244  13.275
   8523SM   H6T11334   6.055   4.339  13.243
   8523SM   C7S11335   6.087   4.130  13.273
   8523SM   H7S11336   6.178   4.118  13.211
   8523SM   H7T11337   6.029   4.035  13.265
   8523SM   C8S11338   6.133   4.149  13.420
   8523SM   H8S11339   6.208   4.231  13.423
   8523SM   H8T11340   6.185   4.056  13.453
   8523SM   C9S11341   6.022   4.181  13.522
   8523SM   H9S11342   5.949   4.097  13.524
   8523SM   H9T11343   5.969   4.273  13.491
   8523SM  C10S11344   6.076   4.204  13.665
   8523SM  H10S11345   6.159   4.277  13.662
   8523SM  H10T11346   6.117   4.108  13.704
   8523SM  C11S11347   5.968   4.257  13.762
   8523SM  H11S11348   5.879   4.192  13.754
   8523SM  H11T11349   5.938   4.359  13.731
   8523SM  C12S11350   6.013   4.261  13.910
   8523SM  H12S11351   6.107   4.319  13.919
   8523SM  H12T11352   6.039   4.157  13.940
   8523SM  C13S11353   5.906   4.316  14.006
   8523SM  H13S11354   5.809   4.266  13.982
   8523SM  H13T11355   5.891   4.425  13.989
   8523SM  C14S11356   5.935   4.290  14.155
   8523SM  H14S11357   6.005   4.366  14.197
   8523SM  H14T11358   5.989   4.193  14.162
   8523SM  C15S11359   5.810   4.289  14.246
   8523SM  H15S11360   5.747   4.201  14.223
   8523SM  H15T11361   5.744   4.375  14.222
   8523SM  C16S11362   5.835   4.271  14.396
   8523SM  H16S11363   5.848   4.370  14.445
   8523SM  H16T11364   5.931   4.217  14.411
   8523SM  C17S11365   5.723   4.190  14.464
   8523SM  H17S11366   5.716   4.089  14.419
   8523SM  H17T11367   5.624   4.235  14.439
   8523SM  C18S11368   5.735   4.173  14.615
   8523SM  H18S11369   5.786   4.260  14.661
   8523SM  H18T11370   5.793   4.083  14.644
   8523SM  H18U11371   5.633   4.164  14.659
   8523SM   C1F11372   5.711   3.877  12.856
   8523SM    OF11373   5.759   3.794  12.779
   8523SM   C2F11374   5.590   3.849  12.937
   8523SM   H2F11375   5.518   3.794  12.873
   8523SM   H2G11376   5.542   3.943  12.972
   8523SM   C3F11377   5.628   3.758  13.055
   8523SM   H3F11378   5.687   3.671  13.019
   8523SM   H3G11379   5.533   3.717  13.094
   8523SM   C4F11380   5.701   3.832  13.168
   8523SM   H4F11381   5.655   3.799  13.264
   8523SM   H4G11382   5.685   3.941  13.162
   8523SM   C5F11383   5.851   3.799  13.178
   8523SM   H5F11384   5.906   3.864  13.106
   8523SM   H5G11385   5.869   3.694  13.149
   8523SM   C6F11386   5.904   3.820  13.320
   8523SM   H6F11387   5.865   3.915  13.361
   8523SM   H6G11388   6.015   3.826  13.316
   8523SM   C7F11389   5.868   3.706  13.417
   8523SM   H7F11390   5.917   3.613  13.385
   8523SM   H7G11391   5.758   3.688  13.417
   8523SM   C8F11392   5.908   3.735  13.563
   8523SM   H8F11393   5.885   3.643  13.620
   8523SM   H8G11394   5.843   3.815  13.604
   8523SM   C9F11395   6.056   3.777  13.579
   8523SM   H9F11396   6.060   3.888  13.576
   8523SM   H9G11397   6.114   3.738  13.493
   8523SM  C10F11398   6.127   3.727  13.707
   8523SM  H10F11399   6.208   3.797  13.732
   8523SM  H10G11400   6.173   3.628  13.686
   8523SM  C11F11401   6.033   3.709  13.826
   8523SM  H11F11402   5.972   3.618  13.810
   8523SM  H11G11403   5.964   3.797  13.825
   8523SM  C12F11404   6.102   3.701  13.963
   8523SM  H12F11405   6.161   3.794  13.977
   8523SM  H12G11406   6.174   3.616  13.963
   8523SM  C13F11407   6.004   3.686  14.081
   8523SM  H13F11408   5.931   3.769  14.078
   8523SM  H13G11409   6.060   3.694  14.177
   8523SM  C14F11410   5.921   3.558  14.081
   8523SM  H14F11411   5.990   3.482  14.122
   8523SM  H14G11412   5.894   3.534  13.976
   8523SM  C15F11413   5.786   3.558  14.157
   8523SM  H15F11414   5.732   3.463  14.136
   8523SM  H15G11415   5.722   3.639  14.116
   8523SM  C16F11416   5.804   3.571  14.309
   8523SM  H16F11417   5.876   3.653  14.323
   8523SM  H16G11418   5.854   3.478  14.345
   8523SM  C17F11419   5.676   3.594  14.393
   8523SM  H17F11420   5.623   3.497  14.403
   8523SM  H17G11421   5.608   3.664  14.340
   8523SM  C18F11422   5.703   3.653  14.533
   8523SM  H18F11423   5.714   3.763  14.525
   8523SM  H18G11424   5.800   3.614  14.572
   8523SM  C19F11425   5.596   3.627  14.640
   8523SM  H19F11426   5.643   3.581  14.729
   8523SM  H19G11427   5.520   3.556  14.600
   8523SM  C20F11428   5.525   3.756  14.683
   8523SM  H20F11429   5.473   3.797  14.594
   8523SM  H20G11430   5.601   3.831  14.715
   8523SM  C21F11431   5.423   3.736  14.796
   8523SM  H21F11432   5.475   3.734  14.894
   8523SM  H21G11433   5.376   3.637  14.781
   8523SM  C22F11434   5.315   3.844  14.794
   8523SM  H22F11435   5.263   3.839  14.696
   8523SM  H22G11436   5.364   3.943  14.801
   8523SM  C23F11437   5.210   3.833  14.905
   8523SM  H23F11438   5.152   3.738  14.897
   8523SM  H23G11439   5.137   3.917  14.897
   8523SM  H23H11440   5.257   3.837  15.006
   8623SM     N11441   3.729   1.660  12.188
   8623SM   C1511442   3.582   1.655  12.217
   8623SM  H15A11443   3.553   1.556  12.249
   8623SM  H15B11444   3.523   1.685  12.132
   8623SM  H15C11445   3.561   1.720  12.301
   8623SM   C1411446   3.756   1.561  12.079
   8623SM  H14A11447   3.728   1.461  12.107
   8623SM  H14B11448   3.861   1.555  12.052
   8623SM  H14C11449   3.701   1.585  11.989
   8623SM   C1311450   3.766   1.798  12.144
   8623SM  H13A11451   3.739   1.869  12.221
   8623SM  H13B11452   3.715   1.825  12.053
   8623SM  H13C11453   3.872   1.807  12.127
   8623SM   C1211454   3.805   1.624  12.316
   8623SM  H12A11455   3.910   1.607  12.294
   8623SM  H12B11456   3.766   1.531  12.356
   8623SM   C1111457   3.798   1.724  12.435
   8623SM  H11A11458   3.842   1.821  12.405
   8623SM  H11B11459   3.861   1.686  12.518
   8623SM     P11460   3.588   1.632  12.561
   8623SM   O1311461   3.444   1.647  12.528
   8623SM   O1411462   3.655   1.504  12.531
   8623SM   O1111463   3.613   1.676  12.712
   8623SM   O1211464   3.663   1.746  12.479
   8623SM   C1S11465   3.644   1.813  12.740
   8623SM   H1S11466   3.555   1.876  12.717
   8623SM   H1T11467   3.728   1.850  12.678
   8623SM    NF11468   3.813   1.772  12.912
   8623SM   HNF11469   3.813   1.674  12.934
   8623SM   C2S11470   3.686   1.836  12.888
   8623SM   H2S11471   3.699   1.945  12.903
   8623SM   C3S11472   3.575   1.789  12.985
   8623SM   H3S11473   3.553   1.680  12.977
   8623SM    O311474   3.453   1.859  12.957
   8623SM   HO311475   3.425   1.817  12.875
   8623SM   C4S11476   3.617   1.825  13.125
   8623SM   H4S11477   3.578   1.922  13.161
   8623SM   C5S11478   3.693   1.752  13.208
   8623SM   H5S11479   3.733   1.654  13.177
   8623SM   C6S11480   3.733   1.797  13.346
   8623SM   H6S11481   3.670   1.881  13.381
   8623SM   H6T11482   3.838   1.833  13.344
   8623SM   C7S11483   3.726   1.683  13.449
   8623SM   H7S11484   3.790   1.598  13.416
   8623SM   H7T11485   3.621   1.646  13.458
   8623SM   C8S11486   3.773   1.727  13.588
   8623SM   H8S11487   3.875   1.772  13.579
   8623SM   H8T11488   3.781   1.638  13.653
   8623SM   C9S11489   3.679   1.828  13.653
   8623SM   H9S11490   3.578   1.782  13.661
   8623SM   H9T11491   3.670   1.920  13.590
   8623SM  C10S11492   3.725   1.870  13.792
   8623SM  H10S11493   3.822   1.924  13.786
   8623SM  H10T11494   3.743   1.779  13.852
   8623SM  C11S11495   3.620   1.958  13.862
   8623SM  H11S11496   3.521   1.909  13.856
   8623SM  H11T11497   3.614   2.057  13.813
   8623SM  C12S11498   3.658   1.975  14.009
   8623SM  H12S11499   3.754   2.029  14.014
   8623SM  H12T11500   3.676   1.874  14.052
   8623SM  C13S11501   3.554   2.046  14.097
   8623SM  H13S11502   3.461   1.985  14.102
   8623SM  H13T11503   3.528   2.146  14.055
   8623SM  C14S11504   3.615   2.062  14.236
   8623SM  H14S11505   3.688   2.146  14.232
   8623SM  H14T11506   3.670   1.968  14.257
   8623SM  C15S11507   3.520   2.088  14.353
   8623SM  H15S11508   3.422   2.042  14.328
   8623SM  H15T11509   3.505   2.197  14.366
   8623SM  C16S11510   3.571   2.023  14.484
   8623SM  H16S11511   3.663   1.964  14.466
   8623SM  H16T11512   3.494   1.950  14.515
   8623SM  C17S11513   3.595   2.119  14.602
   8623SM  H17S11514   3.526   2.205  14.594
   8623SM  H17T11515   3.698   2.161  14.596
   8623SM  C18S11516   3.573   2.049  14.737
   8623SM  H18S11517   3.660   1.986  14.763
   8623SM  H18T11518   3.483   1.984  14.733
   8623SM  H18U11519   3.556   2.124  14.818
   8623SM   C1F11520   3.925   1.825  12.865
   8623SM    OF11521   3.924   1.938  12.818
   8623SM   C2F11522   4.050   1.742  12.872
   8623SM   H2F11523   4.073   1.720  12.978
   8623SM   H2G11524   4.134   1.804  12.832
   8623SM   C3F11525   4.044   1.611  12.789
   8623SM   H3F11526   4.145   1.565  12.791
   8623SM   H3G11527   4.022   1.637  12.683
   8623SM   C4F11528   3.941   1.504  12.833
   8623SM   H4F11529   3.962   1.411  12.777
   8623SM   H4G11530   3.840   1.537  12.802
   8623SM   C5F11531   3.942   1.471  12.983
   8623SM   H5F11532   3.931   1.562  13.046
   8623SM   H5G11533   4.040   1.425  13.008
   8623SM   C6F11534   3.834   1.370  13.025
   8623SM   H6F11535   3.845   1.347  13.133
   8623SM   H6G11536   3.853   1.275  12.970
   8623SM   C7F11537   3.691   1.415  12.994
   8623SM   H7F11538   3.677   1.408  12.884
   8623SM   H7G11539   3.678   1.521  13.024
   8623SM   C8F11540   3.583   1.329  13.062
   8623SM   H8F11541   3.621   1.226  13.080
   8623SM   H8G11542   3.500   1.319  12.989
   8623SM   C9F11543   3.524   1.389  13.191
   8623SM   H9F11544   3.424   1.345  13.206
   8623SM   H9G11545   3.512   1.499  13.180
   8623SM  C10F11546   3.602   1.358  13.320
   8623SM  H10F11547   3.697   1.416  13.322
   8623SM  H10G11548   3.630   1.250  13.321
   8623SM  C11F11549   3.517   1.388  13.444
   8623SM  H11F11550   3.430   1.318  13.447
   8623SM  H11G11551   3.476   1.491  13.434
   8623SM  C12F11552   3.591   1.379  13.579
   8623SM  H12F11553   3.690   1.427  13.570
   8623SM  H12G11554   3.608   1.273  13.605
   8623SM  C13F11555   3.510   1.448  13.690
   8623SM  H13F11556   3.407   1.406  13.689
   8623SM  H13G11557   3.503   1.556  13.669
   8623SM  C14F11558   3.568   1.427  13.831
   8623SM  H14F11559   3.671   1.468  13.836
   8623SM  H14G11560   3.576   1.318  13.848
   8623SM  C15F11561   3.480   1.488  13.941
   8623SM  H15F11562   3.489   1.423  14.031
   8623SM  H15G11563   3.373   1.484  13.911
   8623SM  C16F11564   3.519   1.631  13.982
   8623SM  H16F11565   3.471   1.701  13.911
   8623SM  H16G11566   3.629   1.643  13.973
   8623SM  C17F11567   3.480   1.666  14.127
   8623SM  H17F11568   3.394   1.603  14.157
   8623SM  H17G11569   3.445   1.772  14.131
   8623SM  C18F11570   3.597   1.651  14.225
   8623SM  H18F11571   3.676   1.725  14.202
   8623SM  H18G11572   3.642   1.550  14.212
   8623SM  C19F11573   3.557   1.668  14.373
   8623SM  H19F11574   3.470   1.602  14.396
   8623SM  H19G11575   3.524   1.773  14.389
   8623SM  C20F11576   3.673   1.633  14.467
   8623SM  H20F11577   3.764   1.686  14.431
   8623SM  H20G11578   3.693   1.524  14.462
   8623SM  C21F11579   3.649   1.674  14.613
   8623SM  H21F11580   3.634   1.784  14.619
   8623SM  H21G11581   3.740   1.650  14.673
   8623SM  C22F11582   3.529   1.604  14.678
   8623SM  H22F11583   3.544   1.494  14.674
   8623SM  H22G11584   3.437   1.628  14.621
   8623SM  C23F11585   3.509   1.648  14.823
   8623SM  H23F11586   3.596   1.618  14.885
   8623SM  H23G11587   3.418   1.601  14.867
   8623SM  H23H11588   3.499   1.758  14.828
   8723SM     N11589   4.503   1.669  12.180
   8723SM   C1511590   4.520   1.818  12.173
   8723SM  H15A11591   4.617   1.842  12.132
   8723SM  H15B11592   4.516   1.859  12.273
   8723SM  H15C11593   4.444   1.865  12.113
   8723SM   C1411594   4.376   1.636  12.251
   8723SM  H14A11595   4.366   1.530  12.268
   8723SM  H14B11596   4.287   1.676  12.204
   8723SM  H14C11597   4.380   1.679  12.351
   8723SM   C1311598   4.501   1.615  12.041
   8723SM  H13A11599   4.591   1.643  11.988
   8723SM  H13B11600   4.417   1.653  11.985
   8723SM  H13C11601   4.497   1.507  12.039
   8723SM   C1211602   4.621   1.611  12.258
   8723SM  H12A11603   4.710   1.618  12.197
   8723SM  H12B11604   4.603   1.506  12.278
   8723SM   C1111605   4.657   1.673  12.397
   8723SM  H11A11606   4.694   1.776  12.381
   8723SM  H11B11607   4.742   1.616  12.440
   8723SM     P11608   4.495   1.538  12.550
   8723SM   O1311609   4.349   1.556  12.568
   8723SM   O1411610   4.538   1.426  12.463
   8723SM   O1111611   4.569   1.541  12.691
   8723SM   O1211612   4.545   1.675  12.485
   8723SM   C1S11613   4.566   1.664  12.764
   8723SM   H1S11614   4.465   1.710  12.765
   8723SM   H1T11615   4.636   1.735  12.714
   8723SM    NF11616   4.494   1.613  12.995
   8723SM   HNF11617   4.445   1.688  13.038
   8723SM   C2S11618   4.610   1.649  12.913
   8723SM   H2S11619   4.686   1.568  12.920
   8723SM   C3S11620   4.676   1.783  12.957
   8723SM   H3S11621   4.605   1.866  12.937
   8723SM    O311622   4.797   1.817  12.889
   8723SM   HO311623   4.815   1.743  12.830
   8723SM   C4S11624   4.703   1.776  13.105
   8723SM   H4S11625   4.769   1.694  13.134
   8723SM   C5S11626   4.653   1.857  13.200
   8723SM   H5S11627   4.585   1.940  13.174
   8723SM   C6S11628   4.685   1.838  13.346
   8723SM   H6S11629   4.657   1.928  13.406
   8723SM   H6T11630   4.794   1.822  13.360
   8723SM   C7S11631   4.608   1.715  13.398
   8723SM   H7S11632   4.621   1.631  13.328
   8723SM   H7T11633   4.499   1.737  13.404
   8723SM   C8S11634   4.659   1.665  13.534
   8723SM   H8S11635   4.760   1.710  13.550
   8723SM   H8T11636   4.671   1.555  13.527
   8723SM   C9S11637   4.567   1.693  13.653
   8723SM   H9S11638   4.477   1.631  13.636
   8723SM   H9T11639   4.538   1.800  13.657
   8723SM  C10S11640   4.629   1.650  13.787
   8723SM  H10S11641   4.697   1.731  13.821
   8723SM  H10T11642   4.691   1.559  13.770
   8723SM  C11S11643   4.526   1.616  13.895
   8723SM  H11S11644   4.469   1.526  13.864
   8723SM  H11T11645   4.455   1.701  13.902
   8723SM  C12S11646   4.588   1.592  14.034
   8723SM  H12S11647   4.663   1.510  14.029
   8723SM  H12T11648   4.507   1.561  14.103
   8723SM  C13S11649   4.653   1.719  14.088
   8723SM  H13S11650   4.583   1.804  14.075
   8723SM  H13T11651   4.744   1.743  14.028
   8723SM  C14S11652   4.694   1.713  14.235
   8723SM  H14S11653   4.772   1.634  14.249
   8723SM  H14T11654   4.607   1.686  14.299
   8723SM  C15S11655   4.750   1.849  14.277
   8723SM  H15S11656   4.673   1.928  14.263
   8723SM  H15T11657   4.835   1.872  14.208
   8723SM  C16S11658   4.802   1.853  14.420
   8723SM  H16S11659   4.862   1.761  14.438
   8723SM  H16T11660   4.718   1.852  14.492
   8723SM  C17S11661   4.893   1.974  14.440
   8723SM  H17S11662   4.830   2.066  14.439
   8723SM  H17T11663   4.963   1.981  14.354
   8723SM  C18S11664   4.978   1.972  14.567
   8723SM  H18S11665   4.915   1.978  14.659
   8723SM  H18T11666   5.046   2.059  14.566
   8723SM  H18U11667   5.040   1.880  14.573
   8723SM   C1F11668   4.446   1.489  13.002
   8723SM    OF11669   4.515   1.392  12.975
   8723SM   C2F11670   4.304   1.474  13.045
   8723SM   H2F11671   4.244   1.455  12.954
   8723SM   H2G11672   4.269   1.568  13.092
   8723SM   C3F11673   4.282   1.355  13.143
   8723SM   H3F11674   4.308   1.261  13.090
   8723SM   H3G11675   4.174   1.348  13.167
   8723SM   C4F11676   4.362   1.361  13.274
   8723SM   H4F11677   4.470   1.348  13.251
   8723SM   H4G11678   4.331   1.276  13.338
   8723SM   C5F11679   4.345   1.491  13.355
   8723SM   H5F11680   4.388   1.575  13.296
   8723SM   H5G11681   4.406   1.482  13.448
   8723SM   C6F11682   4.200   1.526  13.391
   8723SM   H6F11683   4.152   1.440  13.442
   8723SM   H6G11684   4.144   1.544  13.297
   8723SM   C7F11685   4.187   1.652  13.480
   8723SM   H7F11686   4.084   1.692  13.473
   8723SM   H7G11687   4.256   1.729  13.438
   8723SM   C8F11688   4.222   1.629  13.628
   8723SM   H8F11689   4.279   1.719  13.662
   8723SM   H8G11690   4.289   1.541  13.638
   8723SM   C9F11691   4.102   1.611  13.721
   8723SM   H9F11692   4.053   1.515  13.697
   8723SM   H9G11693   4.029   1.693  13.704
   8723SM  C10F11694   4.142   1.613  13.870
   8723SM  H10F11695   4.232   1.549  13.883
   8723SM  H10G11696   4.060   1.569  13.931
   8723SM  C11F11697   4.173   1.753  13.924
   8723SM  H11F11698   4.083   1.818  13.917
   8723SM  H11G11699   4.253   1.800  13.862
   8723SM  C12F11700   4.222   1.748  14.069
   8723SM  H12F11701   4.302   1.672  14.078
   8723SM  H12G11702   4.138   1.716  14.135
   8723SM  C13F11703   4.280   1.882  14.118
   8723SM  H13F11704   4.198   1.957  14.124
   8723SM  H13G11705   4.352   1.918  14.041
   8723SM  C14F11706   4.351   1.872  14.253
   8723SM  H14F11707   4.391   1.972  14.281
   8723SM  H14G11708   4.438   1.803  14.243
   8723SM  C15F11709   4.261   1.822  14.366
   8723SM  H15F11710   4.214   1.725  14.338
   8723SM  H15G11711   4.179   1.896  14.377
   8723SM  C16F11712   4.329   1.803  14.502
   8723SM  H16F11713   4.407   1.881  14.516
   8723SM  H16G11714   4.379   1.704  14.506
   8723SM  C17F11715   4.223   1.817  14.612
   8723SM  H17F11716   4.133   1.757  14.587
   8723SM  H17G11717   4.196   1.925  14.610
   8723SM  C18F11718   4.267   1.788  14.755
   8723SM  H18F11719   4.210   1.857  14.820
   8723SM  H18G11720   4.375   1.813  14.765
   8723SM  C19F11721   4.240   1.647  14.808
   8723SM  H19F11722   4.289   1.573  14.740
   8723SM  H19G11723   4.131   1.627  14.807
   8723SM  C20F11724   4.295   1.637  14.951
   8723SM  H20F11725   4.242   1.713  15.012
   8723SM  H20G11726   4.402   1.665  14.948
   8723SM  C21F11727   4.279   1.500  15.018
   8723SM  H21F11728   4.322   1.422  14.951
   8723SM  H21G11729   4.170   1.477  15.027
   8723SM  C22F11730   4.346   1.487  15.157
   8723SM  H22F11731   4.345   1.380  15.185
   8723SM  H22G11732   4.285   1.540  15.233
   8723SM  C23F11733   4.489   1.540  15.165
   8723SM  H23F11734   4.550   1.498  15.082
   8723SM  H23G11735   4.537   1.511  15.261
   8723SM  H23H11736   4.492   1.651  15.157
   8823SM     N11737   1.791   2.316  12.198
   8823SM   C1511738   1.817   2.256  12.063
   8823SM  H15A11739   1.743   2.288  11.991
   8823SM  H15B11740   1.816   2.148  12.068
   8823SM  H15C11741   1.913   2.288  12.027
   8823SM   C1411742   1.895   2.268  12.294
   8823SM  H14A11743   1.882   2.163  12.317
   8823SM  H14B11744   1.885   2.318  12.389
   8823SM  H14C11745   1.995   2.286  12.258
   8823SM   C1311746   1.805   2.465  12.187
   8823SM  H13A11747   1.795   2.509  12.285
   8823SM  H13B11748   1.730   2.509  12.124
   8823SM  H13C11749   1.903   2.493  12.149
   8823SM   C1211750   1.653   2.278  12.250
   8823SM  H12A11751   1.649   2.170  12.260
   8823SM  H12B11752   1.578   2.307  12.178
   8823SM   C1111753   1.608   2.335  12.387
   8823SM  H11A11754   1.685   2.306  12.462
   8823SM  H11B11755   1.515   2.283  12.416
   8823SM     P11756   1.618   2.565  12.507
   8823SM   O1311757   1.751   2.524  12.558
   8823SM   O1411758   1.600   2.706  12.470
   8823SM   O1111759   1.502   2.521  12.606
   8823SM   O1211760   1.585   2.476  12.379
   8823SM   C1S11761   1.524   2.421  12.707
   8823SM   H1S11762   1.619   2.365  12.693
   8823SM   H1T11763   1.444   2.344  12.704
   8823SM    NF11764   1.549   2.370  12.943
   8823SM   HNF11765   1.470   2.324  12.983
   8823SM   C2S11766   1.521   2.478  12.851
   8823SM   H2S11767   1.602   2.554  12.860
   8823SM   C3S11768   1.384   2.547  12.883
   8823SM   H3S11769   1.304   2.470  12.877
   8823SM    O311770   1.346   2.650  12.792
   8823SM   HO311771   1.407   2.639  12.719
   8823SM   C4S11772   1.393   2.600  13.023
   8823SM   H4S11773   1.443   2.698  13.035
   8823SM   C5S11774   1.344   2.537  13.132
   8823SM   H5S11775   1.293   2.440  13.120
   8823SM   C6S11776   1.354   2.585  13.274
   8823SM   H6S11777   1.256   2.576  13.326
   8823SM   H6T11778   1.385   2.691  13.282
   8823SM   C7S11779   1.459   2.495  13.345
   8823SM   H7S11780   1.560   2.525  13.309
   8823SM   H7T11781   1.445   2.388  13.318
   8823SM   C8S11782   1.457   2.503  13.498
   8823SM   H8S11783   1.447   2.609  13.529
   8823SM   H8T11784   1.553   2.464  13.538
   8823SM   C9S11785   1.342   2.419  13.556
   8823SM   H9S11786   1.360   2.311  13.538
   8823SM   H9T11787   1.250   2.447  13.502
   8823SM  C10S11788   1.314   2.442  13.705
   8823SM  H10S11789   1.224   2.384  13.733
   8823SM  H10T11790   1.289   2.550  13.720
   8823SM  C11S11791   1.427   2.404  13.801
   8823SM  H11S11792   1.524   2.447  13.768
   8823SM  H11T11793   1.437   2.293  13.802
   8823SM  C12S11794   1.393   2.455  13.941
   8823SM  H12S11795   1.284   2.444  13.957
   8823SM  H12T11796   1.417   2.563  13.948
   8823SM  C13S11797   1.461   2.380  14.056
   8823SM  H13S11798   1.571   2.401  14.054
   8823SM  H13T11799   1.447   2.271  14.043
   8823SM  C14S11800   1.401   2.424  14.190
   8823SM  H14S11801   1.292   2.402  14.189
   8823SM  H14T11802   1.414   2.533  14.201
   8823SM  C15S11803   1.464   2.353  14.309
   8823SM  H15S11804   1.574   2.367  14.302
   8823SM  H15T11805   1.443   2.244  14.305
   8823SM  C16S11806   1.418   2.409  14.443
   8823SM  H16S11807   1.312   2.382  14.462
   8823SM  H16T11808   1.425   2.520  14.440
   8823SM  C17S11809   1.507   2.357  14.555
   8823SM  H17S11810   1.613   2.365  14.522
   8823SM  H17T11811   1.485   2.250  14.573
   8823SM  C18S11812   1.494   2.435  14.685
   8823SM  H18S11813   1.391   2.424  14.726
   8823SM  H18T11814   1.514   2.543  14.668
   8823SM  H18U11815   1.567   2.397  14.759
   8823SM   C1F11816   1.669   2.314  12.959
   8823SM    OF11817   1.766   2.349  12.893
   8823SM   C2F11818   1.674   2.201  13.057
   8823SM   H2F11819   1.709   2.109  13.006
   8823SM   H2G11820   1.572   2.182  13.096
   8823SM   C3F11821   1.765   2.234  13.176
   8823SM   H3F11822   1.739   2.333  13.220
   8823SM   H3G11823   1.871   2.241  13.142
   8823SM   C4F11824   1.753   2.127  13.285
   8823SM   H4F11825   1.774   2.028  13.239
   8823SM   H4G11826   1.650   2.125  13.325
   8823SM   C5F11827   1.852   2.148  13.399
   8823SM   H5F11828   1.953   2.166  13.355
   8823SM   H5G11829   1.855   2.055  13.460
   8823SM   C6F11830   1.819   2.265  13.493
   8823SM   H6F11831   1.718   2.250  13.536
   8823SM   H6G11832   1.817   2.360  13.437
   8823SM   C7F11833   1.925   2.273  13.603
   8823SM   H7F11834   1.993   2.359  13.584
   8823SM   H7G11835   1.990   2.183  13.595
   8823SM   C8F11836   1.873   2.278  13.747
   8823SM   H8F11837   1.823   2.375  13.767
   8823SM   H8G11838   1.961   2.270  13.814
   8823SM   C9F11839   1.779   2.164  13.783
   8823SM   H9F11840   1.821   2.068  13.747
   8823SM   H9G11841   1.680   2.177  13.735
   8823SM  C10F11842   1.762   2.156  13.934
   8823SM  H10F11843   1.720   2.251  13.973
   8823SM  H10G11844   1.863   2.144  13.980
   8823SM  C11F11845   1.674   2.039  13.976
   8823SM  H11F11846   1.694   1.952  13.911
   8823SM  H11G11847   1.567   2.067  13.962
   8823SM  C12F11848   1.698   1.997  14.121
   8823SM  H12F11849   1.788   1.931  14.123
   8823SM  H12G11850   1.611   1.936  14.154
   8823SM  C13F11851   1.720   2.111  14.223
   8823SM  H13F11852   1.631   2.178  14.221
   8823SM  H13G11853   1.810   2.171  14.197
   8823SM  C14F11854   1.740   2.047  14.360
   8823SM  H14F11855   1.824   1.976  14.344
   8823SM  H14G11856   1.648   1.990  14.384
   8823SM  C15F11857   1.777   2.130  14.483
   8823SM  H15F11858   1.684   2.154  14.539
   8823SM  H15G11859   1.828   2.224  14.455
   8823SM  C16F11860   1.869   2.045  14.573
   8823SM  H16F11861   1.971   2.050  14.530
   8823SM  H16G11862   1.837   1.939  14.569
   8823SM  C17F11863   1.873   2.086  14.720
   8823SM  H17F11864   1.861   2.196  14.730
   8823SM  H17G11865   1.974   2.060  14.758
   8823SM  C18F11866   1.772   2.012  14.809
   8823SM  H18F11867   1.771   1.904  14.781
   8823SM  H18G11868   1.671   2.053  14.790
   8823SM  C19F11869   1.806   2.020  14.959
   8823SM  H19F11870   1.897   1.960  14.979
   8823SM  H19G11871   1.723   1.975  15.017
   8823SM  C20F11872   1.831   2.165  15.005
   8823SM  H20F11873   1.745   2.228  14.975
   8823SM  H20G11874   1.920   2.205  14.952
   8823SM  C21F11875   1.856   2.179  15.156
   8823SM  H21F11876   1.945   2.119  15.185
   8823SM  H21G11877   1.769   2.140  15.214
   8823SM  C22F11878   1.879   2.326  15.194
   8823SM  H22F11879   1.784   2.382  15.186
   8823SM  H22G11880   1.948   2.367  15.117
   8823SM  C23F11881   1.945   2.351  15.330
   8823SM  H23F11882   1.961   2.460  15.343
   8823SM  H23G11883   2.044   2.301  15.334
   8823SM  H23H11884   1.882   2.313  15.413
   8923SM     N11885   6.095   2.617  12.206
   8923SM   C1511886   6.028   2.716  12.115
   8923SM  H15A11887   5.921   2.714  12.127
   8923SM  H15B11888   6.050   2.693  12.012
   8923SM  H15C11889   6.061   2.817  12.134
   8923SM   C1411890   6.044   2.480  12.174
   8923SM  H14A11891   5.938   2.472  12.193
   8923SM  H14B11892   6.089   2.409  12.241
   8923SM  H14C11893   6.063   2.451  12.072
   8923SM   C1311894   6.243   2.618  12.183
   8923SM  H13A11895   6.290   2.543  12.246
   8923SM  H13B11896   6.287   2.713  12.206
   8923SM  H13C11897   6.267   2.595  12.081
   8923SM   C1211898   6.060   2.648  12.351
   8923SM  H12A11899   5.957   2.621  12.366
   8923SM  H12B11900   6.068   2.755  12.367
   8923SM   C1111901   6.140   2.575  12.462
   8923SM  H11A11902   6.113   2.617  12.561
   8923SM  H11B11903   6.249   2.594  12.450
   8923SM     P11904   5.981   2.372  12.510
   8923SM   O1311905   5.874   2.423  12.421
   8923SM   O1411906   5.995   2.226  12.524
   8923SM   O1111907   5.966   2.439  12.654
   8923SM   O1211908   6.118   2.434  12.459
   8923SM   C1S11909   6.069   2.413  12.751
   8923SM   H1S11910   6.166   2.455  12.717
   8923SM   H1T11911   6.083   2.305  12.768
   8923SM    NF11912   6.150   2.482  12.974
   8923SM   HNF11913   6.160   2.410  13.042
   8923SM   C2S11914   6.033   2.478  12.888
   8923SM   H2S11915   6.000   2.583  12.869
   8923SM   C3S11916   5.913   2.400  12.950
   8923SM   H3S11917   5.943   2.294  12.963
   8923SM    O311918   5.797   2.401  12.868
   8923SM   HO311919   5.831   2.415  12.779
   8923SM   C4S11920   5.874   2.459  13.083
   8923SM   H4S11921   5.846   2.565  13.076
   8923SM   C5S11922   5.867   2.395  13.201
   8923SM   H5S11923   5.890   2.287  13.206
   8923SM   C6S11924   5.826   2.460  13.330
   8923SM   H6S11925   5.849   2.569  13.329
   8923SM   H6T11926   5.883   2.415  13.414
   8923SM   C7S11927   5.676   2.446  13.361
   8923SM   H7S11928   5.648   2.339  13.365
   8923SM   H7T11929   5.618   2.493  13.279
   8923SM   C8S11930   5.637   2.512  13.495
   8923SM   H8S11931   5.535   2.556  13.483
   8923SM   H8T11932   5.707   2.595  13.519
   8923SM   C9S11933   5.630   2.412  13.611
   8923SM   H9S11934   5.731   2.370  13.631
   8923SM   H9T11935   5.565   2.328  13.580
   8923SM  C10S11936   5.571   2.471  13.740
   8923SM  H10S11937   5.545   2.387  13.808
   8923SM  H10T11938   5.477   2.525  13.716
   8923SM  C11S11939   5.666   2.565  13.815
   8923SM  H11S11940   5.690   2.652  13.749
   8923SM  H11T11941   5.761   2.513  13.838
   8923SM  C12S11942   5.603   2.618  13.945
   8923SM  H12S11943   5.499   2.652  13.929
   8923SM  H12T11944   5.661   2.708  13.975
   8923SM  C13S11945   5.613   2.520  14.063
   8923SM  H13S11946   5.714   2.474  14.059
   8923SM  H13T11947   5.539   2.438  14.050
   8923SM  C14S11948   5.597   2.587  14.200
   8923SM  H14S11949   5.489   2.605  14.221
   8923SM  H14T11950   5.647   2.686  14.200
   8923SM  C15S11951   5.660   2.502  14.311
   8923SM  H15S11952   5.763   2.473  14.281
   8923SM  H15T11953   5.601   2.409  14.322
   8923SM  C16S11954   5.666   2.570  14.448
   8923SM  H16S11955   5.564   2.602  14.477
   8923SM  H16T11956   5.730   2.661  14.442
   8923SM  C17S11957   5.722   2.474  14.554
   8923SM  H17S11958   5.827   2.448  14.528
   8923SM  H17T11959   5.662   2.380  14.551
   8923SM  C18S11960   5.716   2.532  14.695
   8923SM  H18S11961   5.748   2.457  14.770
   8923SM  H18T11962   5.611   2.561  14.717
   8923SM  H18U11963   5.780   2.622  14.704
   8923SM   C1F11964   6.252   2.565  12.950
   8923SM    OF11965   6.240   2.657  12.868
   8923SM   C2F11966   6.377   2.537  13.028
   8923SM   H2F11967   6.428   2.450  12.983
   8923SM   H2G11968   6.349   2.509  13.132
   8923SM   C3F11969   6.477   2.655  13.033
   8923SM   H3F11970   6.513   2.678  12.930
   8923SM   H3G11971   6.565   2.623  13.093
   8923SM   C4F11972   6.423   2.784  13.096
   8923SM   H4F11973   6.343   2.828  13.033
   8923SM   H4G11974   6.505   2.859  13.100
   8923SM   C5F11975   6.371   2.766  13.239
   8923SM   H5F11976   6.416   2.847  13.300
   8923SM   H5G11977   6.404   2.670  13.284
   8923SM   C6F11978   6.218   2.780  13.248
   8923SM   H6F11979   6.166   2.687  13.217
   8923SM   H6G11980   6.189   2.862  13.179
   8923SM   C7F11981   6.177   2.825  13.387
   8923SM   H7F11982   6.075   2.870  13.381
   8923SM   H7G11983   6.248   2.906  13.416
   8923SM   C8F11984   6.176   2.718  13.495
   8923SM   H8F11985   6.199   2.767  13.592
   8923SM   H8G11986   6.256   2.643  13.478
   8923SM   C9F11987   6.039   2.652  13.511
   8923SM   H9F11988   6.037   2.567  13.439
   8923SM   H9G11989   5.957   2.723  13.486
   8923SM  C10F11990   6.013   2.599  13.653
   8923SM  H10F11991   5.928   2.527  13.649
   8923SM  H10G11992   5.983   2.682  13.720
   8923SM  C11F11993   6.137   2.531  13.711
   8923SM  H11F11994   6.210   2.608  13.743
   8923SM  H11G11995   6.185   2.470  13.632
   8923SM  C12F11996   6.107   2.441  13.830
   8923SM  H12F11997   6.039   2.359  13.797
   8923SM  H12G11998   6.055   2.499  13.909
   8923SM  C13F11999   6.236   2.381  13.885
   8923SM  H13F12000   6.299   2.462  13.928
   8923SM  H13G12001   6.293   2.336  13.801
   8923SM  C14F12002   6.212   2.273  13.990
   8923SM  H14F12003   6.310   2.231  14.021
   8923SM  H14G12004   6.152   2.192  13.944
   8923SM  C15F12005   6.138   2.324  14.115
   8923SM  H15F12006   6.040   2.367  14.084
   8923SM  H15G12007   6.197   2.406  14.162
   8923SM  C16F12008   6.112   2.211  14.214
   8923SM  H16F12009   6.101   2.116  14.157
   8923SM  H16G12010   6.015   2.229  14.266
   8923SM  C17F12011   6.222   2.196  14.319
   8923SM  H17F12012   6.322   2.203  14.272
   8923SM  H17G12013   6.216   2.096  14.367
   8923SM  C18F12014   6.206   2.302  14.428
   8923SM  H18F12015   6.099   2.310  14.456
   8923SM  H18G12016   6.236   2.399  14.384
   8923SM  C19F12017   6.287   2.271  14.554
   8923SM  H19F12018   6.395   2.263  14.532
   8923SM  H19G12019   6.253   2.172  14.590
   8923SM  C20F12020   6.264   2.374  14.666
   8923SM  H20F12021   6.165   2.423  14.653
   8923SM  H20G12022   6.342   2.454  14.658
   8923SM  C21F12023   6.269   2.315  14.807
   8923SM  H21F12024   6.176   2.258  14.827
   8923SM  H21G12025   6.273   2.397  14.882
   8923SM  C22F12026   6.387   2.221  14.830
   8923SM  H22F12027   6.482   2.276  14.810
   8923SM  H22G12028   6.383   2.136  14.759
   8923SM  C23F12029   6.388   2.165  14.971
   8923SM  H23F12030   6.403   2.248  15.044
   8923SM  H23G12031   6.470   2.091  14.982
   8923SM  H23H12032   6.292   2.116  14.998
   9023SM     N12033   5.724   1.883  12.188
   9023SM   C1512034   5.805   1.762  12.153
   9023SM  H15A12035   5.911   1.782  12.161
   9023SM  H15B12036   5.784   1.730  12.052
   9023SM  H15C12037   5.781   1.680  12.219
   9023SM   C1412038   5.755   1.994  12.091
   9023SM  H14A12039   5.861   2.015  12.086
   9023SM  H14B12040   5.707   2.086  12.120
   9023SM  H14C12041   5.721   1.968  11.992
   9023SM   C1312042   5.579   1.847  12.173
   9023SM  H13A12043   5.554   1.772  12.246
   9023SM  H13B12044   5.556   1.810  12.074
   9023SM  H13C12045   5.515   1.932  12.195
   9023SM   C1212046   5.749   1.929  12.331
   9023SM  H12A12047   5.685   2.013  12.353
   9023SM  H12B12048   5.850   1.964  12.341
   9023SM   C1112049   5.717   1.826  12.442
   9023SM  H11A12050   5.756   1.865  12.539
   9023SM  H11B12051   5.772   1.731  12.423
   9023SM     P12052   5.483   1.900  12.528
   9023SM   O1312053   5.535   2.036  12.501
   9023SM   O1412054   5.341   1.876  12.491
   9023SM   O1112055   5.507   1.858  12.679
   9023SM   O1212056   5.577   1.798  12.449
   9023SM   C1S12057   5.544   1.724  12.713
   9023SM   H1S12058   5.622   1.684  12.646
   9023SM   H1T12059   5.456   1.656  12.705
   9023SM    NF12060   5.719   1.628  12.859
   9023SM   HNF12061   5.703   1.538  12.899
   9023SM   C2S12062   5.602   1.716  12.858
   9023SM   H2S12063   5.635   1.818  12.887
   9023SM   C3S12064   5.491   1.668  12.957
   9023SM   H3S12065   5.477   1.559  12.942
   9023SM    O312066   5.364   1.729  12.937
   9023SM   HO312067   5.375   1.789  12.863
   9023SM   C4S12068   5.541   1.687  13.100
   9023SM   H4S12069   5.607   1.607  13.135
   9023SM   C5S12070   5.513   1.788  13.185
   9023SM   H5S12071   5.444   1.868  13.152
   9023SM   C6S12072   5.566   1.803  13.326
   9023SM   H6S12073   5.519   1.891  13.374
   9023SM   H6T12074   5.675   1.827  13.319
   9023SM   C7S12075   5.553   1.685  13.425
   9023SM   H7S12076   5.629   1.700  13.505
   9023SM   H7T12077   5.577   1.588  13.376
   9023SM   C8S12078   5.416   1.677  13.495
   9023SM   H8S12079   5.343   1.637  13.422
   9023SM   H8T12080   5.382   1.778  13.524
   9023SM   C9S12081   5.420   1.587  13.619
   9023SM   H9S12082   5.486   1.500  13.601
   9023SM   H9T12083   5.317   1.547  13.635
   9023SM  C10S12084   5.461   1.658  13.750
   9023SM  H10S12085   5.394   1.745  13.766
   9023SM  H10T12086   5.565   1.696  13.744
   9023SM  C11S12087   5.446   1.561  13.867
   9023SM  H11S12088   5.523   1.481  13.861
   9023SM  H11T12089   5.348   1.512  13.849
   9023SM  C12S12090   5.437   1.618  14.009
   9023SM  H12S12091   5.362   1.559  14.066
   9023SM  H12T12092   5.402   1.724  14.008
   9023SM  C13S12093   5.569   1.605  14.084
   9023SM  H13S12094   5.632   1.689  14.047
   9023SM  H13T12095   5.619   1.510  14.057
   9023SM  C14S12096   5.555   1.611  14.237
   9023SM  H14S12097   5.459   1.661  14.263
   9023SM  H14T12098   5.635   1.676  14.277
   9023SM  C15S12099   5.565   1.475  14.308
   9023SM  H15S12100   5.530   1.395  14.238
   9023SM  H15T12101   5.495   1.477  14.395
   9023SM  C16S12102   5.706   1.440  14.361
   9023SM  H16S12103   5.749   1.530  14.411
   9023SM  H16T12104   5.771   1.417  14.274
   9023SM  C17S12105   5.709   1.322  14.460
   9023SM  H17S12106   5.793   1.255  14.433
   9023SM  H17T12107   5.616   1.263  14.450
   9023SM  C18S12108   5.726   1.362  14.608
   9023SM  H18S12109   5.715   1.274  14.674
   9023SM  H18T12110   5.649   1.437  14.637
   9023SM  H18U12111   5.826   1.406  14.625
   9023SM   C1F12112   5.837   1.658  12.803
   9023SM    OF12113   5.855   1.764  12.745
   9023SM   C2F12114   5.947   1.556  12.809
   9023SM   H2F12115   6.008   1.565  12.716
   9023SM   H2G12116   5.905   1.453  12.811
   9023SM   C3F12117   6.040   1.580  12.930
   9023SM   H3F12118   6.073   1.686  12.932
   9023SM   H3G12119   6.131   1.518  12.921
   9023SM   C4F12120   5.973   1.546  13.064
   9023SM   H4F12121   5.986   1.438  13.086
   9023SM   H4G12122   5.865   1.568  13.062
   9023SM   C5F12123   6.030   1.624  13.182
   9023SM   H5F12124   6.013   1.732  13.167
   9023SM   H5G12125   6.140   1.608  13.189
   9023SM   C6F12126   5.963   1.576  13.311
   9023SM   H6F12127   5.987   1.469  13.326
   9023SM   H6G12128   5.853   1.586  13.302
   9023SM   C7F12129   6.010   1.656  13.431
   9023SM   H7F12130   5.973   1.760  13.424
   9023SM   H7G12131   6.121   1.660  13.431
   9023SM   C8F12132   5.963   1.592  13.561
   9023SM   H8F12133   6.000   1.488  13.568
   9023SM   H8G12134   5.852   1.589  13.563
   9023SM   C9F12135   6.013   1.672  13.681
   9023SM   H9F12136   5.977   1.776  13.671
   9023SM   H9G12137   6.124   1.674  13.681
   9023SM  C10F12138   5.964   1.614  13.813
   9023SM  H10F12139   6.042   1.547  13.855
   9023SM  H10G12140   5.873   1.551  13.796
   9023SM  C11F12141   5.928   1.723  13.913
   9023SM  H11F12142   5.839   1.779  13.877
   9023SM  H11G12143   6.012   1.796  13.920
   9023SM  C12F12144   5.900   1.662  14.049
   9023SM  H12F12145   5.990   1.604  14.082
   9023SM  H12G12146   5.821   1.585  14.037
   9023SM  C13F12147   5.861   1.761  14.159
   9023SM  H13F12148   5.839   1.696  14.246
   9023SM  H13G12149   5.769   1.817  14.132
   9023SM  C14F12150   5.970   1.862  14.196
   9023SM  H14F12151   5.974   1.944  14.120
   9023SM  H14G12152   6.067   1.808  14.192
   9023SM  C15F12153   5.964   1.917  14.338
   9023SM  H15F12154   5.886   1.996  14.346
   9023SM  H15G12155   6.062   1.965  14.360
   9023SM  C16F12156   5.942   1.809  14.444
   9023SM  H16F12157   6.010   1.826  14.530
   9023SM  H16G12158   5.970   1.709  14.405
   9023SM  C17F12159   5.797   1.813  14.492
   9023SM  H17F12160   5.730   1.792  14.406
   9023SM  H17G12161   5.773   1.916  14.525
   9023SM  C18F12162   5.768   1.715  14.605
   9023SM  H18F12163   5.822   1.620  14.589
   9023SM  H18G12164   5.659   1.695  14.607
   9023SM  C19F12165   5.811   1.776  14.737
   9023SM  H19F12166   5.790   1.885  14.733
   9023SM  H19G12167   5.920   1.762  14.752
   9023SM  C20F12168   5.736   1.723  14.858
   9023SM  H20F12169   5.758   1.616  14.875
   9023SM  H20G12170   5.627   1.735  14.841
   9023SM  C21F12171   5.777   1.807  14.979
   9023SM  H21F12172   5.779   1.915  14.950
   9023SM  H21G12173   5.880   1.779  15.010
   9023SM  C22F12174   5.680   1.792  15.094
   9023SM  H22F12175   5.582   1.833  15.062
   9023SM  H22G12176   5.717   1.853  15.180
   9023SM  C23F12177   5.660   1.648  15.139
   9023SM  H23F12178   5.758   1.598  15.157
   9023SM  H23G12179   5.604   1.590  15.063
   9023SM  H23H12180   5.603   1.649  15.234
   9123SM     N12181   6.553   4.393  12.324
   9123SM   C1512182   6.632   4.267  12.303
   9123SM  H15A12183   6.738   4.288  12.314
   9123SM  H15B12184   6.615   4.225  12.205
   9123SM  H15C12185   6.609   4.194  12.379
   9123SM   C1412186   6.589   4.446  12.459
   9123SM  H14A12187   6.535   4.538  12.475
   9123SM  H14B12188   6.695   4.467  12.466
   9123SM  H14C12189   6.562   4.376  12.537
   9123SM   C1312190   6.591   4.497  12.223
   9123SM  H13A12191   6.545   4.591  12.251
   9123SM  H13B12192   6.555   4.471  12.124
   9123SM  H13C12193   6.698   4.512  12.219
   9123SM   C1212194   6.402   4.367  12.318
   9123SM  H12A12195   6.374   4.308  12.404
   9123SM  H12B12196   6.379   4.308  12.230
   9123SM   C1112197   6.306   4.489  12.315
   9123SM  H11A12198   6.202   4.450  12.309
   9123SM  H11B12199   6.324   4.547  12.222
   9123SM     P12200   6.337   4.723  12.430
   9123SM   O1312201   6.472   4.750  12.377
   9123SM   O1412202   6.223   4.790  12.363
   9123SM   O1112203   6.334   4.754  12.586
   9123SM   O1212204   6.317   4.567  12.433
   9123SM   C1S12205   6.425   4.675  12.664
   9123SM   H1S12206   6.530   4.696  12.632
   9123SM   H1T12207   6.407   4.566  12.653
   9123SM    NF12208   6.539   4.674  12.882
   9123SM   HNF12209   6.540   4.602  12.950
   9123SM   C2S12210   6.413   4.706  12.816
   9123SM   H2S12211   6.395   4.815  12.829
   9123SM   C3S12212   6.294   4.628  12.876
   9123SM   H3S12213   6.307   4.520  12.856
   9123SM    O312214   6.169   4.667  12.821
   9123SM   HO312215   6.190   4.706  12.736
   9123SM   C4S12216   6.289   4.652  13.024
   9123SM   H4S12217   6.245   4.749  13.052
   9123SM   C5S12218   6.333   4.567  13.119
   9123SM   H5S12219   6.375   4.470  13.089
   9123SM   C6S12220   6.329   4.591  13.267
   9123SM   H6S12221   6.432   4.594  13.308
   9123SM   H6T12222   6.278   4.505  13.315
   9123SM   C7S12223   6.258   4.721  13.309
   9123SM   H7S12224   6.155   4.725  13.266
   9123SM   H7T12225   6.314   4.809  13.271
   9123SM   C8S12226   6.245   4.736  13.461
   9123SM   H8S12227   6.191   4.831  13.483
   9123SM   H8T12228   6.347   4.746  13.504
   9123SM   C9S12229   6.171   4.619  13.528
   9123SM   H9S12230   6.235   4.529  13.524
   9123SM   H9T12231   6.078   4.598  13.472
   9123SM  C10S12232   6.137   4.646  13.674
   9123SM  H10S12233   6.083   4.558  13.716
   9123SM  H10T12234   6.069   4.734  13.681
   9123SM  C11S12235   6.262   4.674  13.759
   9123SM  H11S12236   6.312   4.766  13.720
   9123SM  H11T12237   6.333   4.589  13.750
   9123SM  C12S12238   6.228   4.700  13.905
   9123SM  H12S12239   6.137   4.762  13.906
   9123SM  H12T12240   6.311   4.755  13.954
   9123SM  C13S12241   6.196   4.575  13.986
   9123SM  H13S12242   6.281   4.505  13.987
   9123SM  H13T12243   6.109   4.525  13.937
   9123SM  C14S12244   6.154   4.612  14.129
   9123SM  H14S12245   6.108   4.521  14.173
   9123SM  H14T12246   6.076   4.691  14.129
   9123SM  C15S12247   6.268   4.649  14.223
   9123SM  H15S12248   6.308   4.750  14.198
   9123SM  H15T12249   6.350   4.576  14.206
   9123SM  C16S12250   6.227   4.641  14.370
   9123SM  H16S12251   6.176   4.543  14.384
   9123SM  H16T12252   6.157   4.723  14.396
   9123SM  C17S12253   6.346   4.641  14.465
   9123SM  H17S12254   6.398   4.739  14.459
   9123SM  H17T12255   6.413   4.564  14.421
   9123SM  C18S12256   6.321   4.603  14.611
   9123SM  H18S12257   6.269   4.505  14.618
   9123SM  H18T12258   6.260   4.680  14.663
   9123SM  H18U12259   6.417   4.595  14.666
   9123SM   C1F12260   6.649   4.744  12.859
   9123SM    OF12261   6.646   4.850  12.797
   9123SM   C2F12262   6.775   4.688  12.914
   9123SM   H2F12263   6.851   4.685  12.833
   9123SM   H2G12264   6.759   4.584  12.950
   9123SM   C3F12265   6.824   4.777  13.029
   9123SM   H3F12266   6.848   4.878  12.988
   9123SM   H3G12267   6.918   4.733  13.066
   9123SM   C4F12268   6.731   4.786  13.151
   9123SM   H4F12269   6.700   4.684  13.179
   9123SM   H4G12270   6.639   4.844  13.128
   9123SM   C5F12271   6.805   4.847  13.271
   9123SM   H5F12272   6.840   4.951  13.253
   9123SM   H5G12273   6.896   4.786  13.288
   9123SM   C6F12274   6.723   4.848  13.400
   9123SM   H6F12275   6.632   4.785  13.387
   9123SM   H6G12276   6.689   4.951  13.424
   9123SM   C7F12277   6.808   4.793  13.514
   9123SM   H7F12278   6.903   4.850  13.517
   9123SM   H7G12279   6.834   4.687  13.493
   9123SM   C8F12280   6.741   4.803  13.652
   9123SM   H8F12281   6.725   4.910  13.676
   9123SM   H8G12282   6.811   4.761  13.727
   9123SM   C9F12283   6.605   4.733  13.662
   9123SM   H9F12284   6.530   4.795  13.607
   9123SM   H9G12285   6.574   4.733  13.769
   9123SM  C10F12286   6.599   4.589  13.606
   9123SM  H10F12287   6.612   4.593  13.495
   9123SM  H10G12288   6.497   4.549  13.624
   9123SM  C11F12289   6.702   4.491  13.664
   9123SM  H11F12290   6.802   4.513  13.621
   9123SM  H11G12291   6.675   4.388  13.630
   9123SM  C12F12292   6.715   4.492  13.817
   9123SM  H12F12293   6.760   4.589  13.847
   9123SM  H12G12294   6.786   4.412  13.846
   9123SM  C13F12295   6.582   4.471  13.891
   9123SM  H13F12296   6.543   4.370  13.867
   9123SM  H13G12297   6.508   4.546  13.856
   9123SM  C14F12298   6.594   4.488  14.044
   9123SM  H14F12299   6.662   4.408  14.082
   9123SM  H14G12300   6.493   4.470  14.087
   9123SM  C15F12301   6.645   4.626  14.089
   9123SM  H15F12302   6.591   4.706  14.034
   9123SM  H15G12303   6.753   4.634  14.061
   9123SM  C16F12304   6.634   4.652  14.241
   9123SM  H16F12305   6.533   4.694  14.263
   9123SM  H16G12306   6.708   4.729  14.270
   9123SM  C17F12307   6.654   4.524  14.323
   9123SM  H17F12308   6.748   4.477  14.288
   9123SM  H17G12309   6.571   4.455  14.299
   9123SM  C18F12310   6.657   4.539  14.476
   9123SM  H18F12311   6.598   4.627  14.509
   9123SM  H18G12312   6.761   4.559  14.509
   9123SM  C19F12313   6.602   4.410  14.541
   9123SM  H19F12314   6.644   4.320  14.491
   9123SM  H19G12315   6.492   4.403  14.523
   9123SM  C20F12316   6.627   4.397  14.691
   9123SM  H20F12317   6.584   4.485  14.743
   9123SM  H20G12318   6.737   4.397  14.712
   9123SM  C21F12319   6.565   4.267  14.745
   9123SM  H21F12320   6.630   4.183  14.715
   9123SM  H21G12321   6.466   4.251  14.697
   9123SM  C22F12322   6.544   4.267  14.897
   9123SM  H22F12323   6.638   4.299  14.947
   9123SM  H22G12324   6.523   4.163  14.929
   9123SM  C23F12325   6.427   4.356  14.939
   9123SM  H23F12326   6.443   4.460  14.902
   9123SM  H23G12327   6.418   4.360  15.050
   9123SM  H23H12328   6.332   4.319  14.897
   9223SM     N12329   5.308   1.177  12.171
   9223SM   C1512330   5.220   1.056  12.180
   9223SM  H15A12331   5.146   1.055  12.102
   9223SM  H15B12332   5.168   1.057  12.275
   9223SM  H15C12333   5.277   0.964  12.176
   9223SM   C1412334   5.401   1.176  12.289
   9223SM  H14A12335   5.476   1.254  12.282
   9223SM  H14B12336   5.452   1.082  12.303
   9223SM  H14C12337   5.344   1.197  12.378
   9223SM   C1312338   5.385   1.178  12.043
   9223SM  H13A12339   5.447   1.267  12.037
   9223SM  H13B12340   5.319   1.183  11.957
   9223SM  H13C12341   5.449   1.092  12.033
   9223SM   C1212342   5.222   1.302  12.178
   9223SM  H12A12343   5.166   1.311  12.086
   9223SM  H12B12344   5.286   1.389  12.183
   9223SM   C1112345   5.122   1.313  12.294
   9223SM  H11A12346   5.052   1.227  12.289
   9223SM  H11B12347   5.062   1.405  12.276
   9223SM     P12348   5.083   1.328  12.543
   9223SM   O1312349   5.001   1.449  12.518
   9223SM   O1412350   5.016   1.196  12.548
   9223SM   O1112351   5.171   1.350  12.674
   9223SM   O1212352   5.188   1.320  12.423
   9223SM   C1S12353   5.106   1.401  12.792
   9223SM   H1S12354   4.998   1.423  12.777
   9223SM   H1T12355   5.153   1.497  12.822
   9223SM    NF12356   5.026   1.345  13.019
   9223SM   HNF12357   5.068   1.393  13.097
   9223SM   C2S12358   5.115   1.303  12.912
   9223SM   H2S12359   5.082   1.203  12.877
   9223SM   C3S12360   5.262   1.292  12.961
   9223SM   H3S12361   5.296   1.393  12.994
   9223SM    O312362   5.357   1.250  12.863
   9223SM   HO312363   5.308   1.256  12.781
   9223SM   C4S12364   5.267   1.198  13.079
   9223SM   H4S12365   5.240   1.094  13.057
   9223SM   C5S12366   5.301   1.235  13.205
   9223SM   H5S12367   5.328   1.340  13.224
   9223SM   C6S12368   5.306   1.145  13.326
   9223SM   H6S12369   5.411   1.115  13.346
   9223SM   H6T12370   5.248   1.052  13.312
   9223SM   C7S12371   5.253   1.218  13.452
   9223SM   H7S12372   5.143   1.223  13.448
   9223SM   H7T12373   5.292   1.322  13.455
   9223SM   C8S12374   5.297   1.150  13.583
   9223SM   H8S12375   5.408   1.148  13.584
   9223SM   H8T12376   5.261   1.045  13.587
   9223SM   C9S12377   5.247   1.226  13.707
   9223SM   H9S12378   5.143   1.197  13.732
   9223SM   H9T12379   5.243   1.333  13.678
   9223SM  C10S12380   5.341   1.216  13.829
   9223SM  H10S12381   5.345   1.318  13.872
   9223SM  H10T12382   5.444   1.190  13.798
   9223SM  C11S12383   5.294   1.128  13.946
   9223SM  H11S12384   5.310   1.021  13.923
   9223SM  H11T12385   5.185   1.145  13.963
   9223SM  C12S12386   5.370   1.169  14.074
   9223SM  H12S12387   5.363   1.279  14.084
   9223SM  H12T12388   5.477   1.144  14.063
   9223SM  C13S12389   5.316   1.108  14.205
   9223SM  H13S12390   5.344   1.001  14.211
   9223SM  H13T12391   5.205   1.116  14.206
   9223SM  C14S12392   5.373   1.186  14.325
   9223SM  H14S12393   5.346   1.293  14.313
   9223SM  H14T12394   5.484   1.179  14.320
   9223SM  C15S12395   5.326   1.141  14.464
   9223SM  H15S12396   5.385   1.052  14.494
   9223SM  H15T12397   5.219   1.111  14.460
   9223SM  C16S12398   5.343   1.252  14.569
   9223SM  H16S12399   5.256   1.322  14.563
   9223SM  H16T12400   5.433   1.312  14.544
   9223SM  C17S12401   5.360   1.201  14.712
   9223SM  H17S12402   5.439   1.123  14.713
   9223SM  H17T12403   5.265   1.153  14.745
   9223SM  C18S12404   5.399   1.311  14.811
   9223SM  H18S12405   5.500   1.350  14.789
   9223SM  H18T12406   5.398   1.273  14.915
   9223SM  H18U12407   5.328   1.397  14.804
   9223SM   C1F12408   4.895   1.323  13.019
   9223SM    OF12409   4.841   1.266  12.926
   9223SM   C2F12410   4.821   1.368  13.141
   9223SM   H2F12411   4.712   1.371  13.120
   9223SM   H2G12412   4.854   1.472  13.164
   9223SM   C3F12413   4.850   1.271  13.258
   9223SM   H3F12414   4.954   1.233  13.253
   9223SM   H3G12415   4.782   1.184  13.248
   9223SM   C4F12416   4.835   1.334  13.398
   9223SM   H4F12417   4.857   1.255  13.473
   9223SM   H4G12418   4.730   1.367  13.413
   9223SM   C5F12419   4.931   1.451  13.421
   9223SM   H5F12420   4.893   1.540  13.366
   9223SM   H5G12421   5.031   1.426  13.379
   9223SM   C6F12422   4.948   1.487  13.569
   9223SM   H6F12423   5.006   1.408  13.621
   9223SM   H6G12424   4.847   1.489  13.615
   9223SM   C7F12425   5.016   1.624  13.589
   9223SM   H7F12426   4.989   1.691  13.504
   9223SM   H7G12427   5.126   1.609  13.584
   9223SM   C8F12428   4.977   1.696  13.719
   9223SM   H8F12429   4.879   1.746  13.705
   9223SM   H8G12430   5.052   1.776  13.739
   9223SM   C9F12431   4.966   1.606  13.843
   9223SM   H9F12432   4.900   1.519  13.823
   9223SM   H9G12433   4.920   1.662  13.927
   9223SM  C10F12434   5.103   1.558  13.885
   9223SM  H10F12435   5.163   1.644  13.920
   9223SM  H10G12436   5.152   1.516  13.794
   9223SM  C11F12437   5.100   1.449  13.991
   9223SM  H11F12438   5.205   1.418  14.011
   9223SM  H11G12439   5.047   1.359  13.950
   9223SM  C12F12440   5.037   1.492  14.123
   9223SM  H12F12441   4.926   1.487  14.116
   9223SM  H12G12442   5.065   1.597  14.145
   9223SM  C13F12443   5.089   1.402  14.234
   9223SM  H13F12444   5.199   1.419  14.244
   9223SM  H13G12445   5.073   1.296  14.204
   9223SM  C14F12446   5.023   1.423  14.370
   9223SM  H14F12447   5.061   1.344  14.438
   9223SM  H14G12448   4.914   1.411  14.358
   9223SM  C15F12449   5.051   1.560  14.432
   9223SM  H15F12450   5.015   1.639  14.363
   9223SM  H15G12451   5.161   1.574  14.445
   9223SM  C16F12452   4.980   1.573  14.567
   9223SM  H16F12453   4.874   1.545  14.555
   9223SM  H16G12454   4.983   1.679  14.601
   9223SM  C17F12455   5.045   1.489  14.676
   9223SM  H17F12456   5.148   1.525  14.692
   9223SM  H17G12457   5.050   1.382  14.646
   9223SM  C18F12458   4.966   1.499  14.806
   9223SM  H18F12459   4.863   1.459  14.794
   9223SM  H18G12460   4.957   1.606  14.832
   9223SM  C19F12461   5.038   1.426  14.919
   9223SM  H19F12462   5.147   1.436  14.905
   9223SM  H19G12463   5.014   1.317  14.916
   9223SM  C20F12464   5.002   1.486  15.054
   9223SM  H20F12465   4.894   1.472  15.076
   9223SM  H20G12466   5.021   1.596  15.048
   9223SM  C21F12467   5.086   1.428  15.167
   9223SM  H21F12468   5.098   1.319  15.149
   9223SM  H21G12469   5.036   1.440  15.265
   9223SM  C22F12470   5.223   1.495  15.173
   9223SM  H22F12471   5.252   1.535  15.074
   9223SM  H22G12472   5.294   1.413  15.196
   9223SM  C23F12473   5.234   1.605  15.279
   9223SM  H23F12474   5.211   1.565  15.380
   9223SM  H23G12475   5.165   1.689  15.256
   9223SM  H23H12476   5.337   1.648  15.280
   9323SM     N12477   6.826   3.751  12.221
   9323SM   C1512478   6.738   3.682  12.320
   9323SM  H15A12479   6.774   3.581  12.339
   9323SM  H15B12480   6.636   3.675  12.285
   9323SM  H15C12481   6.737   3.738  12.412
   9323SM   C1412482   6.828   3.674  12.092
   9323SM  H14A12483   6.871   3.576  12.107
   9323SM  H14B12484   6.886   3.724  12.016
   9323SM  H14C12485   6.729   3.657  12.053
   9323SM   C1312486   6.773   3.889  12.200
   9323SM  H13A12487   6.777   3.941  12.294
   9323SM  H13B12488   6.671   3.893  12.165
   9323SM  H13C12489   6.835   3.946  12.132
   9323SM   C1212490   6.968   3.762  12.277
   9323SM  H12A12491   7.028   3.821  12.210
   9323SM  H12B12492   7.013   3.664  12.280
   9323SM   C1112493   6.987   3.825  12.418
   9323SM  H11A12494   7.096   3.820  12.444
   9323SM  H11B12495   6.937   3.761  12.494
   9323SM     P12496   6.850   4.013  12.538
   9323SM   O1312497   6.853   4.160  12.544
   9323SM   O1412498   6.716   3.952  12.516
   9323SM   O1112499   6.915   3.949  12.667
   9323SM   O1212500   6.946   3.962  12.421
   9323SM   C1S12501   6.981   4.028  12.766
   9323SM   H1S12502   6.906   4.096  12.813
   9323SM   H1T12503   7.061   4.092  12.721
   9323SM    NF12504   6.970   3.826  12.916
   9323SM   HNF12505   6.918   3.831  13.001
   9323SM   C2S12506   7.047   3.945  12.882
   9323SM   H2S12507   7.147   3.912  12.849
   9323SM   C3S12508   7.061   4.035  13.008
   9323SM   H3S12509   6.961   4.074  13.034
   9323SM    O312510   7.144   4.150  12.993
   9323SM   HO312511   7.191   4.141  12.909
   9323SM   C4S12512   7.111   3.950  13.123
   9323SM   H4S12513   7.211   3.907  13.108
   9323SM   C5S12514   7.043   3.922  13.236
   9323SM   H5S12515   6.944   3.967  13.252
   9323SM   C6S12516   7.092   3.833  13.347
   9323SM   H6S12517   7.201   3.810  13.337
   9323SM   H6T12518   7.039   3.735  13.338
   9323SM   C7S12519   7.066   3.883  13.490
   9323SM   H7S12520   6.967   3.931  13.498
   9323SM   H7T12521   7.142   3.960  13.517
   9323SM   C8S12522   7.070   3.766  13.590
   9323SM   H8S12523   7.171   3.721  13.587
   9323SM   H8T12524   6.997   3.689  13.558
   9323SM   C9S12525   7.039   3.803  13.736
   9323SM   H9S12526   7.057   3.713  13.799
   9323SM   H9T12527   6.932   3.832  13.747
   9323SM  C10S12528   7.129   3.917  13.784
   9323SM  H10S12529   7.090   4.013  13.743
   9323SM  H10T12530   7.230   3.900  13.741
   9323SM  C11S12531   7.143   3.928  13.935
   9323SM  H11S12532   7.141   3.828  13.983
   9323SM  H11T12533   7.058   3.987  13.975
   9323SM  C12S12534   7.276   3.996  13.968
   9323SM  H12S12535   7.289   4.084  13.901
   9323SM  H12T12536   7.360   3.927  13.948
   9323SM  C13S12537   7.282   4.045  14.112
   9323SM  H13S12538   7.284   3.957  14.180
   9323SM  H13T12539   7.187   4.100  14.132
   9323SM  C14S12540   7.399   4.139  14.142
   9323SM  H14S12541   7.402   4.219  14.065
   9323SM  H14T12542   7.493   4.081  14.134
   9323SM  C15S12543   7.389   4.204  14.281
   9323SM  H15S12544   7.486   4.255  14.302
   9323SM  H15T12545   7.311   4.283  14.280
   9323SM  C16S12546   7.359   4.103  14.393
   9323SM  H16S12547   7.406   4.141  14.487
   9323SM  H16T12548   7.407   4.006  14.369
   9323SM  C17S12549   7.210   4.084  14.420
   9323SM  H17S12550   7.152   4.066  14.326
   9323SM  H17T12551   7.170   4.181  14.458
   9323SM  C18S12552   7.175   3.970  14.515
   9323SM  H18S12553   7.065   3.969  14.530
   9323SM  H18T12554   7.223   3.984  14.615
   9323SM  H18U12555   7.207   3.873  14.473
   9323SM   C1F12556   6.960   3.715  12.845
   9323SM    OF12557   7.042   3.682  12.761
   9323SM   C2F12558   6.843   3.628  12.881
   9323SM   H2F12559   6.878   3.522  12.887
   9323SM   H2G12560   6.768   3.635  12.800
   9323SM   C3F12561   6.778   3.670  13.016
   9323SM   H3F12562   6.746   3.776  13.012
   9323SM   H3G12563   6.851   3.657  13.099
   9323SM   C4F12564   6.653   3.589  13.049
   9323SM   H4F12565   6.679   3.482  13.065
   9323SM   H4G12566   6.584   3.595  12.961
   9323SM   C5F12567   6.576   3.641  13.171
   9323SM   H5F12568   6.469   3.616  13.158
   9323SM   H5G12569   6.583   3.752  13.176
   9323SM   C6F12570   6.620   3.576  13.303
   9323SM   H6F12571   6.679   3.484  13.283
   9323SM   H6G12572   6.529   3.545  13.358
   9323SM   C7F12573   6.700   3.671  13.393
   9323SM   H7F12574   6.783   3.716  13.334
   9323SM   H7G12575   6.747   3.613  13.476
   9323SM   C8F12576   6.612   3.782  13.453
   9323SM   H8F12577   6.553   3.738  13.537
   9323SM   H8G12578   6.540   3.818  13.377
   9323SM   C9F12579   6.695   3.901  13.502
   9323SM   H9F12580   6.754   3.940  13.417
   9323SM   H9G12581   6.766   3.866  13.579
   9323SM  C10F12582   6.610   4.016  13.558
   9323SM  H10F12583   6.544   4.055  13.478
   9323SM  H10G12584   6.678   4.098  13.588
   9323SM  C11F12585   6.523   3.978  13.679
   9323SM  H11F12586   6.441   3.911  13.648
   9323SM  H11G12587   6.478   4.070  13.720
   9323SM  C12F12588   6.603   3.908  13.790
   9323SM  H12F12589   6.702   3.958  13.801
   9323SM  H12G12590   6.624   3.803  13.759
   9323SM  C13F12591   6.529   3.908  13.924
   9323SM  H13F12592   6.559   3.818  13.982
   9323SM  H13G12593   6.420   3.899  13.904
   9323SM  C14F12594   6.557   4.035  14.006
   9323SM  H14F12595   6.484   4.041  14.089
   9323SM  H14G12596   6.542   4.125  13.942
   9323SM  C15F12597   6.699   4.040  14.067
   9323SM  H15F12598   6.714   4.139  14.114
   9323SM  H15G12599   6.776   4.029  13.988
   9323SM  C16F12600   6.718   3.932  14.174
   9323SM  H16F12601   6.698   3.831  14.132
   9323SM  H16G12602   6.642   3.951  14.252
   9323SM  C17F12603   6.858   3.928  14.235
   9323SM  H17F12604   6.886   4.030  14.269
   9323SM  H17G12605   6.933   3.896  14.159
   9323SM  C18F12606   6.865   3.836  14.358
   9323SM  H18F12607   6.969   3.835  14.396
   9323SM  H18G12608   6.840   3.731  14.329
   9323SM  C19F12609   6.767   3.885  14.466
   9323SM  H19F12610   6.667   3.843  14.445
   9323SM  H19G12611   6.758   3.995  14.458
   9323SM  C20F12612   6.807   3.851  14.609
   9323SM  H20F12613   6.907   3.891  14.634
   9323SM  H20G12614   6.814   3.740  14.618
   9323SM  C21F12615   6.704   3.909  14.707
   9323SM  H21F12616   6.616   3.946  14.649
   9323SM  H21G12617   6.748   3.997  14.758
   9323SM  C22F12618   6.653   3.809  14.810
   9323SM  H22F12619   6.580   3.861  14.876
   9323SM  H22G12620   6.739   3.780  14.873
   9323SM  C23F12621   6.587   3.684  14.751
   9323SM  H23F12622   6.544   3.620  14.831
   9323SM  H23G12623   6.660   3.623  14.695
   9323SM  H23H12624   6.505   3.713  14.681
   9423SM     N12625   5.193   6.698  12.195
   9423SM   C1512626   5.055   6.711  12.252
   9423SM  H15A12627   5.054   6.689  12.358
   9423SM  H15B12628   4.984   6.647  12.203
   9423SM  H15C12629   5.017   6.812  12.241
   9423SM   C1412630   5.240   6.557  12.215
   9423SM  H14A12631   5.164   6.486  12.186
   9423SM  H14B12632   5.261   6.543  12.320
   9423SM  H14C12633   5.331   6.538  12.161
   9423SM   C1312634   5.187   6.728  12.048
   9423SM  H13A12635   5.150   6.828  12.031
   9423SM  H13B12636   5.118   6.662  11.998
   9423SM  H13C12637   5.283   6.718  12.001
   9423SM   C1212638   5.287   6.793  12.268
   9423SM  H12A12639   5.255   6.894  12.248
   9423SM  H12B12640   5.386   6.782  12.226
   9423SM   C1112641   5.301   6.777  12.422
   9423SM  H11A12642   5.203   6.797  12.469
   9423SM  H11B12643   5.370   6.856  12.460
   9423SM     P12644   5.480   6.608  12.526
   9423SM   O1312645   5.532   6.489  12.456
   9423SM   O1412646   5.568   6.725  12.532
   9423SM   O1112647   5.433   6.567  12.673
   9423SM   O1212648   5.344   6.646  12.456
   9423SM   C1S12649   5.294   6.578  12.709
   9423SM   H1S12650   5.236   6.497  12.659
   9423SM   H1T12651   5.250   6.674  12.676
   9423SM    NF12652   5.325   6.688  12.926
   9423SM   HNF12653   5.419   6.684  12.960
   9423SM   C2S12654   5.271   6.568  12.863
   9423SM   H2S12655   5.162   6.565  12.880
   9423SM   C3S12656   5.332   6.436  12.920
   9423SM   H3S12657   5.442   6.436  12.904
   9423SM    O312658   5.280   6.319  12.855
   9423SM   HO312659   5.247   6.352  12.771
   9423SM   C4S12660   5.301   6.428  13.067
   9423SM   H4S12661   5.194   6.414  13.090
   9423SM   C5S12662   5.389   6.435  13.168
   9423SM   H5S12663   5.496   6.446  13.149
   9423SM   C6S12664   5.346   6.426  13.313
   9423SM   H6S12665   5.254   6.485  13.330
   9423SM   H6T12666   5.424   6.469  13.380
   9423SM   C7S12667   5.318   6.281  13.354
   9423SM   H7S12668   5.411   6.220  13.351
   9423SM   H7T12669   5.246   6.236  13.282
   9423SM   C8S12670   5.254   6.270  13.492
   9423SM   H8S12671   5.198   6.175  13.500
   9423SM   H8T12672   5.182   6.354  13.504
   9423SM   C9S12673   5.350   6.279  13.610
   9423SM   H9S12674   5.415   6.368  13.601
   9423SM   H9T12675   5.416   6.189  13.612
   9423SM  C10S12676   5.270   6.287  13.740
   9423SM  H10S12677   5.207   6.196  13.750
   9423SM  H10T12678   5.202   6.374  13.737
   9423SM  C11S12679   5.360   6.299  13.862
   9423SM  H11S12680   5.417   6.395  13.856
   9423SM  H11T12681   5.435   6.216  13.861
   9423SM  C12S12682   5.282   6.293  13.993
   9423SM  H12S12683   5.235   6.193  14.003
   9423SM  H12T12684   5.201   6.369  13.993
   9423SM  C13S12685   5.378   6.320  14.107
   9423SM  H13S12686   5.408   6.427  14.102
   9423SM  H13T12687   5.469   6.257  14.092
   9423SM  C14S12688   5.323   6.293  14.246
   9423SM  H14S12689   5.279   6.191  14.252
   9423SM  H14T12690   5.244   6.367  14.270
   9423SM  C15S12691   5.439   6.301  14.344
   9423SM  H15S12692   5.493   6.396  14.327
   9423SM  H15T12693   5.508   6.216  14.323
   9423SM  C16S12694   5.395   6.296  14.488
   9423SM  H16S12695   5.318   6.217  14.503
   9423SM  H16T12696   5.350   6.394  14.515
   9423SM  C17S12697   5.512   6.268  14.581
   9423SM  H17S12698   5.592   6.344  14.566
   9423SM  H17T12699   5.554   6.169  14.556
   9423SM  C18S12700   5.463   6.271  14.724
   9423SM  H18S12701   5.545   6.258  14.798
   9423SM  H18T12702   5.388   6.190  14.737
   9423SM  H18U12703   5.412   6.367  14.745
   9423SM   C1F12704   5.264   6.804  12.908
   9423SM    OF12705   5.145   6.807  12.877
   9423SM   C2F12706   5.345   6.930  12.917
   9423SM   H2F12707   5.327   6.988  12.824
   9423SM   H2G12708   5.453   6.906  12.922
   9423SM   C3F12709   5.305   7.018  13.038
   9423SM   H3F12710   5.194   7.019  13.047
   9423SM   H3G12711   5.338   7.122  13.015
   9423SM   C4F12712   5.370   6.977  13.171
   9423SM   H4F12713   5.479   6.965  13.155
   9423SM   H4G12714   5.330   6.878  13.203
   9423SM   C5F12715   5.347   7.081  13.281
   9423SM   H5F12716   5.238   7.087  13.301
   9423SM   H5G12717   5.381   7.181  13.246
   9423SM   C6F12718   5.418   7.047  13.413
   9423SM   H6F12719   5.500   7.119  13.432
   9423SM   H6G12720   5.463   6.946  13.404
   9423SM   C7F12721   5.319   7.050  13.531
   9423SM   H7F12722   5.229   6.992  13.500
   9423SM   H7G12723   5.286   7.154  13.550
   9423SM   C8F12724   5.371   6.988  13.661
   9423SM   H8F12725   5.283   6.977  13.728
   9423SM   H8G12726   5.442   7.057  13.711
   9423SM   C9F12727   5.438   6.850  13.647
   9423SM   H9F12728   5.546   6.865  13.625
   9423SM   H9G12729   5.395   6.796  13.560
   9423SM  C10F12730   5.422   6.760  13.771
   9423SM  H10F12731   5.492   6.674  13.762
   9423SM  H10G12732   5.320   6.717  13.771
   9423SM  C11F12733   5.447   6.833  13.903
   9423SM  H11F12734   5.385   6.925  13.911
   9423SM  H11G12735   5.554   6.865  13.905
   9423SM  C12F12736   5.416   6.748  14.027
   9423SM  H12F12737   5.466   6.650  14.013
   9423SM  H12G12738   5.307   6.728  14.035
   9423SM  C13F12739   5.468   6.816  14.154
   9423SM  H13F12740   5.407   6.905  14.180
   9423SM  H13G12741   5.570   6.855  14.132
   9423SM  C14F12742   5.481   6.721  14.274
   9423SM  H14F12743   5.523   6.624  14.239
   9423SM  H14G12744   5.382   6.698  14.320
   9423SM  C15F12745   5.579   6.775  14.379
   9423SM  H15F12746   5.526   6.847  14.445
   9423SM  H15G12747   5.659   6.831  14.326
   9423SM  C16F12748   5.649   6.666  14.460
   9423SM  H16F12749   5.754   6.664  14.426
   9423SM  H16G12750   5.605   6.565  14.440
   9423SM  C17F12751   5.648   6.693  14.610
   9423SM  H17F12752   5.657   6.803  14.624
   9423SM  H17G12753   5.738   6.646  14.656
   9423SM  C18F12754   5.524   6.642  14.683
   9423SM  H18F12755   5.530   6.531  14.683
   9423SM  H18G12756   5.432   6.670  14.628
   9423SM  C19F12757   5.518   6.694  14.827
   9423SM  H19F12758   5.620   6.694  14.870
   9423SM  H19G12759   5.456   6.626  14.889
   9423SM  C20F12760   5.457   6.835  14.832
   9423SM  H20F12761   5.347   6.825  14.828
   9423SM  H20G12762   5.487   6.889  14.739
   9423SM  C21F12763   5.499   6.924  14.951
   9423SM  H21F12764   5.609   6.931  14.956
   9423SM  H21G12765   5.468   6.879  15.047
   9423SM  C22F12766   5.442   7.066  14.936
   9423SM  H22F12767   5.334   7.066  14.962
   9423SM  H22G12768   5.450   7.095  14.829
   9423SM  C23F12769   5.510   7.173  15.020
   9423SM  H23F12770   5.467   7.273  14.999
   9423SM  H23G12771   5.619   7.177  14.996
   9423SM  H23H12772   5.499   7.151  15.129
   9523SM     N12773   1.155   1.700  12.170
   9523SM   C1512774   1.018   1.756  12.143
   9523SM  H15A12775   1.018   1.864  12.150
   9523SM  H15B12776   0.946   1.719  12.214
   9523SM  H15C12777   0.984   1.728  12.045
   9523SM   C1412778   1.148   1.551  12.159
   9523SM  H14A12779   1.246   1.506  12.174
   9523SM  H14B12780   1.112   1.522  12.061
   9523SM  H14C12781   1.081   1.510  12.233
   9523SM   C1312782   1.247   1.751  12.063
   9523SM  H13A12783   1.342   1.700  12.068
   9523SM  H13B12784   1.263   1.857  12.074
   9523SM  H13C12785   1.204   1.732  11.966
   9523SM   C1212786   1.205   1.743  12.305
   9523SM  H12A12787   1.202   1.851  12.312
   9523SM  H12B12788   1.309   1.718  12.318
   9523SM   C1112789   1.131   1.690  12.428
   9523SM  H11A12790   1.157   1.583  12.449
   9523SM  H11B12791   1.021   1.696  12.413
   9523SM     P12792   1.309   1.771  12.603
   9523SM   O1312793   1.410   1.783  12.494
   9523SM   O1412794   1.310   1.873  12.710
   9523SM   O1112795   1.311   1.624  12.661
   9523SM   O1212796   1.166   1.774  12.536
   9523SM   C1S12797   1.399   1.586  12.768
   9523SM   H1S12798   1.478   1.662  12.786
   9523SM   H1T12799   1.452   1.492  12.741
   9523SM    NF12800   1.416   1.534  13.010
   9523SM   HNF12801   1.417   1.444  13.053
   9523SM   C2S12802   1.322   1.561  12.902
   9523SM   H2S12803   1.268   1.655  12.926
   9523SM   C3S12804   1.218   1.446  12.887
   9523SM   H3S12805   1.272   1.350  12.878
   9523SM    O312806   1.137   1.454  12.770
   9523SM   HO312807   1.181   1.521  12.717
   9523SM   C4S12808   1.127   1.443  13.007
   9523SM   H4S12809   1.060   1.531  13.014
   9523SM   C5S12810   1.121   1.350  13.103
   9523SM   H5S12811   1.192   1.266  13.103
   9523SM   C6S12812   1.028   1.353  13.221
   9523SM   H6S12813   0.997   1.249  13.246
   9523SM   H6T12814   0.935   1.410  13.200
   9523SM   C7S12815   1.094   1.414  13.346
   9523SM   H7S12816   1.116   1.521  13.331
   9523SM   H7T12817   1.192   1.363  13.362
   9523SM   C8S12818   1.009   1.396  13.474
   9523SM   H8S12819   0.981   1.289  13.483
   9523SM   H8T12820   0.916   1.456  13.465
   9523SM   C9S12821   1.085   1.436  13.601
   9523SM   H9S12822   1.133   1.535  13.588
   9523SM   H9T12823   1.167   1.362  13.614
   9523SM  C10S12824   1.001   1.435  13.730
   9523SM  H10S12825   0.920   1.359  13.721
   9523SM  H10T12826   0.953   1.534  13.743
   9523SM  C11S12827   1.088   1.400  13.851
   9523SM  H11S12828   1.185   1.455  13.843
   9523SM  H11T12829   1.110   1.291  13.846
   9523SM  C12S12830   1.027   1.432  13.987
   9523SM  H12S12831   0.928   1.382  13.997
   9523SM  H12T12832   1.011   1.541  13.997
   9523SM  C13S12833   1.119   1.384  14.100
   9523SM  H13S12834   1.215   1.439  14.094
   9523SM  H13T12835   1.142   1.276  14.085
   9523SM  C14S12836   1.058   1.404  14.239
   9523SM  H14S12837   0.971   1.336  14.252
   9523SM  H14T12838   1.021   1.509  14.246
   9523SM  C15S12839   1.159   1.381  14.352
   9523SM  H15S12840   1.113   1.416  14.446
   9523SM  H15T12841   1.250   1.442  14.333
   9523SM  C16S12842   1.201   1.234  14.367
   9523SM  H16S12843   1.238   1.194  14.270
   9523SM  H16T12844   1.112   1.174  14.396
   9523SM  C17S12845   1.311   1.215  14.472
   9523SM  H17S12846   1.404   1.263  14.436
   9523SM  H17T12847   1.331   1.106  14.484
   9523SM  C18S12848   1.274   1.275  14.608
   9523SM  H18S12849   1.181   1.226  14.645
   9523SM  H18T12850   1.256   1.384  14.601
   9523SM  H18U12851   1.356   1.259  14.681
   9523SM   C1F12852   1.501   1.628  13.051
   9523SM    OF12853   1.484   1.745  13.022
   9523SM   C2F12854   1.619   1.585  13.132
   9523SM   H2F12855   1.667   1.676  13.174
   9523SM   H2G12856   1.693   1.535  13.065
   9523SM   C3F12857   1.583   1.488  13.246
   9523SM   H3F12858   1.552   1.389  13.208
   9523SM   H3G12859   1.499   1.529  13.307
   9523SM   C4F12860   1.704   1.471  13.338
   9523SM   H4F12861   1.735   1.571  13.373
   9523SM   H4G12862   1.789   1.427  13.282
   9523SM   C5F12863   1.675   1.384  13.461
   9523SM   H5F12864   1.666   1.278  13.431
   9523SM   H5G12865   1.578   1.415  13.506
   9523SM   C6F12866   1.786   1.403  13.563
   9523SM   H6F12867   1.794   1.511  13.588
   9523SM   H6G12868   1.883   1.371  13.519
   9523SM   C7F12869   1.761   1.327  13.692
   9523SM   H7F12870   1.770   1.217  13.673
   9523SM   H7G12871   1.657   1.347  13.725
   9523SM   C8F12872   1.857   1.371  13.802
   9523SM   H8F12873   1.848   1.480  13.818
   9523SM   H8G12874   1.962   1.351  13.774
   9523SM   C9F12875   1.824   1.298  13.931
   9523SM   H9F12876   1.915   1.294  13.996
   9523SM   H9G12877   1.793   1.194  13.910
   9523SM  C10F12878   1.713   1.369  14.007
   9523SM  H10F12879   1.616   1.364  13.953
   9523SM  H10G12880   1.736   1.478  14.015
   9523SM  C11F12881   1.702   1.309  14.146
   9523SM  H11F12882   1.738   1.203  14.142
   9523SM  H11G12883   1.597   1.307  14.181
   9523SM  C12F12884   1.786   1.392  14.241
   9523SM  H12F12885   1.871   1.438  14.185
   9523SM  H12G12886   1.832   1.335  14.324
   9523SM  C13F12887   1.695   1.498  14.298
   9523SM  H13F12888   1.628   1.453  14.375
   9523SM  H13G12889   1.630   1.537  14.217
   9523SM  C14F12890   1.774   1.613  14.355
   9523SM  H14F12891   1.855   1.641  14.285
   9523SM  H14G12892   1.822   1.584  14.451
   9523SM  C15F12893   1.683   1.733  14.372
   9523SM  H15F12894   1.652   1.769  14.271
   9523SM  H15G12895   1.745   1.809  14.423
   9523SM  C16F12896   1.557   1.711  14.456
   9523SM  H16F12897   1.498   1.625  14.419
   9523SM  H16G12898   1.492   1.801  14.450
   9523SM  C17F12899   1.598   1.689  14.601
   9523SM  H17F12900   1.649   1.780  14.639
   9523SM  H17G12901   1.672   1.606  14.606
   9523SM  C18F12902   1.482   1.653  14.694
   9523SM  H18F12903   1.532   1.619  14.788
   9523SM  H18G12904   1.425   1.567  14.653
   9523SM  C19F12905   1.389   1.771  14.722
   9523SM  H19F12906   1.328   1.794  14.632
   9523SM  H19G12907   1.452   1.860  14.742
   9523SM  C20F12908   1.296   1.747  14.843
   9523SM  H20F12909   1.222   1.669  14.816
   9523SM  H20G12910   1.240   1.841  14.864
   9523SM  C21F12911   1.371   1.703  14.970
   9523SM  H21F12912   1.452   1.777  14.992
   9523SM  H21G12913   1.419   1.605  14.952
   9523SM  C22F12914   1.282   1.686  15.092
   9523SM  H22F12915   1.202   1.613  15.066
   9523SM  H22G12916   1.232   1.782  15.117
   9523SM  C23F12917   1.360   1.633  15.213
   9523SM  H23F12918   1.291   1.608  15.297
   9523SM  H23G12919   1.433   1.709  15.248
   9523SM  H23H12920   1.416   1.541  15.185
   9623SM     N12921   2.628   0.362  12.249
   9623SM   C1512922   2.753   0.430  12.200
   9623SM  H15A12923   2.763   0.424  12.093
   9623SM  H15B12924   2.838   0.383  12.246
   9623SM  H15C12925   2.755   0.534  12.231
   9623SM   C1412926   2.508   0.428  12.189
   9623SM  H14A12927   2.417   0.377  12.217
   9623SM  H14B12928   2.515   0.429  12.081
   9623SM  H14C12929   2.501   0.531  12.220
   9623SM   C1312930   2.635   0.217  12.208
   9623SM  H13A12931   2.719   0.172  12.258
   9623SM  H13B12932   2.649   0.205  12.102
   9623SM  H13C12933   2.547   0.162  12.239
   9623SM   C1212934   2.625   0.369  12.400
   9623SM  H12A12935   2.556   0.294  12.436
   9623SM  H12B12936   2.586   0.465  12.430
   9623SM   C1112937   2.759   0.348  12.474
   9623SM  H11A12938   2.735   0.336  12.582
   9623SM  H11B12939   2.821   0.441  12.466
   9623SM     P12940   2.885   0.116  12.501
   9623SM   O1312941   2.800  -0.000  12.468
   9623SM   O1412942   3.030   0.104  12.475
   9623SM   O1112943   2.866   0.158  12.651
   9623SM   O1212944   2.833   0.239  12.420
   9623SM   C1S12945   2.796   0.073  12.742
   9623SM   H1S12946   2.838  -0.030  12.737
   9623SM   H1T12947   2.688   0.068  12.717
   9623SM    NF12948   2.748   0.035  12.987
   9623SM   HNF12949   2.672   0.071  13.040
   9623SM   C2S12950   2.808   0.126  12.889
   9623SM   H2S12951   2.916   0.135  12.914
   9623SM   C3S12952   2.745   0.269  12.895
   9623SM   H3S12953   2.642   0.265  12.853
   9623SM    O312954   2.815   0.367  12.819
   9623SM   HO312955   2.871   0.315  12.761
   9623SM   C4S12956   2.738   0.313  13.038
   9623SM   H4S12957   2.834   0.345  13.081
   9623SM   C5S12958   2.626   0.315  13.112
   9623SM   H5S12959   2.531   0.279  13.070
   9623SM   C6S12960   2.621   0.356  13.257
   9623SM   H6S12961   2.546   0.435  13.275
   9623SM   H6T12962   2.720   0.394  13.291
   9623SM   C7S12963   2.587   0.230  13.339
   9623SM   H7S12964   2.644   0.143  13.301
   9623SM   H7T12965   2.479   0.206  13.328
   9623SM   C8S12966   2.623   0.244  13.487
   9623SM   H8S12967   2.727   0.280  13.496
   9623SM   H8T12968   2.618   0.144  13.536
   9623SM   C9S12969   2.530   0.338  13.563
   9623SM   H9S12970   2.432   0.288  13.583
   9623SM   H9T12971   2.509   0.427  13.499
   9623SM  C10S12972   2.593   0.388  13.693
   9623SM  H10S12973   2.524   0.466  13.730
   9623SM  H10T12974   2.693   0.433  13.673
   9623SM  C11S12975   2.603   0.285  13.806
   9623SM  H11S12976   2.665   0.198  13.775
   9623SM  H11T12977   2.499   0.249  13.822
   9623SM  C12S12978   2.659   0.345  13.937
   9623SM  H12S12979   2.628   0.451  13.944
   9623SM  H12T12980   2.770   0.342  13.936
   9623SM  C13S12981   2.603   0.271  14.059
   9623SM  H13S12982   2.653   0.172  14.070
   9623SM  H13T12983   2.494   0.256  14.039
   9623SM  C14S12984   2.609   0.338  14.195
   9623SM  H14S12985   2.555   0.435  14.188
   9623SM  H14T12986   2.714   0.359  14.225
   9623SM  C15S12987   2.540   0.249  14.300
   9623SM  H15S12988   2.601   0.160  14.323
   9623SM  H15T12989   2.444   0.215  14.258
   9623SM  C16S12990   2.509   0.330  14.426
   9623SM  H16S12991   2.456   0.418  14.385
   9623SM  H16T12992   2.603   0.364  14.475
   9623SM  C17S12993   2.416   0.264  14.528
   9623SM  H17S12994   2.326   0.227  14.473
   9623SM  H17T12995   2.381   0.341  14.599
   9623SM  C18S12996   2.481   0.151  14.607
   9623SM  H18S12997   2.419   0.121  14.694
   9623SM  H18T12998   2.581   0.185  14.643
   9623SM  H18U12999   2.498   0.061  14.544
   9623SM   C1F13000   2.788  -0.089  13.013
   9623SM    OF13001   2.848  -0.155  12.929
   9623SM   C2F13002   2.745  -0.151  13.143
   9623SM   H2F13003   2.670  -0.228  13.118
   9623SM   H2G13004   2.695  -0.074  13.206
   9623SM   C3F13005   2.862  -0.216  13.223
   9623SM   H3F13006   2.902  -0.142  13.295
   9623SM   H3G13007   2.947  -0.240  13.156
   9623SM   C4F13008   2.821  -0.346  13.296
   9623SM   H4F13009   2.875  -0.431  13.251
   9623SM   H4G13010   2.712  -0.364  13.280
   9623SM   C5F13011   2.850  -0.349  13.447
   9623SM   H5F13012   2.829  -0.248  13.489
   9623SM   H5G13013   2.959  -0.366  13.461
   9623SM   C6F13014   2.767  -0.459  13.518
   9623SM   H6F13015   2.797  -0.558  13.477
   9623SM   H6G13016   2.660  -0.442  13.491
   9623SM   C7F13017   2.778  -0.463  13.672
   9623SM   H7F13018   2.804  -0.361  13.708
   9623SM   H7G13019   2.862  -0.529  13.701
   9623SM   C8F13020   2.647  -0.508  13.743
   9623SM   H8F13021   2.621  -0.611  13.712
   9623SM   H8G13022   2.564  -0.441  13.712
   9623SM   C9F13023   2.660  -0.500  13.896
   9623SM   H9F13024   2.730  -0.416  13.917
   9623SM   H9G13025   2.708  -0.594  13.930
   9623SM  C10F13026   2.532  -0.474  13.981
   9623SM  H10F13027   2.496  -0.571  14.022
   9623SM  H10G13028   2.452  -0.434  13.916
   9623SM  C11F13029   2.555  -0.374  14.098
   9623SM  H11F13030   2.497  -0.282  14.075
   9623SM  H11G13031   2.662  -0.343  14.100
   9623SM  C12F13032   2.517  -0.420  14.240
   9623SM  H12F13033   2.558  -0.522  14.256
   9623SM  H12G13034   2.407  -0.429  14.250
   9623SM  C13F13035   2.568  -0.328  14.354
   9623SM  H13F13036   2.545  -0.221  14.336
   9623SM  H13G13037   2.679  -0.330  14.357
   9623SM  C14F13038   2.509  -0.366  14.492
   9623SM  H14F13039   2.494  -0.476  14.495
   9623SM  H14G13040   2.409  -0.320  14.502
   9623SM  C15F13041   2.598  -0.325  14.611
   9623SM  H15F13042   2.694  -0.283  14.574
   9623SM  H15G13043   2.623  -0.417  14.669
   9623SM  C16F13044   2.531  -0.224  14.704
   9623SM  H16F13045   2.436  -0.269  14.741
   9623SM  H16G13046   2.503  -0.134  14.646
   9623SM  C17F13047   2.615  -0.184  14.826
   9623SM  H17F13048   2.661  -0.274  14.873
   9623SM  H17G13049   2.546  -0.139  14.901
   9623SM  C18F13050   2.725  -0.082  14.794
   9623SM  H18F13051   2.683   0.000  14.731
   9623SM  H18G13052   2.802  -0.132  14.731
   9623SM  C19F13053   2.792  -0.021  14.918
   9623SM  H19F13054   2.883   0.035  14.889
   9623SM  H19G13055   2.825  -0.105  14.984
   9623SM  C20F13056   2.703   0.076  14.997
   9623SM  H20F13057   2.746   0.092  15.098
   9623SM  H20G13058   2.603   0.029  15.011
   9623SM  C21F13059   2.684   0.212  14.929
   9623SM  H21F13060   2.670   0.197  14.820
   9623SM  H21G13061   2.777   0.271  14.940
   9623SM  C22F13062   2.564   0.292  14.982
   9623SM  H22F13063   2.471   0.243  14.949
   9623SM  H22G13064   2.567   0.393  14.935
   9623SM  C23F13065   2.560   0.309  15.134
   9623SM  H23F13066   2.662   0.305  15.177
   9623SM  H23G13067   2.500   0.227  15.181
   9623SM  H23H13068   2.514   0.406  15.163
   9723SM     N13069   4.270   7.577  12.205
   9723SM   C1513070   4.124   7.610  12.214
   9723SM  H15A13071   4.085   7.648  12.121
   9723SM  H15B13072   4.110   7.686  12.289
   9723SM  H15C13073   4.066   7.524  12.243
   9723SM   C1413074   4.291   7.465  12.109
   9723SM  H14A13075   4.247   7.374  12.145
   9723SM  H14B13076   4.397   7.447  12.094
   9723SM  H14C13077   4.250   7.489  12.012
   9723SM   C1313078   4.345   7.697  12.155
   9723SM  H13A13079   4.309   7.728  12.058
   9723SM  H13B13080   4.450   7.676  12.147
   9723SM  H13C13081   4.333   7.780  12.224
   9723SM   C1213082   4.324   7.541  12.343
   9723SM  H12A13083   4.427   7.570  12.348
   9723SM  H12B13084   4.323   7.433  12.353
   9723SM   C1113085   4.251   7.599  12.467
   9723SM  H11A13086   4.309   7.572  12.558
   9723SM  H11B13087   4.154   7.547  12.477
   9723SM     P13088   4.333   7.844  12.509
   9723SM   O1313089   4.468   7.803  12.464
   9723SM   O1413090   4.285   7.979  12.473
   9723SM   O1113091   4.326   7.824  12.667
   9723SM   O1213092   4.227   7.739  12.457
   9723SM   C1S13093   4.194   7.808  12.721
   9723SM   H1S13094   4.149   7.712  12.687
   9723SM   H1T13095   4.127   7.891  12.689
   9723SM    NF13096   4.243   7.930  12.926
   9723SM   HNF13097   4.342   7.934  12.932
   9723SM   C2S13098   4.191   7.804  12.876
   9723SM   H2S13099   4.084   7.794  12.906
   9723SM   C3S13100   4.269   7.684  12.935
   9723SM   H3S13101   4.378   7.697  12.915
   9723SM    O313102   4.237   7.554  12.886
   9723SM   HO313103   4.164   7.567  12.824
   9723SM   C4S13104   4.246   7.686  13.084
   9723SM   H4S13105   4.149   7.645  13.115
   9723SM   C5S13106   4.333   7.733  13.175
   9723SM   H5S13107   4.431   7.769  13.141
   9723SM   C6S13108   4.309   7.737  13.324
   9723SM   H6S13109   4.245   7.652  13.357
   9723SM   H6T13110   4.255   7.830  13.351
   9723SM   C7S13111   4.441   7.733  13.403
   9723SM   H7S13112   4.511   7.812  13.369
   9723SM   H7T13113   4.490   7.635  13.382
   9723SM   C8S13114   4.421   7.744  13.555
   9723SM   H8S13115   4.496   7.677  13.601
   9723SM   H8T13116   4.321   7.705  13.584
   9723SM   C9S13117   4.442   7.885  13.614
   9723SM   H9S13118   4.354   7.948  13.590
   9723SM   H9T13119   4.532   7.932  13.569
   9723SM  C10S13120   4.462   7.879  13.767
   9723SM  H10S13121   4.555   7.823  13.791
   9723SM  H10T13122   4.376   7.822  13.810
   9723SM  C11S13123   4.472   8.014  13.839
   9723SM  H11S13124   4.408   8.087  13.784
   9723SM  H11T13125   4.576   8.053  13.835
   9723SM  C12S13126   4.421   8.009  13.984
   9723SM  H12S13127   4.325   7.954  13.988
   9723SM  H12T13128   4.402   8.113  14.018
   9723SM  C13S13129   4.519   7.945  14.084
   9723SM  H13S13130   4.617   7.997  14.075
   9723SM  H13T13131   4.535   7.838  14.060
   9723SM  C14S13132   4.468   7.959  14.229
   9723SM  H14S13133   4.382   7.892  14.246
   9723SM  H14T13134   4.433   8.064  14.243
   9723SM  C15S13135   4.577   7.932  14.333
   9723SM  H15S13136   4.668   7.990  14.305
   9723SM  H15T13137   4.604   7.824  14.332
   9723SM  C16S13138   4.536   7.973  14.475
   9723SM  H16S13139   4.449   7.912  14.508
   9723SM  H16T13140   4.504   8.080  14.473
   9723SM  C17S13141   4.650   7.958  14.576
   9723SM  H17S13142   4.738   8.014  14.539
   9723SM  H17T13143   4.679   7.851  14.583
   9723SM  C18S13144   4.613   8.008  14.715
   9723SM  H18S13145   4.567   8.108  14.707
   9723SM  H18T13146   4.704   8.016  14.780
   9723SM  H18U13147   4.541   7.940  14.765
   9723SM   C1F13148   4.170   8.040  12.929
   9723SM    OF13149   4.058   8.044  12.880
   9723SM   C2F13150   4.230   8.157  12.998
   9723SM   H2F13151   4.199   8.250  12.946
   9723SM   H2G13152   4.341   8.149  12.992
   9723SM   C3F13153   4.182   8.156  13.144
   9723SM   H3F13154   4.203   8.056  13.189
   9723SM   H3G13155   4.071   8.168  13.145
   9723SM   C4F13156   4.244   8.262  13.236
   9723SM   H4F13157   4.191   8.358  13.224
   9723SM   H4G13158   4.351   8.277  13.211
   9723SM   C5F13159   4.234   8.220  13.384
   9723SM   H5F13160   4.289   8.293  13.448
   9723SM   H5G13161   4.281   8.121  13.397
   9723SM   C6F13162   4.088   8.212  13.434
   9723SM   H6F13163   4.022   8.175  13.353
   9723SM   H6G13164   4.053   8.314  13.460
   9723SM   C7F13165   4.071   8.117  13.553
   9723SM   H7F13166   4.104   8.015  13.525
   9723SM   H7G13167   3.963   8.112  13.578
   9723SM   C8F13168   4.148   8.163  13.677
   9723SM   H8F13169   4.111   8.263  13.706
   9723SM   H8G13170   4.256   8.175  13.651
   9723SM   C9F13171   4.137   8.068  13.797
   9723SM   H9F13172   4.188   8.116  13.883
   9723SM   H9G13173   4.191   7.974  13.773
   9723SM  C10F13174   3.994   8.030  13.838
   9723SM  H10F13175   3.945   7.978  13.753
   9723SM  H10G13176   3.935   8.120  13.862
   9723SM  C11F13177   3.995   7.935  13.958
   9723SM  H11F13178   4.070   7.855  13.940
   9723SM  H11G13179   3.896   7.885  13.967
   9723SM  C12F13180   4.025   8.004  14.091
   9723SM  H12F13181   3.938   8.067  14.119
   9723SM  H12G13182   4.113   8.072  14.082
   9723SM  C13F13183   4.053   7.903  14.202
   9723SM  H13F13184   4.155   7.860  14.190
   9723SM  H13G13185   3.980   7.819  14.192
   9723SM  C14F13186   4.038   7.962  14.343
   9723SM  H14F13187   3.939   8.012  14.347
   9723SM  H14G13188   4.115   8.040  14.362
   9723SM  C15F13189   4.042   7.853  14.451
   9723SM  H15F13190   3.998   7.759  14.412
   9723SM  H15G13191   3.976   7.888  14.534
   9723SM  C16F13192   4.183   7.827  14.507
   9723SM  H16F13193   4.225   7.922  14.546
   9723SM  H16G13194   4.248   7.793  14.423
   9723SM  C17F13195   4.186   7.721  14.618
   9723SM  H17F13196   4.143   7.626  14.579
   9723SM  H17G13197   4.123   7.754  14.703
   9723SM  C18F13198   4.329   7.693  14.669
   9723SM  H18F13199   4.373   7.787  14.712
   9723SM  H18G13200   4.390   7.666  14.581
   9723SM  C19F13201   4.341   7.579  14.772
   9723SM  H19F13202   4.440   7.531  14.755
   9723SM  H19G13203   4.264   7.501  14.752
   9723SM  C20F13204   4.339   7.622  14.919
   9723SM  H20F13205   4.389   7.721  14.929
   9723SM  H20G13206   4.400   7.551  14.979
   9723SM  C21F13207   4.198   7.624  14.979
   9723SM  H21F13208   4.181   7.531  15.039
   9723SM  H21G13209   4.125   7.621  14.894
   9723SM  C22F13210   4.164   7.747  15.064
   9723SM  H22F13211   4.223   7.745  15.158
   9723SM  H22G13212   4.057   7.742  15.093
   9723SM  C23F13213   4.189   7.877  14.990
   9723SM  H23F13214   4.289   7.920  15.015
   9723SM  H23G13215   4.111   7.952  15.016
   9723SM  H23H13216   4.185   7.862  14.880
   9823SM     N13217   6.546   7.489  12.290
   9823SM   C1513218   6.574   7.633  12.320
   9823SM  H15A13219   6.506   7.670  12.395
   9823SM  H15B13220   6.563   7.694  12.231
   9823SM  H15C13221   6.674   7.646  12.358
   9823SM   C1413222   6.406   7.475  12.241
   9823SM  H14A13223   6.391   7.532  12.151
   9823SM  H14B13224   6.335   7.509  12.315
   9823SM  H14C13225   6.384   7.371  12.219
   9823SM   C1313226   6.641   7.442  12.184
   9823SM  H13A13227   6.638   7.503  12.095
   9823SM  H13B13228   6.621   7.339  12.156
   9823SM  H13C13229   6.742   7.441  12.222
   9823SM   C1213230   6.564   7.406  12.417
   9823SM  H12A13231   6.533   7.305  12.397
   9823SM  H12B13232   6.499   7.444  12.495
   9823SM   C1113233   6.708   7.394  12.474
   9823SM  H11A13234   6.702   7.351  12.577
   9823SM  H11B13235   6.754   7.495  12.485
   9823SM     P13236   6.762   7.158  12.379
   9823SM   O1313237   6.620   7.137  12.343
   9823SM   O1413238   6.861   7.101  12.285
   9823SM   O1113239   6.789   7.107  12.528
   9823SM   O1213240   6.790   7.314  12.390
   9823SM   C1S13241   6.910   7.143  12.597
   9823SM   H1S13242   6.964   7.227  12.548
   9823SM   H1T13243   6.980   7.056  12.596
   9823SM    NF13244   7.006   7.241  12.804
   9823SM   HNF13245   7.049   7.195  12.880
   9823SM   C2S13246   6.885   7.183  12.747
   9823SM   H2S13247   6.805   7.260  12.750
   9823SM   C3S13248   6.835   7.058  12.826
   9823SM   H3S13249   6.912   6.978  12.817
   9823SM    O313250   6.714   7.004  12.774
   9823SM   HO313251   6.709   7.040  12.685
   9823SM   C4S13252   6.812   7.088  12.973
   9823SM   H4S13253   6.740   7.169  12.992
   9823SM   C5S13254   6.867   7.023  13.079
   9823SM   H5S13255   6.933   6.936  13.062
   9823SM   C6S13256   6.838   7.053  13.225
   9823SM   H6S13257   6.781   6.967  13.266
   9823SM   H6T13258   6.770   7.141  13.233
   9823SM   C7S13259   6.949   7.073  13.332
   9823SM   H7S13260   6.901   7.127  13.418
   9823SM   H7T13261   7.024   7.143  13.289
   9823SM   C8S13262   7.012   6.944  13.388
   9823SM   H8S13263   7.062   6.890  13.305
   9823SM   H8T13264   6.932   6.877  13.425
   9823SM   C9S13265   7.116   6.960  13.503
   9823SM   H9S13266   7.206   7.011  13.464
   9823SM   H9T13267   7.148   6.858  13.532
   9823SM  C10S13268   7.066   7.031  13.631
   9823SM  H10S13269   6.984   6.967  13.670
   9823SM  H10T13270   7.023   7.131  13.607
   9823SM  C11S13271   7.166   7.046  13.750
   9823SM  H11S13272   7.248   7.116  13.724
   9823SM  H11T13273   7.209   6.946  13.771
   9823SM  C12S13274   7.091   7.093  13.876
   9823SM  H12S13275   7.011   7.018  13.889
   9823SM  H12T13276   7.044   7.192  13.856
   9823SM  C13S13277   7.165   7.100  14.012
   9823SM  H13S13278   7.239   7.182  14.011
   9823SM  H13T13279   7.219   7.005  14.030
   9823SM  C14S13280   7.063   7.123  14.127
   9823SM  H14S13281   6.996   7.035  14.135
   9823SM  H14T13282   7.001   7.211  14.098
   9823SM  C15S13283   7.117   7.154  14.268
   9823SM  H15S13284   7.035   7.192  14.332
   9823SM  H15T13285   7.191   7.237  14.256
   9823SM  C16S13286   7.186   7.038  14.338
   9823SM  H16S13287   7.249   6.988  14.261
   9823SM  H16T13288   7.109   6.967  14.375
   9823SM  C17S13289   7.286   7.073  14.449
   9823SM  H17S13290   7.353   7.153  14.412
   9823SM  H17T13291   7.348   6.982  14.463
   9823SM  C18S13292   7.231   7.110  14.587
   9823SM  H18S13293   7.307   7.168  14.644
   9823SM  H18T13294   7.210   7.019  14.646
   9823SM  H18U13295   7.139   7.171  14.579
   9823SM   C1F13296   7.060   7.354  12.756
   9823SM    OF13297   6.993   7.433  12.691
   9823SM   C2F13298   7.207   7.372  12.782
   9823SM   H2F13299   7.262   7.315  12.704
   9823SM   H2G13300   7.227   7.325  12.881
   9823SM   C3F13301   7.259   7.517  12.786
   9823SM   H3F13302   7.208   7.579  12.708
   9823SM   H3G13303   7.367   7.515  12.759
   9823SM   C4F13304   7.250   7.585  12.924
   9823SM   H4F13305   7.291   7.688  12.913
   9823SM   H4G13306   7.314   7.532  12.997
   9823SM   C5F13307   7.107   7.594  12.980
   9823SM   H5F13308   7.078   7.495  13.020
   9823SM   H5G13309   7.037   7.620  12.897
   9823SM   C6F13310   7.093   7.701  13.089
   9823SM   H6F13311   7.111   7.800  13.042
   9823SM   H6G13312   7.172   7.687  13.166
   9823SM   C7F13313   6.953   7.704  13.153
   9823SM   H7F13314   6.877   7.701  13.072
   9823SM   H7G13315   6.940   7.800  13.206
   9823SM   C8F13316   6.926   7.591  13.254
   9823SM   H8F13317   6.934   7.492  13.203
   9823SM   H8G13318   6.821   7.601  13.291
   9823SM   C9F13319   7.022   7.595  13.374
   9823SM   H9F13320   7.019   7.697  13.417
   9823SM   H9G13321   7.125   7.577  13.336
   9823SM  C10F13322   6.992   7.492  13.484
   9823SM  H10F13323   7.082   7.483  13.548
   9823SM  H10G13324   6.969   7.393  13.441
   9823SM  C11F13325   6.880   7.539  13.575
   9823SM  H11F13326   6.783   7.529  13.521
   9823SM  H11G13327   6.897   7.647  13.594
   9823SM  C12F13328   6.873   7.471  13.713
   9823SM  H12F13329   6.890   7.549  13.790
   9823SM  H12G13330   6.953   7.395  13.723
   9823SM  C13F13331   6.737   7.406  13.741
   9823SM  H13F13332   6.728   7.314  13.679
   9823SM  H13G13333   6.653   7.472  13.710
   9823SM  C14F13334   6.716   7.371  13.889
   9823SM  H14F13335   6.801   7.308  13.922
   9823SM  H14G13336   6.622   7.311  13.896
   9823SM  C15F13337   6.704   7.490  13.984
   9823SM  H15F13338   6.650   7.571  13.930
   9823SM  H15G13339   6.805   7.529  14.010
   9823SM  C16F13340   6.625   7.457  14.113
   9823SM  H16F13341   6.529   7.412  14.081
   9823SM  H16G13342   6.602   7.550  14.169
   9823SM  C17F13343   6.698   7.358  14.206
   9823SM  H17F13344   6.762   7.293  14.143
   9823SM  H17G13345   6.624   7.294  14.257
   9823SM  C18F13346   6.788   7.424  14.311
   9823SM  H18F13347   6.843   7.509  14.266
   9823SM  H18G13348   6.863   7.349  14.343
   9823SM  C19F13349   6.711   7.469  14.436
   9823SM  H19F13350   6.660   7.381  14.481
   9823SM  H19G13351   6.633   7.543  14.408
   9823SM  C20F13352   6.805   7.531  14.542
   9823SM  H20F13353   6.854   7.620  14.498
   9823SM  H20G13354   6.884   7.457  14.566
   9823SM  C21F13355   6.730   7.572  14.670
   9823SM  H21F13356   6.677   7.484  14.712
   9823SM  H21G13357   6.653   7.646  14.642
   9823SM  C22F13358   6.821   7.633  14.777
   9823SM  H22F13359   6.758   7.679  14.855
   9823SM  H22G13360   6.881   7.714  14.731
   9823SM  C23F13361   6.916   7.533  14.845
   9823SM  H23F13362   6.858   7.455  14.899
   9823SM  H23G13363   6.982   7.585  14.918
   9823SM  H23H13364   6.980   7.482  14.770
   9923SM     N13365   0.529   7.164  12.232
   9923SM   C1513366   0.507   7.020  12.265
   9923SM  H15A13367   0.573   6.989  12.345
   9923SM  H15B13368   0.526   6.957  12.180
   9923SM  H15C13369   0.406   7.004  12.300
   9923SM   C1413370   0.672   7.185  12.195
   9923SM  H14A13371   0.691   7.287  12.166
   9923SM  H14B13372   0.704   7.120  12.114
   9923SM  H14C13373   0.735   7.166  12.281
   9923SM   C1313374   0.442   7.205  12.119
   9923SM  H13A13375   0.459   7.309  12.096
   9923SM  H13B13376   0.337   7.194  12.143
   9923SM  H13C13377   0.464   7.149  12.029
   9923SM   C1213378   0.495   7.250  12.352
   9923SM  H12A13379   0.391   7.234  12.378
   9923SM  H12B13380   0.503   7.354  12.323
   9923SM   C1113381   0.579   7.235  12.480
   9923SM  H11A13382   0.580   7.128  12.511
   9923SM  H11B13383   0.527   7.291  12.560
   9923SM     P13384   0.747   7.434  12.478
   9923SM   O1313385   0.885   7.452  12.427
   9923SM   O1413386   0.639   7.517  12.421
   9923SM   O1113387   0.752   7.457  12.635
   9923SM   O1213388   0.712   7.280  12.461
   9923SM   C1S13389   0.805   7.356  12.723
   9923SM   H1S13390   0.912   7.377  12.743
   9923SM   H1T13391   0.803   7.254  12.679
   9923SM    NF13392   0.590   7.309  12.839
   9923SM   HNF13393   0.519   7.378  12.838
   9923SM   C2S13394   0.727   7.353  12.859
   9923SM   H2S13395   0.778   7.279  12.924
   9923SM   C3S13396   0.737   7.493  12.927
   9923SM   H3S13397   0.673   7.564  12.871
   9923SM    O313398   0.870   7.547  12.919
   9923SM   HO313399   0.897   7.519  12.831
   9923SM   C4S13400   0.685   7.486  13.070
   9923SM   H4S13401   0.575   7.488  13.077
   9923SM   C5S13402   0.756   7.481  13.185
   9923SM   H5S13403   0.866   7.481  13.177
   9923SM   C6S13404   0.704   7.475  13.327
   9923SM   H6S13405   0.700   7.580  13.365
   9923SM   H6T13406   0.778   7.422  13.391
   9923SM   C7S13407   0.566   7.415  13.360
   9923SM   H7S13408   0.561   7.308  13.328
   9923SM   H7T13409   0.490   7.473  13.304
   9923SM   C8S13410   0.534   7.426  13.510
   9923SM   H8S13411   0.427   7.456  13.522
   9923SM   H8T13412   0.598   7.505  13.554
   9923SM   C9S13413   0.555   7.300  13.595
   9923SM   H9S13414   0.664   7.279  13.601
   9923SM   H9T13415   0.505   7.215  13.545
   9923SM  C10S13416   0.502   7.312  13.738
   9923SM  H10S13417   0.483   7.209  13.776
   9923SM  H10T13418   0.405   7.366  13.738
   9923SM  C11S13419   0.598   7.379  13.838
   9923SM  H11S13420   0.620   7.483  13.805
   9923SM  H11T13421   0.695   7.324  13.838
   9923SM  C12S13422   0.541   7.381  13.981
   9923SM  H12S13423   0.525   7.277  14.016
   9923SM  H12T13424   0.443   7.433  13.980
   9923SM  C13S13425   0.634   7.452  14.079
   9923SM  H13S13426   0.654   7.554  14.039
   9923SM  H13T13427   0.730   7.397  14.086
   9923SM  C14S13428   0.573   7.468  14.218
   9923SM  H14S13429   0.543   7.368  14.255
   9923SM  H14T13430   0.481   7.530  14.212
   9923SM  C15S13431   0.670   7.530  14.319
   9923SM  H15S13432   0.696   7.634  14.290
   9923SM  H15T13433   0.765   7.471  14.320
   9923SM  C16S13434   0.611   7.529  14.460
   9923SM  H16S13435   0.606   7.421  14.488
   9923SM  H16T13436   0.509   7.573  14.463
   9923SM  C17S13437   0.700   7.591  14.565
   9923SM  H17S13438   0.712   7.700  14.553
   9923SM  H17T13439   0.800   7.546  14.544
   9923SM  C18S13440   0.656   7.557  14.707
   9923SM  H18S13441   0.742   7.558  14.778
   9923SM  H18T13442   0.608   7.457  14.713
   9923SM  H18U13443   0.580   7.631  14.742
   9923SM   C1F13444   0.558   7.185  12.797
   9923SM    OF13445   0.643   7.108  12.756
   9923SM   C2F13446   0.415   7.145  12.793
   9923SM   H2F13447   0.408   7.034  12.796
   9923SM   H2G13448   0.371   7.180  12.696
   9923SM   C3F13449   0.336   7.205  12.909
   9923SM   H3F13450   0.227   7.186  12.894
   9923SM   H3G13451   0.348   7.316  12.910
   9923SM   C4F13452   0.377   7.151  13.046
   9923SM   H4F13453   0.487   7.138  13.055
   9923SM   H4G13454   0.332   7.051  13.060
   9923SM   C5F13455   0.329   7.247  13.155
   9923SM   H5F13456   0.237   7.297  13.118
   9923SM   H5G13457   0.405   7.327  13.171
   9923SM   C6F13458   0.293   7.175  13.284
   9923SM   H6F13459   0.385   7.142  13.338
   9923SM   H6G13460   0.234   7.084  13.259
   9923SM   C7F13461   0.206   7.264  13.373
   9923SM   H7F13462   0.119   7.301  13.315
   9923SM   H7G13463   0.267   7.351  13.407
   9923SM   C8F13464   0.155   7.186  13.493
   9923SM   H8F13465   0.236   7.117  13.523
   9923SM   H8G13466   0.068   7.123  13.465
   9923SM   C9F13467   0.119   7.279  13.610
   9923SM   H9F13468   0.034   7.343  13.579
   9923SM   H9G13469   0.205   7.344  13.633
   9923SM  C10F13470   0.082   7.201  13.736
   9923SM  H10F13471  -0.007   7.138  13.714
   9923SM  H10G13472   0.053   7.272  13.816
   9923SM  C11F13473   0.195   7.111  13.787
   9923SM  H11F13474   0.282   7.107  13.717
   9923SM  H11G13475   0.155   7.008  13.796
   9923SM  C12F13476   0.248   7.154  13.923
   9923SM  H12F13477   0.161   7.168  13.990
   9923SM  H12G13478   0.300   7.252  13.916
   9923SM  C13F13479   0.341   7.048  13.983
   9923SM  H13F13480   0.443   7.089  13.996
   9923SM  H13G13481   0.350   6.960  13.916
   9923SM  C14F13482   0.284   7.006  14.118
   9923SM  H14F13483   0.188   6.953  14.103
   9923SM  H14G13484   0.262   7.102  14.170
   9923SM  C15F13485   0.374   6.925  14.210
   9923SM  H15F13486   0.414   6.837  14.156
   9923SM  H15G13487   0.314   6.889  14.296
   9923SM  C16F13488   0.492   7.004  14.268
   9923SM  H16F13489   0.561   7.028  14.184
   9923SM  H16G13490   0.543   6.936  14.339
   9923SM  C17F13491   0.461   7.135  14.341
   9923SM  H17F13492   0.403   7.203  14.275
   9923SM  H17G13493   0.558   7.184  14.361
   9923SM  C18F13494   0.388   7.121  14.476
   9923SM  H18F13495   0.454   7.065  14.546
   9923SM  H18G13496   0.294   7.064  14.464
   9923SM  C19F13497   0.359   7.261  14.531
   9923SM  H19F13498   0.273   7.307  14.478
   9923SM  H19G13499   0.446   7.325  14.503
   9923SM  C20F13500   0.344   7.274  14.683
   9923SM  H20F13501   0.438   7.241  14.732
   9923SM  H20G13502   0.262   7.208  14.719
   9923SM  C21F13503   0.314   7.421  14.721
   9923SM  H21F13504   0.218   7.449  14.672
   9923SM  H21G13505   0.392   7.487  14.677
   9923SM  C22F13506   0.303   7.447  14.871
   9923SM  H22F13507   0.238   7.367  14.915
   9923SM  H22G13508   0.250   7.543  14.886
   9923SM  C23F13509   0.437   7.454  14.946
   9923SM  H23F13510   0.421   7.466  15.055
   9923SM  H23G13511   0.495   7.543  14.913
   9923SM  H23H13512   0.497   7.363  14.929
  10023SM     N13513   0.284   0.473  12.197
  10023SM   C1513514   0.373   0.387  12.112
  10023SM  H15A13515   0.469   0.435  12.094
  10023SM  H15B13516   0.328   0.366  12.017
  10023SM  H15C13517   0.391   0.294  12.164
  10023SM   C1413518   0.258   0.604  12.129
  10023SM  H14A13519   0.350   0.655  12.105
  10023SM  H14B13520   0.198   0.667  12.193
  10023SM  H14C13521   0.201   0.589  12.038
  10023SM   C1313522   0.153   0.403  12.214
  10023SM  H13A13523   0.165   0.321  12.283
  10023SM  H13B13524   0.115   0.365  12.120
  10023SM  H13C13525   0.078   0.469  12.255
  10023SM   C1213526   0.346   0.496  12.333
  10023SM  H12A13527   0.270   0.538  12.398
  10023SM  H12B13528   0.424   0.571  12.323
  10023SM   C1113529   0.409   0.373  12.404
  10023SM  H11A13530   0.448   0.404  12.504
  10023SM  H11B13531   0.498   0.340  12.347
  10023SM     P13532   0.225   0.249  12.541
  10023SM   O1313533   0.150   0.375  12.565
  10023SM   O1413534   0.151   0.122  12.531
  10023SM   O1113535   0.331   0.237  12.656
  10023SM   O1213536   0.316   0.265  12.413
  10023SM   C1S13537   0.427   0.132  12.656
  10023SM   H1S13538   0.519   0.167  12.605
  10023SM   H1T13539   0.393   0.039  12.605
  10023SM    NF13540   0.344   0.037  12.867
  10023SM   HNF13541   0.284   0.102  12.914
  10023SM   C2S13542   0.460   0.098  12.803
  10023SM   H2S13543   0.544   0.025  12.804
  10023SM   C3S13544   0.507   0.228  12.873
  10023SM   H3S13545   0.429   0.307  12.867
  10023SM    O313546   0.627   0.279  12.814
  10023SM   HO313547   0.641   0.224  12.737
  10023SM   C4S13548   0.529   0.190  13.016
  10023SM   H4S13549   0.629   0.150  13.040
  10023SM   C5S13550   0.439   0.208  13.114
  10023SM   H5S13551   0.343   0.258  13.092
  10023SM   C6S13552   0.460   0.169  13.257
  10023SM   H6S13553   0.498   0.256  13.314
  10023SM   H6T13554   0.538   0.091  13.265
  10023SM   C7S13555   0.329   0.121  13.323
  10023SM   H7S13556   0.313   0.015  13.295
  10023SM   H7T13557   0.243   0.183  13.289
  10023SM   C8S13558   0.336   0.133  13.475
  10023SM   H8S13559   0.252   0.078  13.522
  10023SM   H8T13560   0.328   0.240  13.506
  10023SM   C9S13561   0.468   0.079  13.528
  10023SM   H9S13562   0.545   0.160  13.528
  10023SM   H9T13563   0.506  -0.000  13.460
  10023SM  C10S13564   0.456   0.020  13.668
  10023SM  H10S13565   0.551  -0.033  13.691
  10023SM  H10T13566   0.375  -0.056  13.674
  10023SM  C11S13567   0.438   0.126  13.774
  10023SM  H11S13568   0.332   0.157  13.781
  10023SM  H11T13569   0.498   0.216  13.748
  10023SM  C12S13570   0.489   0.072  13.907
  10023SM  H12S13571   0.597   0.047  13.897
  10023SM  H12T13572   0.436  -0.022  13.933
  10023SM  C13S13573   0.467   0.176  14.014
  10023SM  H13S13574   0.358   0.197  14.016
  10023SM  H13T13575   0.521   0.270  13.988
  10023SM  C14S13576   0.510   0.128  14.151
  10023SM  H14S13577   0.600   0.064  14.141
  10023SM  H14T13578   0.428   0.064  14.192
  10023SM  C15S13579   0.541   0.242  14.246
  10023SM  H15S13580   0.457   0.314  14.244
  10023SM  H15T13581   0.633   0.295  14.216
  10023SM  C16S13582   0.553   0.186  14.387
  10023SM  H16S13583   0.655   0.144  14.400
  10023SM  H16T13584   0.480   0.103  14.399
  10023SM  C17S13585   0.521   0.289  14.494
  10023SM  H17S13586   0.434   0.349  14.459
  10023SM  H17T13587   0.607   0.359  14.504
  10023SM  C18S13588   0.488   0.226  14.628
  10023SM  H18S13589   0.382   0.191  14.631
  10023SM  H18T13590   0.506   0.296  14.712
  10023SM  H18U13591   0.551   0.135  14.642
  10023SM   C1F13592   0.304  -0.087  12.846
  10023SM    OF13593   0.368  -0.162  12.774
  10023SM   C2F13594   0.179  -0.131  12.918
  10023SM   H2F13595   0.180  -0.086  13.019
  10023SM   H2G13596   0.183  -0.241  12.930
  10023SM   C3F13597   0.049  -0.096  12.841
  10023SM   H3F13598  -0.036  -0.144  12.894
  10023SM   H3G13599   0.054  -0.143  12.740
  10023SM   C4F13600   0.020   0.054  12.825
  10023SM   H4F13601  -0.064   0.067  12.754
  10023SM   H4G13602   0.107   0.106  12.781
  10023SM   C5F13603  -0.018   0.119  12.958
  10023SM   H5F13604   0.058   0.090  13.034
  10023SM   H5G13605  -0.118   0.079  12.987
  10023SM   C6F13606  -0.024   0.273  12.957
  10023SM   H6F13607  -0.087   0.307  12.872
  10023SM   H6G13608   0.079   0.312  12.938
  10023SM   C7F13609  -0.078   0.335  13.088
  10023SM   H7F13610  -0.184   0.362  13.074
  10023SM   H7G13611  -0.024   0.430  13.108
  10023SM   C8F13612  -0.069   0.244  13.211
  10023SM   H8F13613   0.038   0.227  13.236
  10023SM   H8G13614  -0.117   0.147  13.186
  10023SM   C9F13615  -0.146   0.291  13.334
  10023SM   H9F13616  -0.135   0.216  13.416
  10023SM   H9G13617  -0.254   0.295  13.309
  10023SM  C10F13618  -0.101   0.427  13.389
  10023SM  H10F13619  -0.163   0.450  13.478
  10023SM  H10G13620  -0.118   0.508  13.315
  10023SM  C11F13621   0.047   0.425  13.430
  10023SM  H11F13622   0.112   0.429  13.340
  10023SM  H11G13623   0.067   0.327  13.480
  10023SM  C12F13624   0.085   0.536  13.527
  10023SM  H12F13625  -0.005   0.591  13.562
  10023SM  H12G13626   0.152   0.609  13.476
  10023SM  C13F13627   0.158   0.480  13.650
  10023SM  H13F13628   0.240   0.412  13.616
  10023SM  H13G13629   0.086   0.418  13.708
  10023SM  C14F13630   0.221   0.588  13.737
  10023SM  H14F13631   0.141   0.654  13.776
  10023SM  H14G13632   0.289   0.652  13.675
  10023SM  C15F13633   0.300   0.534  13.857
  10023SM  H15F13634   0.326   0.619  13.923
  10023SM  H15G13635   0.394   0.487  13.822
  10023SM  C16F13636   0.218   0.431  13.936
  10023SM  H16F13637   0.233   0.332  13.887
  10023SM  H16G13638   0.110   0.455  13.931
  10023SM  C17F13639   0.259   0.421  14.083
  10023SM  H17F13640   0.368   0.437  14.093
  10023SM  H17G13641   0.235   0.319  14.118
  10023SM  C18F13642   0.182   0.516  14.175
  10023SM  H18F13643   0.074   0.511  14.147
  10023SM  H18G13644   0.216   0.621  14.161
  10023SM  C19F13645   0.195   0.471  14.320
  10023SM  H19F13646   0.298   0.494  14.357
  10023SM  H19G13647   0.182   0.361  14.324
  10023SM  C20F13648   0.090   0.534  14.413
  10023SM  H20F13649  -0.006   0.544  14.359
  10023SM  H20G13650   0.125   0.636  14.441
  10023SM  C21F13651   0.065   0.450  14.540
  10023SM  H21F13652   0.013   0.356  14.513
  10023SM  H21G13653  -0.000   0.507  14.609
  10023SM  C22F13654   0.195   0.414  14.611
  10023SM  H22F13655   0.256   0.507  14.617
  10023SM  H22G13656   0.250   0.341  14.547
  10023SM  C23F13657   0.180   0.354  14.751
  10023SM  H23F13658   0.279   0.337  14.797
  10023SM  H23G13659   0.127   0.257  14.746
  10023SM  H23H13660   0.123   0.423  14.816
  101CHL1    C313661   4.009   4.578  16.723
  101CHL1    H313662   4.116   4.573  16.691
  101CHL1    O313663   4.004   4.590  16.865
  101CHL1   H3'13664   3.912   4.608  16.884
  101CHL1    C413665   3.943   4.701  16.658
  101CHL1   H4A13666   3.839   4.710  16.697
  101CHL1   H4B13667   3.998   4.792  16.692
  101CHL1    C513668   3.939   4.691  16.506
  101CHL1    C613669   3.994   4.786  16.428
  101CHL1    H613670   4.039   4.875  16.475
  101CHL1    C713671   3.992   4.783  16.278
  101CHL1   H7A13672   3.960   4.882  16.237
  101CHL1   H7B13673   4.094   4.764  16.241
  101CHL1    C813674   3.897   4.675  16.220
  101CHL1    H813675   3.793   4.714  16.228
  101CHL1   C1413676   3.930   4.648  16.073
  101CHL1   H1413677   4.033   4.606  16.072
  101CHL1   C1513678   3.936   4.768  15.976
  101CHL1  H15A13679   3.845   4.831  15.990
  101CHL1  H15B13680   4.026   4.830  15.991
  101CHL1   C1613681   3.932   4.702  15.837
  101CHL1  H16A13682   3.856   4.752  15.774
  101CHL1  H16B13683   4.031   4.709  15.787
  101CHL1   C1713684   3.896   4.551  15.859
  101CHL1   H1713685   3.992   4.494  15.859
  101CHL1   C1313686   3.842   4.543  16.005
  101CHL1   C1813687   3.695   4.589  16.004
  101CHL1  H18A13688   3.628   4.511  15.961
  101CHL1  H18B13689   3.658   4.610  16.106
  101CHL1  H18C13690   3.683   4.681  15.942
  101CHL1   C1213691   3.861   4.411  16.081
  101CHL1  H12A13692   3.796   4.331  16.039
  101CHL1  H12B13693   3.967   4.378  16.070
  101CHL1   C1113694   3.829   4.427  16.231
  101CHL1  H11A13695   3.719   4.445  16.239
  101CHL1  H11B13696   3.851   4.331  16.282
  101CHL1    C913697   3.907   4.544  16.299
  101CHL1    H913698   4.014   4.515  16.291
  101CHL1   C1013699   3.878   4.561  16.450
  101CHL1   C1913700   3.725   4.568  16.472
  101CHL1  H19A13701   3.677   4.472  16.446
  101CHL1  H19B13702   3.699   4.589  16.578
  101CHL1  H19C13703   3.680   4.648  16.409
  101CHL1    C113704   3.937   4.438  16.527
  101CHL1   H1A13705   3.879   4.347  16.498
  101CHL1   H1B13706   4.041   4.423  16.493
  101CHL1    C213707   3.937   4.450  16.680
  101CHL1   H2A13708   3.988   4.362  16.725
  101CHL1   H2B13709   3.832   4.453  16.717
  101CHL1   C2013710   3.810   4.495  15.745
  101CHL1   H2013711   3.721   4.561  15.732
  101CHL1   C2113712   3.760   4.352  15.775
  101CHL1  H21A13713   3.671   4.352  15.842
  101CHL1  H21B13714   3.842   4.296  15.824
  101CHL1  H21C13715   3.732   4.297  15.682
  101CHL1   C2213716   3.884   4.491  15.609
  101CHL1  H22A13717   3.950   4.580  15.598
  101CHL1  H22B13718   3.949   4.401  15.606
  101CHL1   C2313719   3.784   4.488  15.492
  101CHL1  H23A13720   3.699   4.420  15.517
  101CHL1  H23B13721   3.740   4.590  15.481
  101CHL1   C2413722   3.840   4.441  15.357
  101CHL1  H24A13723   3.872   4.335  15.366
  101CHL1  H24B13724   3.757   4.445  15.283
  101CHL1   C2513725   3.957   4.522  15.300
  101CHL1   H2513726   4.047   4.497  15.360
  101CHL1   C2613727   3.982   4.482  15.153
  101CHL1  H26A13728   4.069   4.538  15.112
  101CHL1  H26B13729   4.004   4.374  15.146
  101CHL1  H26C13730   3.893   4.505  15.091
  101CHL1   C2713731   3.942   4.674  15.313
  101CHL1  H27A13732   3.938   4.705  15.419
  101CHL1  H27B13733   4.029   4.724  15.266
  101CHL1  H27C13734   3.848   4.706  15.262
  102CHL1    C313735   2.657   4.606  16.730
  102CHL1    H313736   2.676   4.715  16.722
  102CHL1    O313737   2.655   4.570  16.867
  102CHL1   H3'13738   2.592   4.630  16.908
  102CHL1    C413739   2.521   4.573  16.667
  102CHL1   H4A13740   2.500   4.465  16.683
  102CHL1   H4B13741   2.442   4.628  16.722
  102CHL1    C513742   2.521   4.604  16.519
  102CHL1    C613743   2.434   4.693  16.467
  102CHL1    H613744   2.358   4.739  16.532
  102CHL1    C713745   2.427   4.725  16.322
  102CHL1   H7A13746   2.320   4.728  16.289
  102CHL1   H7B13747   2.470   4.826  16.302
  102CHL1    C813748   2.502   4.620  16.235
  102CHL1    H813749   2.440   4.528  16.237
  102CHL1   C1413750   2.516   4.670  16.093
  102CHL1   H1413751   2.583   4.759  16.096
  102CHL1   C1513752   2.387   4.718  16.029
  102CHL1  H15A13753   2.308   4.644  16.054
  102CHL1  H15B13754   2.358   4.819  16.063
  102CHL1   C1613755   2.414   4.714  15.879
  102CHL1  H16A13756   2.333   4.654  15.832
  102CHL1  H16B13757   2.415   4.815  15.834
  102CHL1   C1713758   2.552   4.644  15.861
  102CHL1   H1713759   2.628   4.725  15.852
  102CHL1   C1313760   2.579   4.571  15.995
  102CHL1   C1813761   2.502   4.436  15.994
  102CHL1  H18A13762   2.502   4.387  16.094
  102CHL1  H18B13763   2.396   4.450  15.964
  102CHL1  H18C13764   2.550   4.365  15.924
  102CHL1   C1213765   2.724   4.554  16.043
  102CHL1  H12A13766   2.778   4.481  15.979
  102CHL1  H12B13767   2.777   4.652  16.035
  102CHL1   C1113768   2.729   4.507  16.191
  102CHL1  H11A13769   2.696   4.401  16.190
  102CHL1  H11B13770   2.835   4.508  16.225
  102CHL1    C913771   2.641   4.590  16.290
  102CHL1    H913772   2.691   4.689  16.297
  102CHL1   C1013773   2.632   4.535  16.436
  102CHL1   C1913774   2.600   4.383  16.431
  102CHL1  H19A13775   2.685   4.327  16.385
  102CHL1  H19B13776   2.586   4.340  16.532
  102CHL1  H19C13777   2.509   4.363  16.371
  102CHL1    C113778   2.768   4.560  16.507
  102CHL1   H1A13779   2.847   4.499  16.456
  102CHL1   H1B13780   2.794   4.667  16.492
  102CHL1    C213781   2.769   4.529  16.658
  102CHL1   H2A13782   2.867   4.557  16.701
  102CHL1   H2B13783   2.754   4.420  16.673
  102CHL1   C2013784   2.554   4.563  15.731
  102CHL1   H2013785   2.486   4.476  15.742
  102CHL1   C2113786   2.696   4.510  15.702
  102CHL1  H21A13787   2.726   4.434  15.777
  102CHL1  H21B13788   2.769   4.594  15.704
  102CHL1  H21C13789   2.700   4.462  15.602
  102CHL1   C2213790   2.501   4.644  15.609
  102CHL1  H22A13791   2.410   4.702  15.636
  102CHL1  H22B13792   2.577   4.717  15.574
  102CHL1   C2313793   2.455   4.553  15.494
  102CHL1  H23A13794   2.536   4.546  15.418
  102CHL1  H23B13795   2.437   4.451  15.533
  102CHL1   C2413796   2.325   4.604  15.431
  102CHL1  H24A13797   2.241   4.596  15.503
  102CHL1  H24B13798   2.337   4.712  15.405
  102CHL1   C2513799   2.289   4.529  15.302
  102CHL1   H2513800   2.378   4.535  15.236
  102CHL1   C2613801   2.262   4.381  15.326
  102CHL1  H26A13802   2.252   4.330  15.227
  102CHL1  H26B13803   2.345   4.331  15.380
  102CHL1  H26C13804   2.167   4.366  15.383
  102CHL1   C2713805   2.169   4.595  15.232
  102CHL1  H27A13806   2.151   4.546  15.134
  102CHL1  H27B13807   2.077   4.585  15.293
  102CHL1  H27C13808   2.188   4.703  15.214
  103CHL1    C313809   2.610   2.881  16.724
  103CHL1    H313810   2.689   2.959  16.720
  103CHL1    O313811   2.570   2.859  16.858
  103CHL1   H3'13812   2.570   2.946  16.899
  103CHL1    C413813   2.489   2.924  16.641
  103CHL1   H4A13814   2.405   2.853  16.657
  103CHL1   H4B13815   2.453   3.022  16.680
  103CHL1    C513816   2.524   2.931  16.494
  103CHL1    C613817   2.513   3.045  16.427
  103CHL1    H613818   2.473   3.134  16.478
  103CHL1    C713819   2.542   3.056  16.281
  103CHL1   H7A13820   2.464   3.119  16.232
  103CHL1   H7B13821   2.640   3.105  16.265
  103CHL1    C813822   2.540   2.921  16.211
  103CHL1    H813823   2.436   2.884  16.214
  103CHL1   C1413824   2.584   2.940  16.068
  103CHL1   H1413825   2.691   2.970  16.071
  103CHL1   C1513826   2.516   3.051  15.986
  103CHL1  H15A13827   2.406   3.048  16.005
  103CHL1  H15B13828   2.554   3.152  16.011
  103CHL1   C1613829   2.545   3.012  15.842
  103CHL1  H16A13830   2.450   3.015  15.784
  103CHL1  H16B13831   2.618   3.081  15.794
  103CHL1   C1713832   2.603   2.867  15.846
  103CHL1   H1713833   2.713   2.876  15.837
  103CHL1   C1313834   2.576   2.812  15.987
  103CHL1   C1813835   2.431   2.755  15.992
  103CHL1  H18A13836   2.419   2.666  15.926
  103CHL1  H18B13837   2.403   2.722  16.094
  103CHL1  H18C13838   2.358   2.831  15.958
  103CHL1   C1213839   2.684   2.720  16.050
  103CHL1  H12A13840   2.695   2.624  15.994
  103CHL1  H12B13841   2.782   2.771  16.043
  103CHL1   C1113842   2.654   2.692  16.199
  103CHL1  H11A13843   2.564   2.627  16.201
  103CHL1  H11B13844   2.738   2.633  16.243
  103CHL1    C913845   2.631   2.822  16.283
  103CHL1    H913846   2.730   2.872  16.288
  103CHL1   C1013847   2.582   2.803  16.429
  103CHL1   C1913848   2.471   2.696  16.428
  103CHL1  H19A13849   2.394   2.720  16.352
  103CHL1  H19B13850   2.512   2.595  16.404
  103CHL1  H19C13851   2.418   2.687  16.525
  103CHL1    C113852   2.703   2.764  16.518
  103CHL1   H1A13853   2.747   2.670  16.477
  103CHL1   H1B13854   2.781   2.842  16.508
  103CHL1    C213855   2.667   2.750  16.667
  103CHL1   H2A13856   2.754   2.717  16.728
  103CHL1   H2B13857   2.586   2.675  16.678
  103CHL1   C2013858   2.554   2.786  15.726
  103CHL1   H2013859   2.443   2.778  15.727
  103CHL1   C2113860   2.613   2.645  15.731
  103CHL1  H21A13861   2.581   2.584  15.644
  103CHL1  H21B13862   2.577   2.591  15.822
  103CHL1  H21C13863   2.724   2.651  15.735
  103CHL1   C2213864   2.594   2.858  15.595
  103CHL1  H22A13865   2.533   2.950  15.585
  103CHL1  H22B13866   2.701   2.888  15.600
  103CHL1   C2313867   2.575   2.774  15.469
  103CHL1  H23A13868   2.651   2.694  15.464
  103CHL1  H23B13869   2.474   2.727  15.468
  103CHL1   C2413870   2.589   2.866  15.348
  103CHL1  H24A13871   2.505   2.938  15.351
  103CHL1  H24B13872   2.683   2.924  15.354
  103CHL1   C2513873   2.585   2.793  15.213
  103CHL1   H2513874   2.502   2.719  15.216
  103CHL1   C2613875   2.556   2.897  15.106
  103CHL1  H26A13876   2.463   2.952  15.128
  103CHL1  H26B13877   2.640   2.970  15.106
  103CHL1  H26C13878   2.547   2.851  15.005
  103CHL1   C2713879   2.716   2.719  15.183
  103CHL1  H27A13880   2.712   2.672  15.082
  103CHL1  H27B13881   2.802   2.789  15.186
  103CHL1  H27C13882   2.733   2.638  15.258
  104CHL1    C313883   6.132   4.113  16.736
  104CHL1    H313884   6.242   4.119  16.753
  104CHL1    O313885   6.069   4.101  16.862
  104CHL1   H3'13886   6.107   4.020  16.898
  104CHL1    C413887   6.084   4.240  16.664
  104CHL1   H4A13888   5.975   4.232  16.645
  104CHL1   H4B13889   6.099   4.327  16.731
  104CHL1    C513890   6.160   4.255  16.534
  104CHL1    C613891   6.236   4.364  16.511
  104CHL1    H613892   6.239   4.445  16.584
  104CHL1    C713893   6.318   4.384  16.387
  104CHL1   H7A13894   6.302   4.486  16.346
  104CHL1   H7B13895   6.425   4.376  16.414
  104CHL1    C813896   6.287   4.281  16.275
  104CHL1    H813897   6.195   4.316  16.223
  104CHL1   C1413898   6.404   4.272  16.179
  104CHL1   H1413899   6.486   4.221  16.234
  104CHL1   C1513900   6.467   4.403  16.131
  104CHL1  H15A13901   6.389   4.473  16.094
  104CHL1  H15B13902   6.525   4.453  16.212
  104CHL1   C1613903   6.558   4.356  16.018
  104CHL1  H16A13904   6.564   4.433  15.938
  104CHL1  H16B13905   6.659   4.338  16.059
  104CHL1   C1713906   6.510   4.214  15.975
  104CHL1   H1713907   6.584   4.146  16.023
  104CHL1   C1313908   6.378   4.189  16.054
  104CHL1   C1813909   6.257   4.249  15.979
  104CHL1  H18A13910   6.256   4.360  15.983
  104CHL1  H18B13911   6.255   4.220  15.872
  104CHL1  H18C13912   6.161   4.214  16.024
  104CHL1   C1213913   6.354   4.045  16.102
  104CHL1  H12A13914   6.323   3.981  16.017
  104CHL1  H12B13915   6.449   4.005  16.144
  104CHL1   C1113916   6.245   4.037  16.212
  104CHL1  H11A13917   6.148   4.053  16.162
  104CHL1  H11B13918   6.245   3.934  16.253
  104CHL1    C913919   6.263   4.140  16.328
  104CHL1    H913920   6.359   4.112  16.378
  104CHL1   C1013921   6.156   4.133  16.439
  104CHL1   C1913922   6.016   4.134  16.373
  104CHL1  H19A13923   6.004   4.221  16.305
  104CHL1  H19B13924   6.001   4.041  16.314
  104CHL1  H19C13925   5.935   4.137  16.449
  104CHL1    C113926   6.177   4.000  16.518
  104CHL1   H1A13927   6.150   3.914  16.454
  104CHL1   H1B13928   6.285   3.990  16.542
  104CHL1    C213929   6.101   3.990  16.651
  104CHL1   H2A13930   6.132   3.898  16.704
  104CHL1   H2B13931   5.992   3.985  16.632
  104CHL1   C2013932   6.522   4.185  15.824
  104CHL1   H2013933   6.430   4.216  15.771
  104CHL1   C2113934   6.538   4.033  15.812
  104CHL1  H21A13935   6.638   4.007  15.851
  104CHL1  H21B13936   6.528   4.000  15.707
  104CHL1  H21C13937   6.462   3.979  15.873
  104CHL1   C2213938   6.643   4.253  15.752
  104CHL1  H22A13939   6.626   4.363  15.748
  104CHL1  H22B13940   6.734   4.235  15.813
  104CHL1   C2313941   6.674   4.206  15.608
  104CHL1  H23A13942   6.765   4.261  15.575
  104CHL1  H23B13943   6.698   4.098  15.607
  104CHL1   C2413944   6.564   4.231  15.505
  104CHL1  H24A13945   6.473   4.176  15.537
  104CHL1  H24B13946   6.542   4.340  15.503
  104CHL1   C2513947   6.595   4.188  15.360
  104CHL1   H2513948   6.624   4.081  15.361
  104CHL1   C2613949   6.471   4.205  15.272
  104CHL1  H26A13950   6.383   4.155  15.317
  104CHL1  H26B13951   6.447   4.313  15.261
  104CHL1  H26C13952   6.488   4.162  15.171
  104CHL1   C2713953   6.711   4.270  15.300
  104CHL1  H27A13954   6.688   4.378  15.307
  104CHL1  H27B13955   6.806   4.249  15.353
  104CHL1  H27C13956   6.724   4.244  15.192
  105CHL1    C313957   6.048   3.271  16.734
  105CHL1    H313958   6.128   3.347  16.726
  105CHL1    O313959   6.013   3.253  16.870
  105CHL1   H3'13960   6.090   3.210  16.909
  105CHL1    C413961   5.925   3.320  16.654
  105CHL1   H4A13962   5.840   3.251  16.675
  105CHL1   H4B13963   5.896   3.419  16.695
  105CHL1    C513964   5.950   3.325  16.504
  105CHL1    C613965   5.927   3.437  16.432
  105CHL1    H613966   5.887   3.526  16.482
  105CHL1    C713967   5.945   3.445  16.283
  105CHL1   H7A13968   5.857   3.494  16.236
  105CHL1   H7B13969   6.034   3.509  16.261
  105CHL1    C813970   5.966   3.307  16.216
  105CHL1    H813971   5.868   3.255  16.211
  105CHL1   C1413972   6.021   3.323  16.075
  105CHL1   H1413973   6.121   3.370  16.088
  105CHL1   C1513974   5.945   3.415  15.977
  105CHL1  H15A13975   5.836   3.401  15.990
  105CHL1  H15B13976   5.970   3.522  15.994
  105CHL1   C1613977   5.990   3.367  15.837
  105CHL1  H16A13978   5.901   3.327  15.783
  105CHL1  H16B13979   6.035   3.450  15.777
  105CHL1   C1713980   6.094   3.253  15.862
  105CHL1   H1713981   6.191   3.305  15.878
  105CHL1   C1313982   6.052   3.194  15.999
  105CHL1   C1813983   5.924   3.109  15.982
  105CHL1  H18A13984   5.849   3.160  15.918
  105CHL1  H18B13985   5.949   3.011  15.937
  105CHL1  H18C13986   5.876   3.089  16.080
  105CHL1   C1213987   6.159   3.119  16.081
  105CHL1  H12A13988   6.183   3.022  16.033
  105CHL1  H12B13989   6.252   3.180  16.085
  105CHL1   C1113990   6.109   3.092  16.224
  105CHL1  H11A13991   6.026   3.019  16.219
  105CHL1  H11B13992   6.192   3.044  16.281
  105CHL1    C913993   6.062   3.220  16.299
  105CHL1    H913994   6.154   3.282  16.310
  105CHL1   C1013995   6.009   3.197  16.443
  105CHL1   C1913996   5.896   3.091  16.441
  105CHL1  H19A13997   5.933   2.992  16.405
  105CHL1  H19B13998   5.852   3.075  16.542
  105CHL1  H19C13999   5.813   3.123  16.374
  105CHL1    C114000   6.128   3.146  16.530
  105CHL1   H1A14001   6.159   3.045  16.494
  105CHL1   H1B14002   6.214   3.214  16.515
  105CHL1    C214003   6.098   3.137  16.680
  105CHL1   H2A14004   6.191   3.107  16.733
  105CHL1   H2B14005   6.020   3.060  16.697
  105CHL1   C2014006   6.114   3.155  15.746
  105CHL1   H2014007   6.041   3.072  15.757
  105CHL1   C2114008   6.257   3.096  15.754
  105CHL1  H21A14009   6.274   3.025  15.670
  105CHL1  H21B14010   6.273   3.041  15.849
  105CHL1  H21C14011   6.333   3.176  15.749
  105CHL1   C2214012   6.089   3.210  15.602
  105CHL1  H22A14013   6.089   3.122  15.534
  105CHL1  H22B14014   5.987   3.254  15.596
  105CHL1   C2314015   6.193   3.309  15.550
  105CHL1  H23A14016   6.194   3.401  15.614
  105CHL1  H23B14017   6.294   3.264  15.558
  105CHL1   C2414018   6.175   3.347  15.402
  105CHL1  H24A14019   6.261   3.412  15.374
  105CHL1  H24B14020   6.182   3.255  15.340
  105CHL1   C2514021   6.046   3.422  15.364
  105CHL1   H2514022   5.961   3.351  15.372
  105CHL1   C2614023   6.020   3.540  15.458
  105CHL1  H26A14024   5.986   3.504  15.558
  105CHL1  H26B14025   6.113   3.599  15.473
  105CHL1  H26C14026   5.942   3.607  15.416
  105CHL1   C2714027   6.056   3.470  15.219
  105CHL1  H27A14028   5.962   3.522  15.188
  105CHL1  H27B14029   6.141   3.541  15.207
  105CHL1  H27C14030   6.073   3.384  15.151
  106CHL1    C314031   1.927   2.485  16.737
  106CHL1    H314032   1.959   2.591  16.750
  106CHL1    O314033   1.903   2.427  16.864
  106CHL1   H3'14034   1.985   2.440  16.913
  106CHL1    C414035   1.798   2.480  16.654
  106CHL1   H4A14036   1.759   2.376  16.653
  106CHL1   H4B14037   1.722   2.542  16.706
  106CHL1    C514038   1.824   2.529  16.513
  106CHL1    C614039   1.763   2.638  16.467
  106CHL1    H614040   1.692   2.692  16.531
  106CHL1    C714041   1.783   2.688  16.328
  106CHL1   H7A14042   1.685   2.724  16.290
  106CHL1   H7B14043   1.853   2.775  16.327
  106CHL1    C814044   1.835   2.580  16.233
  106CHL1    H814045   1.755   2.505  16.220
  106CHL1   C1414046   1.870   2.642  16.099
  106CHL1   H1414047   1.961   2.703  16.116
  106CHL1   C1514048   1.769   2.742  16.047
  106CHL1  H15A14049   1.664   2.711  16.070
  106CHL1  H15B14050   1.788   2.842  16.090
  106CHL1   C1614051   1.786   2.737  15.897
  106CHL1  H16A14052   1.691   2.698  15.853
  106CHL1  H16B14053   1.808   2.839  15.858
  106CHL1   C1714054   1.903   2.641  15.866
  106CHL1   H1714055   1.996   2.702  15.873
  106CHL1   C1314056   1.905   2.545  15.987
  106CHL1   C1814057   1.795   2.438  15.963
  106CHL1  H18A14058   1.828   2.368  15.883
  106CHL1  H18B14059   1.776   2.377  16.055
  106CHL1  H18C14060   1.699   2.484  15.932
  106CHL1   C1214061   2.037   2.482  16.034
  106CHL1  H12A14062   2.070   2.404  15.962
  106CHL1  H12B14063   2.115   2.561  16.037
  106CHL1   C1114064   2.022   2.420  16.177
  106CHL1  H11A14065   1.961   2.329  16.164
  106CHL1  H11B14066   2.124   2.390  16.210
  106CHL1    C914067   1.959   2.512  16.288
  106CHL1    H914068   2.033   2.594  16.305
  106CHL1   C1014069   1.929   2.451  16.430
  106CHL1   C1914070   1.882   2.306  16.408
  106CHL1  H19A14071   1.850   2.257  16.503
  106CHL1  H19B14072   1.796   2.304  16.337
  106CHL1  H19C14073   1.964   2.244  16.365
  106CHL1    C114074   2.055   2.456  16.519
  106CHL1   H1A14075   2.129   2.389  16.471
  106CHL1   H1B14076   2.097   2.559  16.520
  106CHL1    C214077   2.038   2.408  16.665
  106CHL1   H2A14078   2.134   2.421  16.720
  106CHL1   H2B14079   2.012   2.300  16.665
  106CHL1   C2014080   1.890   2.593  15.720
  106CHL1   H2014081   1.815   2.512  15.712
  106CHL1   C2114082   2.027   2.539  15.673
  106CHL1  H21A14083   2.019   2.500  15.570
  106CHL1  H21B14084   2.061   2.457  15.740
  106CHL1  H21C14085   2.102   2.620  15.675
  106CHL1   C2214086   1.840   2.709  15.628
  106CHL1  H22A14087   1.734   2.733  15.653
  106CHL1  H22B14088   1.901   2.800  15.649
  106CHL1   C2314089   1.840   2.690  15.476
  106CHL1  H23A14090   1.945   2.680  15.441
  106CHL1  H23B14091   1.789   2.596  15.447
  106CHL1   C2414092   1.772   2.811  15.407
  106CHL1  H24A14093   1.662   2.797  15.399
  106CHL1  H24B14094   1.789   2.900  15.472
  106CHL1   C2514095   1.833   2.843  15.270
  106CHL1   H2514096   1.942   2.823  15.285
  106CHL1   C2614097   1.783   2.754  15.157
  106CHL1  H26A14098   1.777   2.648  15.189
  106CHL1  H26B14099   1.683   2.788  15.124
  106CHL1  H26C14100   1.850   2.762  15.069
  106CHL1   C2714101   1.826   2.990  15.230
  106CHL1  H27A14102   1.785   3.001  15.127
  106CHL1  H27B14103   1.763   3.047  15.302
  106CHL1  H27C14104   1.927   3.036  15.229
  107CHL1    C314105   4.023   6.248  16.721
  107CHL1    H314106   4.042   6.138  16.717
  107CHL1    O314107   4.007   6.285  16.857
  107CHL1   H3'14108   4.018   6.381  16.859
  107CHL1    C414109   4.143   6.322  16.661
  107CHL1   H4A14110   4.130   6.432  16.675
  107CHL1   H4B14111   4.234   6.294  16.719
  107CHL1    C514112   4.158   6.290  16.513
  107CHL1    C614113   4.270   6.234  16.465
  107CHL1    H614114   4.354   6.212  16.532
  107CHL1    C714115   4.291   6.207  16.319
  107CHL1   H7A14116   4.395   6.235  16.290
  107CHL1   H7B14117   4.278   6.099  16.297
  107CHL1    C814118   4.194   6.290  16.232
  107CHL1    H814119   4.221   6.397  16.246
  107CHL1   C1414120   4.209   6.256  16.084
  107CHL1   H1414121   4.182   6.149  16.073
  107CHL1   C1514122   4.349   6.268  16.023
  107CHL1  H15A14123   4.394   6.366  16.051
  107CHL1  H15B14124   4.418   6.187  16.056
  107CHL1   C1614125   4.322   6.264  15.872
  107CHL1  H16A14126   4.388   6.338  15.822
  107CHL1  H16B14127   4.344   6.163  15.831
  107CHL1   C1714128   4.171   6.297  15.851
  107CHL1   H1714129   4.123   6.200  15.824
  107CHL1   C1314130   4.117   6.335  15.991
  107CHL1   C1814131   4.138   6.488  16.011
  107CHL1  H18A14132   4.118   6.519  16.116
  107CHL1  H18B14133   4.241   6.517  15.984
  107CHL1  H18C14134   4.067   6.545  15.948
  107CHL1   C1214135   3.974   6.288  16.028
  107CHL1  H12A14136   3.898   6.336  15.963
  107CHL1  H12B14137   3.968   6.179  16.013
  107CHL1   C1114138   3.942   6.320  16.177
  107CHL1  H11A14139   3.931   6.430  16.182
  107CHL1  H11B14140   3.844   6.276  16.203
  107CHL1    C914141   4.050   6.269  16.279
  107CHL1    H914142   4.037   6.159  16.282
  107CHL1   C1014143   4.033   6.320  16.426
  107CHL1   C1914144   4.009   6.474  16.424
  107CHL1  H19A14145   3.911   6.497  16.376
  107CHL1  H19B14146   4.005   6.517  16.526
  107CHL1  H19C14147   4.090   6.526  16.367
  107CHL1    C114148   3.912   6.249  16.493
  107CHL1   H1A14149   3.819   6.277  16.439
  107CHL1   H1B14150   3.925   6.139  16.481
  107CHL1    C214151   3.895   6.279  16.643
  107CHL1   H2A14152   3.811   6.219  16.684
  107CHL1   H2B14153   3.868   6.386  16.656
  107CHL1   C2014154   4.148   6.394  15.733
  107CHL1   H2014155   4.193   6.492  15.759
  107CHL1   C2114156   3.997   6.414  15.709
  107CHL1  H21A14157   3.949   6.317  15.685
  107CHL1  H21B14158   3.979   6.484  15.625
  107CHL1  H21C14159   3.947   6.457  15.799
  107CHL1   C2214160   4.218   6.350  15.601
  107CHL1  H22A14161   4.327   6.337  15.618
  107CHL1  H22B14162   4.178   6.253  15.567
  107CHL1   C2314163   4.202   6.454  15.487
  107CHL1  H23A14164   4.097   6.453  15.450
  107CHL1  H23B14165   4.222   6.555  15.529
  107CHL1   C2414166   4.297   6.432  15.368
  107CHL1  H24A14167   4.400   6.430  15.408
  107CHL1  H24B14168   4.275   6.333  15.323
  107CHL1   C2514169   4.288   6.542  15.259
  107CHL1   H2514170   4.290   6.640  15.311
  107CHL1   C2614171   4.407   6.540  15.162
  107CHL1  H26A14172   4.405   6.629  15.095
  107CHL1  H26B14173   4.504   6.540  15.218
  107CHL1  H26C14174   4.404   6.449  15.098
  107CHL1   C2714175   4.158   6.531  15.178
  107CHL1  H27A14176   4.154   6.612  15.102
  107CHL1  H27B14177   4.153   6.433  15.127
  107CHL1  H27C14178   4.069   6.541  15.244
  108CHL1    C314179   6.055   2.459  16.745
  108CHL1    H314180   5.966   2.412  16.699
  108CHL1    O314181   6.052   2.436  16.885
  108CHL1   H3'14182   5.973   2.481  16.916
  108CHL1    C414183   6.183   2.396  16.686
  108CHL1   H4A14184   6.271   2.442  16.736
  108CHL1   H4B14185   6.184   2.288  16.712
  108CHL1    C514186   6.190   2.418  16.537
  108CHL1    C614187   6.201   2.314  16.453
  108CHL1    H614188   6.210   2.211  16.492
  108CHL1    C714189   6.209   2.328  16.304
  108CHL1   H7A14190   6.288   2.263  16.261
  108CHL1   H7B14191   6.111   2.295  16.261
  108CHL1    C814192   6.231   2.473  16.256
  108CHL1    H814193   6.338   2.500  16.269
  108CHL1   C1414194   6.195   2.481  16.108
  108CHL1   H1414195   6.089   2.451  16.101
  108CHL1   C1514196   6.271   2.387  16.012
  108CHL1  H15A14197   6.380   2.390  16.034
  108CHL1  H15B14198   6.234   2.282  16.019
  108CHL1   C1614199   6.244   2.448  15.874
  108CHL1  H16A14200   6.340   2.468  15.823
  108CHL1  H16B14201   6.182   2.381  15.810
  108CHL1   C1714202   6.169   2.582  15.901
  108CHL1   H1714203   6.060   2.558  15.901
  108CHL1   C1314204   6.202   2.620  16.047
  108CHL1   C1814205   6.345   2.678  16.051
  108CHL1  H18A14206   6.345   2.782  16.012
  108CHL1  H18B14207   6.384   2.682  16.156
  108CHL1  H18C14208   6.416   2.618  15.991
  108CHL1   C1214209   6.102   2.709  16.124
  108CHL1  H12A14210   6.104   2.814  16.087
  108CHL1  H12B14211   5.999   2.670  16.110
  108CHL1   C1114212   6.135   2.712  16.275
  108CHL1  H11A14213   6.231   2.765  16.289
  108CHL1  H11B14214   6.057   2.772  16.326
  108CHL1    C914215   6.142   2.569  16.337
  108CHL1    H914216   6.039   2.529  16.325
  108CHL1   C1014217   6.173   2.564  16.489
  108CHL1   C1914218   6.307   2.637  16.517
  108CHL1  H19A14219   6.391   2.591  16.459
  108CHL1  H19B14220   6.300   2.744  16.489
  108CHL1  H19C14221   6.334   2.633  16.625
  108CHL1    C114222   6.058   2.635  16.566
  108CHL1   H1A14223   6.065   2.745  16.548
  108CHL1   H1B14224   5.961   2.602  16.523
  108CHL1    C214225   6.054   2.609  16.717
  108CHL1   H2A14226   5.964   2.657  16.761
  108CHL1   H2B14227   6.143   2.655  16.765
  108CHL1   C2014228   6.192   2.686  15.791
  108CHL1   H2014229   6.297   2.722  15.794
  108CHL1   C2114230   6.100   2.804  15.817
  108CHL1  H21A14231   6.146   2.873  15.891
  108CHL1  H21B14232   6.003   2.770  15.860
  108CHL1  H21C14233   6.081   2.862  15.724
  108CHL1   C2214234   6.170   2.631  15.647
  108CHL1  H22A14235   6.181   2.715  15.576
  108CHL1  H22B14236   6.251   2.559  15.624
  108CHL1   C2314237   6.035   2.562  15.622
  108CHL1  H23A14238   6.016   2.487  15.700
  108CHL1  H23B14239   5.953   2.637  15.626
  108CHL1   C2414240   6.036   2.491  15.486
  108CHL1  H24A14241   6.067   2.563  15.407
  108CHL1  H24B14242   6.111   2.410  15.489
  108CHL1   C2514243   5.900   2.431  15.444
  108CHL1   H2514244   5.834   2.516  15.418
  108CHL1   C2614245   5.920   2.343  15.319
  108CHL1  H26A14246   5.992   2.261  15.341
  108CHL1  H26B14247   5.823   2.296  15.289
  108CHL1  H26C14248   5.958   2.403  15.234
  108CHL1   C2714249   5.831   2.351  15.555
  108CHL1  H27A14250   5.804   2.417  15.640
  108CHL1  H27B14251   5.737   2.305  15.517
  108CHL1  H27C14252   5.898   2.271  15.592
  109CHL1    C314253   2.707   6.325  16.689
  109CHL1    H314254   2.812   6.354  16.664
  109CHL1    O314255   2.691   6.331  16.830
  109CHL1   H3'14256   2.676   6.240  16.855
  109CHL1    C414257   2.610   6.423  16.618
  109CHL1   H4A14258   2.508   6.406  16.657
  109CHL1   H4B14259   2.638   6.526  16.648
  109CHL1    C514260   2.614   6.405  16.467
  109CHL1    C614261   2.644   6.504  16.383
  109CHL1    H614262   2.662   6.605  16.424
  109CHL1    C714263   2.655   6.490  16.233
  109CHL1   H7A14264   2.616   6.581  16.182
  109CHL1   H7B14265   2.761   6.480  16.202
  109CHL1    C814266   2.582   6.365  16.181
  109CHL1    H814267   2.472   6.384  16.186
  109CHL1   C1414268   2.623   6.332  16.038
  109CHL1   H1414269   2.728   6.296  16.043
  109CHL1   C1514270   2.627   6.445  15.936
  109CHL1  H15A14271   2.531   6.500  15.942
  109CHL1  H15B14272   2.711   6.516  15.953
  109CHL1   C1614273   2.641   6.369  15.804
  109CHL1  H16A14274   2.580   6.418  15.725
  109CHL1  H16B14275   2.747   6.370  15.772
  109CHL1   C1714276   2.595   6.221  15.828
  109CHL1   H1714277   2.689   6.162  15.827
  109CHL1   C1314278   2.542   6.219  15.973
  109CHL1   C1814279   2.391   6.250  15.970
  109CHL1  H18A14280   2.334   6.162  15.933
  109CHL1  H18B14281   2.349   6.275  16.070
  109CHL1  H18C14282   2.371   6.335  15.901
  109CHL1   C1214283   2.570   6.093  16.055
  109CHL1  H12A14284   2.507   6.009  16.018
  109CHL1  H12B14285   2.677   6.064  16.043
  109CHL1   C1114286   2.542   6.117  16.204
  109CHL1  H11A14287   2.432   6.125  16.215
  109CHL1  H11B14288   2.578   6.029  16.263
  109CHL1    C914289   2.612   6.242  16.265
  109CHL1    H914290   2.721   6.225  16.253
  109CHL1   C1014291   2.590   6.262  16.417
  109CHL1   C1914292   2.441   6.230  16.451
  109CHL1  H19A14293   2.414   6.125  16.427
  109CHL1  H19B14294   2.418   6.243  16.559
  109CHL1  H19C14295   2.374   6.296  16.394
  109CHL1    C114296   2.694   6.173  16.492
  109CHL1   H1A14297   2.687   6.068  16.457
  109CHL1   H1B14298   2.795   6.207  16.462
  109CHL1    C214299   2.685   6.181  16.644
  109CHL1   H2A14300   2.761   6.114  16.690
  109CHL1   H2B14301   2.585   6.146  16.678
  109CHL1   C2014302   2.504   6.160  15.718
  109CHL1   H2014303   2.399   6.193  15.732
  109CHL1   C2114304   2.506   6.006  15.732
  109CHL1  H21A14305   2.447   5.973  15.820
  109CHL1  H21B14306   2.611   5.970  15.743
  109CHL1  H21C14307   2.462   5.958  15.642
  109CHL1   C2214308   2.535   6.201  15.572
  109CHL1  H22A14309   2.472   6.140  15.504
  109CHL1  H22B14310   2.504   6.306  15.557
  109CHL1   C2314311   2.681   6.188  15.530
  109CHL1  H23A14312   2.746   6.243  15.602
  109CHL1  H23B14313   2.711   6.081  15.533
  109CHL1   C2414314   2.708   6.249  15.392
  109CHL1  H24A14315   2.648   6.197  15.315
  109CHL1  H24B14316   2.679   6.356  15.394
  109CHL1   C2514317   2.857   6.239  15.357
  109CHL1   H2514318   2.916   6.263  15.447
  109CHL1   C2614319   2.891   6.095  15.317
  109CHL1  H26A14320   2.821   6.055  15.241
  109CHL1  H26B14321   2.995   6.089  15.277
  109CHL1  H26C14322   2.889   6.029  15.407
  109CHL1   C2714323   2.898   6.341  15.250
  109CHL1  H27A14324   2.992   6.309  15.199
  109CHL1  H27B14325   2.818   6.354  15.174
  109CHL1  H27C14326   2.917   6.440  15.297
  110CHL1    C314327   1.249   5.455  16.709
  110CHL1    H314328   1.307   5.549  16.697
  110CHL1    O314329   1.225   5.430  16.847
  110CHL1   H3'14330   1.199   5.337  16.851
  110CHL1    C414331   1.119   5.480  16.633
  110CHL1   H4A14332   1.051   5.395  16.655
  110CHL1   H4B14333   1.072   5.571  16.675
  110CHL1    C514334   1.140   5.491  16.482
  110CHL1    C614335   1.096   5.593  16.409
  110CHL1    H614336   1.043   5.677  16.457
  110CHL1    C714337   1.097   5.590  16.260
  110CHL1   H7A14338   0.997   5.615  16.218
  110CHL1   H7B14339   1.165   5.671  16.226
  110CHL1    C814340   1.150   5.463  16.189
  110CHL1    H814341   1.064   5.395  16.173
  110CHL1   C1414342   1.214   5.499  16.057
  110CHL1   H1414343   1.312   5.547  16.081
  110CHL1   C1514344   1.145   5.604  15.970
  110CHL1  H15A14345   1.035   5.584  15.974
  110CHL1  H15B14346   1.162   5.709  16.004
  110CHL1   C1614347   1.200   5.579  15.831
  110CHL1  H16A14348   1.115   5.561  15.761
  110CHL1  H16B14349   1.259   5.666  15.796
  110CHL1   C1714350   1.290   5.453  15.840
  110CHL1   H1714351   1.393   5.490  15.859
  110CHL1   C1314352   1.247   5.379  15.969
  110CHL1   C1814353   1.123   5.293  15.935
  110CHL1  H18A14354   1.152   5.206  15.874
  110CHL1  H18B14355   1.073   5.253  16.026
  110CHL1  H18C14356   1.048   5.352  15.877
  110CHL1   C1214357   1.353   5.298  16.048
  110CHL1  H12A14358   1.379   5.205  15.993
  110CHL1  H12B14359   1.445   5.360  16.056
  110CHL1   C1114360   1.303   5.262  16.190
  110CHL1  H11A14361   1.220   5.189  16.180
  110CHL1  H11B14362   1.386   5.213  16.245
  110CHL1    C914363   1.254   5.388  16.269
  110CHL1    H914364   1.347   5.450  16.269
  110CHL1   C1014365   1.212   5.374  16.417
  110CHL1   C1914366   1.108   5.262  16.422
  110CHL1  H19A14367   1.081   5.234  16.526
  110CHL1  H19B14368   1.015   5.289  16.369
  110CHL1  H19C14369   1.150   5.172  16.372
  110CHL1    C114370   1.340   5.349  16.499
  110CHL1   H1A14371   1.382   5.256  16.456
  110CHL1   H1B14372   1.412   5.431  16.480
  110CHL1    C214373   1.324   5.335  16.651
  110CHL1   H2A14374   1.423   5.327  16.700
  110CHL1   H2B14375   1.267   5.242  16.673
  110CHL1   C2014376   1.295   5.379  15.707
  110CHL1   H2014377   1.194   5.339  15.684
  110CHL1   C2114378   1.394   5.262  15.720
  110CHL1  H21A14379   1.350   5.184  15.785
  110CHL1  H21B14380   1.490   5.296  15.763
  110CHL1  H21C14381   1.413   5.217  15.620
  110CHL1   C2214382   1.337   5.468  15.589
  110CHL1  H22A14383   1.296   5.571  15.597
  110CHL1  H22B14384   1.448   5.478  15.587
  110CHL1   C2314385   1.289   5.411  15.455
  110CHL1  H23A14386   1.333   5.309  15.442
  110CHL1  H23B14387   1.179   5.400  15.458
  110CHL1   C2414388   1.327   5.500  15.336
  110CHL1  H24A14389   1.287   5.601  15.355
  110CHL1  H24B14390   1.438   5.507  15.329
  110CHL1   C2514391   1.271   5.450  15.201
  110CHL1   H2514392   1.160   5.452  15.208
  110CHL1   C2614393   1.315   5.542  15.086
  110CHL1  H26A14394   1.287   5.647  15.107
  110CHL1  H26B14395   1.425   5.536  15.073
  110CHL1  H26C14396   1.266   5.510  14.991
  110CHL1   C2714397   1.315   5.307  15.171
  110CHL1  H27A14398   1.426   5.301  15.163
  110CHL1  H27B14399   1.282   5.238  15.251
  110CHL1  H27C14400   1.270   5.274  15.075
  111CHL1    C314401   3.273   0.656  16.780
  111CHL1    H314402   3.220   0.561  16.804
  111CHL1    O314403   3.274   0.737  16.896
  111CHL1   H3'14404   3.346   0.700  16.947
  111CHL1    C414405   3.417   0.630  16.739
  111CHL1   H4A14406   3.468   0.727  16.720
  111CHL1   H4B14407   3.471   0.582  16.824
  111CHL1    C514408   3.419   0.543  16.615
  111CHL1    C614409   3.477   0.422  16.617
  111CHL1    H614410   3.528   0.387  16.708
  111CHL1    C714411   3.486   0.333  16.496
  111CHL1   H7A14412   3.588   0.291  16.487
  111CHL1   H7B14413   3.414   0.249  16.506
  111CHL1    C814414   3.453   0.413  16.367
  111CHL1    H814415   3.538   0.482  16.350
  111CHL1   C1414416   3.441   0.319  16.249
  111CHL1   H1414417   3.358   0.249  16.270
  111CHL1   C1514418   3.565   0.232  16.221
  111CHL1  H15A14419   3.657   0.289  16.242
  111CHL1  H15B14420   3.565   0.139  16.282
  111CHL1   C1614421   3.555   0.202  16.071
  111CHL1  H16A14422   3.647   0.240  16.022
  111CHL1  H16B14423   3.550   0.093  16.050
  111CHL1   C1714424   3.429   0.276  16.017
  111CHL1   H1714425   3.344   0.207  16.028
  111CHL1   C1314426   3.406   0.390  16.119
  111CHL1   C1814427   3.507   0.504  16.093
  111CHL1  H18A14428   3.486   0.553  15.995
  111CHL1  H18B14429   3.502   0.584  16.169
  111CHL1  H18C14430   3.611   0.466  16.094
  111CHL1   C1214431   3.262   0.444  16.136
  111CHL1  H12A14432   3.225   0.494  16.044
  111CHL1  H12B14433   3.194   0.358  16.157
  111CHL1   C1114434   3.256   0.544  16.253
  111CHL1  H11A14435   3.305   0.637  16.217
  111CHL1  H11B14436   3.150   0.570  16.272
  111CHL1    C914437   3.323   0.493  16.385
  111CHL1    H914438   3.250   0.419  16.424
  111CHL1   C1014439   3.341   0.601  16.495
  111CHL1   C1914440   3.421   0.722  16.439
  111CHL1  H19A14441   3.519   0.690  16.397
  111CHL1  H19B14442   3.364   0.773  16.358
  111CHL1  H19C14443   3.440   0.798  16.517
  111CHL1    C114444   3.199   0.648  16.539
  111CHL1   H1A14445   3.154   0.709  16.458
  111CHL1   H1B14446   3.135   0.559  16.554
  111CHL1    C214447   3.199   0.729  16.669
  111CHL1   H2A14448   3.094   0.747  16.701
  111CHL1   H2B14449   3.247   0.828  16.651
  111CHL1   C2014450   3.445   0.307  15.868
  111CHL1   H2014451   3.540   0.364  15.854
  111CHL1   C2114452   3.330   0.395  15.814
  111CHL1  H21A14453   3.232   0.343  15.825
  111CHL1  H21B14454   3.346   0.419  15.707
  111CHL1  H21C14455   3.327   0.493  15.866
  111CHL1   C2214456   3.458   0.177  15.784
  111CHL1  H22A14457   3.543   0.116  15.822
  111CHL1  H22B14458   3.365   0.116  15.794
  111CHL1   C2314459   3.484   0.205  15.636
  111CHL1  H23A14460   3.398   0.257  15.589
  111CHL1  H23B14461   3.573   0.271  15.630
  111CHL1   C2414462   3.517   0.082  15.550
  111CHL1  H24A14463   3.587   0.016  15.605
  111CHL1  H24B14464   3.425   0.024  15.529
  111CHL1   C2514465   3.585   0.125  15.418
  111CHL1   H2514466   3.679   0.178  15.443
  111CHL1   C2614467   3.622   0.002  15.337
  111CHL1  H26A14468   3.694  -0.058  15.396
  111CHL1  H26B14469   3.533  -0.060  15.315
  111CHL1  H26C14470   3.670   0.031  15.240
  111CHL1   C2714471   3.498   0.219  15.334
  111CHL1  H27A14472   3.521   0.207  15.226
  111CHL1  H27B14473   3.390   0.200  15.351
  111CHL1  H27C14474   3.520   0.325  15.360
  112CHL1    C314475   4.642   0.694  16.749
  112CHL1    H314476   4.627   0.585  16.758
  112CHL1    O314477   4.655   0.750  16.879
  112CHL1   H3'14478   4.623   0.840  16.867
  112CHL1    C414479   4.772   0.722  16.670
  112CHL1   H4A14480   4.802   0.827  16.690
  112CHL1   H4B14481   4.852   0.658  16.715
  112CHL1    C514482   4.765   0.702  16.520
  112CHL1    C614483   4.856   0.631  16.451
  112CHL1    H614484   4.941   0.584  16.503
  112CHL1    C714485   4.859   0.623  16.300
  112CHL1   H7A14486   4.962   0.636  16.261
  112CHL1   H7B14487   4.824   0.523  16.267
  112CHL1    C814488   4.768   0.731  16.235
  112CHL1    H814489   4.817   0.830  16.250
  112CHL1   C1414490   4.755   0.709  16.085
  112CHL1   H1414491   4.713   0.607  16.072
  112CHL1   C1514492   4.884   0.711  16.000
  112CHL1  H15A14493   4.947   0.797  16.031
  112CHL1  H15B14494   4.943   0.617  16.011
  112CHL1   C1614495   4.833   0.731  15.857
  112CHL1  H16A14496   4.885   0.818  15.812
  112CHL1  H16B14497   4.851   0.642  15.793
  112CHL1   C1714498   4.679   0.759  15.869
  112CHL1   H1714499   4.629   0.661  15.859
  112CHL1   C1314500   4.658   0.804  16.014
  112CHL1   C1814501   4.704   0.952  16.027
  112CHL1  H18A14502   4.717   0.981  16.133
  112CHL1  H18B14503   4.800   0.969  15.975
  112CHL1  H18C14504   4.628   1.019  15.983
  112CHL1   C1214505   4.519   0.779  16.076
  112CHL1  H12A14506   4.440   0.842  16.031
  112CHL1  H12B14507   4.491   0.673  16.060
  112CHL1   C1114508   4.521   0.810  16.226
  112CHL1  H11A14509   4.536   0.919  16.236
  112CHL1  H11B14510   4.421   0.785  16.269
  112CHL1    C914511   4.631   0.730  16.303
  112CHL1    H914512   4.597   0.625  16.299
  112CHL1   C1014513   4.643   0.767  16.454
  112CHL1   C1914514   4.659   0.920  16.464
  112CHL1  H19A14515   4.563   0.967  16.435
  112CHL1  H19B14516   4.682   0.955  16.567
  112CHL1  H19C14517   4.739   0.959  16.397
  112CHL1    C114518   4.514   0.725  16.530
  112CHL1   H1A14519   4.427   0.780  16.487
  112CHL1   H1B14520   4.495   0.617  16.513
  112CHL1    C214521   4.519   0.756  16.681
  112CHL1   H2A14522   4.427   0.716  16.729
  112CHL1   H2B14523   4.518   0.866  16.694
  112CHL1   C2014524   4.627   0.848  15.756
  112CHL1   H2014525   4.682   0.945  15.756
  112CHL1   C2114526   4.477   0.879  15.772
  112CHL1  H21A14527   4.418   0.785  15.783
  112CHL1  H21B14528   4.436   0.937  15.687
  112CHL1  H21C14529   4.461   0.945  15.861
  112CHL1   C2214530   4.656   0.781  15.619
  112CHL1  H22A14531   4.765   0.784  15.599
  112CHL1  H22B14532   4.625   0.674  15.622
  112CHL1   C2314533   4.583   0.849  15.505
  112CHL1  H23A14534   4.474   0.825  15.511
  112CHL1  H23B14535   4.595   0.959  15.515
  112CHL1   C2414536   4.633   0.807  15.368
  112CHL1  H24A14537   4.743   0.820  15.363
  112CHL1  H24B14538   4.610   0.700  15.348
  112CHL1   C2514539   4.569   0.895  15.260
  112CHL1   H2514540   4.586   1.001  15.287
  112CHL1   C2614541   4.637   0.869  15.126
  112CHL1  H26A14542   4.648   0.759  15.111
  112CHL1  H26B14543   4.581   0.914  15.042
  112CHL1  H26C14544   4.739   0.913  15.130
  112CHL1   C2714545   4.418   0.876  15.248
  112CHL1  H27A14546   4.382   0.947  15.170
  112CHL1  H27B14547   4.393   0.772  15.218
  112CHL1  H27C14548   4.366   0.901  15.343
  113CHL1    C314549   0.583   4.988  16.722
  113CHL1    H314550   0.585   4.877  16.720
  113CHL1    O314551   0.583   5.032  16.857
  113CHL1   H3'14552   0.508   4.987  16.897
  113CHL1    C414553   0.705   5.045  16.649
  113CHL1   H4A14554   0.706   5.156  16.660
  113CHL1   H4B14555   0.801   5.016  16.697
  113CHL1    C514556   0.698   5.000  16.504
  113CHL1    C614557   0.779   4.908  16.451
  113CHL1    H614558   0.858   4.861  16.512
  113CHL1    C714559   0.774   4.867  16.306
  113CHL1   H7A14560   0.876   4.843  16.268
  113CHL1   H7B14561   0.711   4.777  16.293
  113CHL1    C814562   0.716   4.983  16.222
  113CHL1    H814563   0.785   5.069  16.233
  113CHL1   C1414564   0.703   4.944  16.075
  113CHL1   H1414565   0.622   4.868  16.069
  113CHL1   C1514566   0.825   4.880  16.006
  113CHL1  H15A14567   0.920   4.920  16.046
  113CHL1  H15B14568   0.823   4.770  16.020
  113CHL1   C1614569   0.809   4.919  15.858
  113CHL1  H16A14570   0.893   4.986  15.828
  113CHL1  H16B14571   0.809   4.830  15.790
  113CHL1   C1714572   0.675   4.994  15.846
  113CHL1   H1714573   0.596   4.917  15.840
  113CHL1   C1314574   0.661   5.059  15.985
  113CHL1   C1814575   0.769   5.170  16.000
  113CHL1  H18A14576   0.799   5.214  15.902
  113CHL1  H18B14577   0.731   5.252  16.063
  113CHL1  H18C14578   0.863   5.133  16.046
  113CHL1   C1214579   0.520   5.100  16.030
  113CHL1  H12A14580   0.486   5.190  15.974
  113CHL1  H12B14581   0.451   5.016  16.008
  113CHL1   C1114582   0.514   5.132  16.180
  113CHL1  H11A14583   0.567   5.230  16.188
  113CHL1  H11B14584   0.409   5.149  16.211
  113CHL1    C914585   0.579   5.025  16.275
  113CHL1    H914586   0.514   4.935  16.267
  113CHL1   C1014587   0.583   5.063  16.426
  113CHL1   C1914588   0.595   5.216  16.435
  113CHL1  H19A14589   0.511   5.268  16.383
  113CHL1  H19B14590   0.592   5.257  16.538
  113CHL1  H19C14591   0.691   5.245  16.387
  113CHL1    C114592   0.457   5.013  16.501
  113CHL1   H1A14593   0.370   5.066  16.458
  113CHL1   H1B14594   0.445   4.904  16.482
  113CHL1    C214595   0.455   5.035  16.654
  113CHL1   H2A14596   0.365   4.987  16.698
  113CHL1   H2B14597   0.448   5.145  16.673
  113CHL1   C2014598   0.663   5.081  15.720
  113CHL1   H2014599   0.728   5.171  15.727
  113CHL1   C2114600   0.518   5.130  15.702
  113CHL1  H21A14601   0.503   5.169  15.598
  113CHL1  H21B14602   0.495   5.214  15.771
  113CHL1  H21C14603   0.448   5.047  15.719
  113CHL1   C2214604   0.709   5.010  15.590
  113CHL1  H22A14605   0.693   5.083  15.508
  113CHL1  H22B14606   0.818   4.990  15.593
  113CHL1   C2314607   0.634   4.879  15.556
  113CHL1  H23A14608   0.665   4.801  15.629
  113CHL1  H23B14609   0.525   4.894  15.568
  113CHL1   C2414610   0.659   4.828  15.413
  113CHL1  H24A14611   0.768   4.815  15.396
  113CHL1  H24B14612   0.612   4.728  15.404
  113CHL1   C2514613   0.600   4.922  15.305
  113CHL1   H2514614   0.531   4.992  15.357
  113CHL1   C2614615   0.709   5.002  15.233
  113CHL1  H26A14616   0.778   4.935  15.179
  113CHL1  H26B14617   0.663   5.070  15.158
  113CHL1  H26C14618   0.768   5.063  15.305
  113CHL1   C2714619   0.516   4.846  15.201
  113CHL1  H27A14620   0.442   4.914  15.154
  113CHL1  H27B14621   0.582   4.809  15.120
  113CHL1  H27C14622   0.461   4.761  15.247
  114CHL1    C314623   5.379   7.147  16.736
  114CHL1    H314624   5.482   7.188  16.728
  114CHL1    O314625   5.346   7.132  16.873
  114CHL1   H3'14626   5.254   7.102  16.872
  114CHL1    C414627   5.280   7.245  16.671
  114CHL1   H4A14628   5.176   7.210  16.691
  114CHL1   H4B14629   5.290   7.343  16.721
  114CHL1    C514630   5.300   7.256  16.521
  114CHL1    C614631   5.318   7.374  16.461
  114CHL1    H614632   5.315   7.467  16.521
  114CHL1    C714633   5.328   7.391  16.312
  114CHL1   H7A14634   5.265   7.476  16.279
  114CHL1   H7B14635   5.433   7.414  16.285
  114CHL1    C814636   5.284   7.264  16.235
  114CHL1    H814637   5.173   7.257  16.239
  114CHL1   C1414638   5.326   7.277  16.090
  114CHL1   H1414639   5.437   7.282  16.090
  114CHL1   C1514640   5.279   7.404  16.017
  114CHL1  H15A14641   5.172   7.423  16.041
  114CHL1  H15B14642   5.339   7.493  16.045
  114CHL1   C1614643   5.295   7.369  15.869
  114CHL1  H16A14644   5.198   7.384  15.817
  114CHL1  H16B14645   5.373   7.432  15.821
  114CHL1   C1714646   5.336   7.218  15.863
  114CHL1   H1714647   5.447   7.215  15.866
  114CHL1   C1314648   5.291   7.159  15.999
  114CHL1   C1814649   5.140   7.135  15.992
  114CHL1  H18A14650   5.084   7.220  15.948
  114CHL1  H18B14651   5.121   7.045  15.929
  114CHL1  H18C14652   5.097   7.114  16.093
  114CHL1   C1214653   5.364   7.036  16.056
  114CHL1  H12A14654   5.338   6.944  15.999
  114CHL1  H12B14655   5.474   7.051  16.048
  114CHL1   C1114656   5.325   7.013  16.205
  114CHL1  H11A14657   5.219   6.981  16.206
  114CHL1  H11B14658   5.384   6.927  16.245
  114CHL1    C914659   5.346   7.138  16.296
  114CHL1    H914660   5.455   7.156  16.296
  114CHL1   C1014661   5.303   7.121  16.445
  114CHL1   C1914662   5.160   7.064  16.449
  114CHL1  H19A14663   5.090   7.127  16.390
  114CHL1  H19B14664   5.160   6.961  16.408
  114CHL1  H19C14665   5.120   7.056  16.553
  114CHL1    C114666   5.400   7.023  16.517
  114CHL1   H1A14667   5.388   6.922  16.471
  114CHL1   H1B14668   5.504   7.056  16.500
  114CHL1    C214669   5.374   7.010  16.668
  114CHL1   H2A14670   5.449   6.942  16.714
  114CHL1   H2B14671   5.274   6.964  16.685
  114CHL1   C2014672   5.295   7.155  15.729
  114CHL1   H2014673   5.185   7.162  15.718
  114CHL1   C2114674   5.339   7.006  15.727
  114CHL1  H21A14675   5.328   6.963  15.625
  114CHL1  H21B14676   5.276   6.945  15.795
  114CHL1  H21C14677   5.444   6.995  15.759
  114CHL1   C2214678   5.358   7.232  15.610
  114CHL1  H22A14679   5.348   7.342  15.624
  114CHL1  H22B14680   5.467   7.209  15.613
  114CHL1   C2314681   5.306   7.204  15.469
  114CHL1  H23A14682   5.382   7.240  15.396
  114CHL1  H23B14683   5.295   7.094  15.454
  114CHL1   C2414684   5.174   7.277  15.438
  114CHL1  H24A14685   5.096   7.238  15.507
  114CHL1  H24B14686   5.185   7.385  15.461
  114CHL1   C2514687   5.122   7.266  15.292
  114CHL1   H2514688   5.011   7.264  15.298
  114CHL1   C2614689   5.163   7.385  15.205
  114CHL1  H26A14690   5.129   7.481  15.250
  114CHL1  H26B14691   5.273   7.388  15.192
  114CHL1  H26C14692   5.116   7.376  15.104
  114CHL1   C2714693   5.166   7.138  15.222
  114CHL1  H27A14694   5.117   7.130  15.122
  114CHL1  H27B14695   5.276   7.138  15.206
  114CHL1  H27C14696   5.138   7.048  15.281
  115CHL1    C314697   1.856   0.674  16.730
  115CHL1    H314698   1.752   0.656  16.698
  115CHL1    O314699   1.860   0.681  16.872
  115CHL1   H3'14700   1.872   0.591  16.901
  115CHL1    C414701   1.945   0.557  16.683
  115CHL1   H4A14702   2.046   0.569  16.729
  115CHL1   H4B14703   1.902   0.463  16.725
  115CHL1    C514704   1.958   0.549  16.533
  115CHL1    C614705   1.926   0.438  16.464
  115CHL1    H614706   1.892   0.348  16.518
  115CHL1    C714707   1.943   0.425  16.316
  115CHL1   H7A14708   1.986   0.326  16.290
  115CHL1   H7B14709   1.844   0.434  16.268
  115CHL1    C814710   2.034   0.536  16.256
  115CHL1    H814711   2.139   0.516  16.287
  115CHL1   C1414712   2.027   0.534  16.105
  115CHL1   H1414713   1.920   0.551  16.079
  115CHL1   C1514714   2.067   0.404  16.034
  115CHL1  H15A14715   2.166   0.369  16.072
  115CHL1  H15B14716   1.994   0.322  16.051
  115CHL1   C1614717   2.078   0.446  15.887
  115CHL1  H16A14718   2.170   0.403  15.843
  115CHL1  H16B14719   1.991   0.412  15.828
  115CHL1   C1714720   2.081   0.603  15.887
  115CHL1   H1714721   1.978   0.636  15.864
  115CHL1   C1314722   2.105   0.644  16.034
  115CHL1   C1814723   2.257   0.632  16.064
  115CHL1  H18A14724   2.299   0.538  16.022
  115CHL1  H18B14725   2.311   0.717  16.019
  115CHL1  H18C14726   2.277   0.633  16.173
  115CHL1   C1214727   2.048   0.779  16.080
  115CHL1  H12A14728   2.103   0.864  16.033
  115CHL1  H12B14729   1.941   0.786  16.048
  115CHL1   C1114730   2.056   0.793  16.233
  115CHL1  H11A14731   2.164   0.801  16.258
  115CHL1  H11B14732   2.007   0.888  16.263
  115CHL1    C914733   1.991   0.673  16.309
  115CHL1    H914734   1.883   0.681  16.285
  115CHL1   C1014735   2.002   0.680  16.464
  115CHL1   C1914736   2.150   0.706  16.501
  115CHL1  H19A14737   2.167   0.701  16.610
  115CHL1  H19B14738   2.217   0.632  16.452
  115CHL1  H19C14739   2.178   0.808  16.468
  115CHL1    C114740   1.913   0.796  16.517
  115CHL1   H1A14741   1.949   0.892  16.475
  115CHL1   H1B14742   1.810   0.780  16.477
  115CHL1    C214743   1.905   0.806  16.670
  115CHL1   H2A14744   1.836   0.889  16.698
  115CHL1   H2B14745   2.005   0.831  16.710
  115CHL1   C2014746   2.174   0.658  15.779
  115CHL1   H2014747   2.278   0.629  15.801
  115CHL1   C2114748   2.167   0.812  15.774
  115CHL1  H21A14749   2.061   0.848  15.772
  115CHL1  H21B14750   2.217   0.849  15.682
  115CHL1  H21C14751   2.218   0.858  15.861
  115CHL1   C2214752   2.141   0.602  15.639
  115CHL1  H22A14753   2.210   0.650  15.568
  115CHL1  H22B14754   2.160   0.493  15.634
  115CHL1   C2314755   1.997   0.630  15.595
  115CHL1  H23A14756   1.929   0.548  15.628
  115CHL1  H23B14757   1.958   0.723  15.641
  115CHL1   C2414758   1.993   0.649  15.444
  115CHL1  H24A14759   2.053   0.740  15.421
  115CHL1  H24B14760   2.042   0.563  15.393
  115CHL1   C2514761   1.854   0.668  15.382
  115CHL1   H2514762   1.805   0.569  15.372
  115CHL1   C2614763   1.759   0.758  15.463
  115CHL1  H26A14764   1.662   0.769  15.410
  115CHL1  H26B14765   1.739   0.715  15.563
  115CHL1  H26C14766   1.804   0.859  15.476
  115CHL1   C2714767   1.877   0.728  15.243
  115CHL1  H27A14768   1.939   0.819  15.252
  115CHL1  H27B14769   1.928   0.655  15.177
  115CHL1  H27C14770   1.780   0.757  15.196
  116CHL1    C314771   2.571   0.300  16.702
  116CHL1    H314772   2.500   0.227  16.655
  116CHL1    O314773   2.565   0.286  16.843
  116CHL1   H3'14774   2.603   0.199  16.860
  116CHL1    C414775   2.714   0.271  16.654
  116CHL1   H4A14776   2.783   0.338  16.709
  116CHL1   H4B14777   2.740   0.167  16.684
  116CHL1    C514778   2.733   0.292  16.505
  116CHL1    C614779   2.787   0.199  16.427
  116CHL1    H614780   2.818   0.103  16.471
  116CHL1    C714781   2.817   0.216  16.281
  116CHL1   H7A14782   2.921   0.186  16.257
  116CHL1   H7B14783   2.749   0.150  16.224
  116CHL1    C814784   2.790   0.358  16.226
  116CHL1    H814785   2.878   0.423  16.244
  116CHL1   C1414786   2.769   0.345  16.077
  116CHL1   H1414787   2.684   0.275  16.063
  116CHL1   C1514788   2.886   0.285  16.000
  116CHL1  H15A14789   2.980   0.338  16.025
  116CHL1  H15B14790   2.901   0.176  16.018
  116CHL1   C1614791   2.844   0.314  15.857
  116CHL1  H16A14792   2.934   0.353  15.805
  116CHL1  H16B14793   2.805   0.222  15.807
  116CHL1   C1714794   2.726   0.416  15.859
  116CHL1   H1714795   2.634   0.354  15.853
  116CHL1   C1314796   2.729   0.472  16.003
  116CHL1   C1814797   2.839   0.581  16.012
  116CHL1  H18A14798   2.864   0.604  16.118
  116CHL1  H18B14799   2.932   0.549  15.961
  116CHL1  H18C14800   2.804   0.674  15.963
  116CHL1   C1214801   2.596   0.519  16.066
  116CHL1  H12A14802   2.559   0.611  16.016
  116CHL1  H12B14803   2.520   0.439  16.050
  116CHL1   C1114804   2.612   0.542  16.218
  116CHL1  H11A14805   2.681   0.627  16.237
  116CHL1  H11B14806   2.512   0.571  16.259
  116CHL1    C914807   2.664   0.414  16.291
  116CHL1    H914808   2.585   0.339  16.273
  116CHL1   C1014809   2.680   0.423  16.446
  116CHL1   C1914810   2.792   0.525  16.479
  116CHL1  H19A14811   2.809   0.530  16.589
  116CHL1  H19B14812   2.889   0.496  16.434
  116CHL1  H19C14813   2.767   0.626  16.441
  116CHL1    C114814   2.542   0.459  16.508
  116CHL1   H1A14815   2.515   0.563  16.481
  116CHL1   H1B14816   2.466   0.393  16.462
  116CHL1    C214817   2.531   0.442  16.661
  116CHL1   H2A14818   2.427   0.463  16.694
  116CHL1   H2B14819   2.599   0.514  16.711
  116CHL1   C2014820   2.726   0.506  15.735
  116CHL1   H2014821   2.800   0.588  15.747
  116CHL1   C2114822   2.585   0.565  15.717
  116CHL1  H21A14823   2.581   0.629  15.627
  116CHL1  H21B14824   2.558   0.627  15.805
  116CHL1  H21C14825   2.510   0.484  15.706
  116CHL1   C2214826   2.765   0.426  15.608
  116CHL1  H22A14827   2.867   0.384  15.622
  116CHL1  H22B14828   2.694   0.341  15.595
  116CHL1   C2314829   2.779   0.500  15.474
  116CHL1  H23A14830   2.680   0.530  15.434
  116CHL1  H23B14831   2.840   0.592  15.491
  116CHL1   C2414832   2.851   0.406  15.375
  116CHL1  H24A14833   2.943   0.366  15.423
  116CHL1  H24B14834   2.785   0.320  15.354
  116CHL1   C2514835   2.896   0.469  15.242
  116CHL1   H2514836   2.809   0.521  15.197
  116CHL1   C2614837   3.009   0.569  15.267
  116CHL1  H26A14838   3.040   0.614  15.170
  116CHL1  H26B14839   2.976   0.651  15.334
  116CHL1  H26C14840   3.097   0.519  15.311
  116CHL1   C2714841   2.946   0.362  15.144
  116CHL1  H27A14842   2.875   0.276  15.140
  116CHL1  H27B14843   2.956   0.405  15.042
  116CHL1  H27C14844   3.045   0.323  15.176
  117CHL1    C314845   5.436   0.303  16.711
  117CHL1    H314846   5.542   0.279  16.692
  117CHL1    O314847   5.414   0.310  16.852
  117CHL1   H3'14848   5.433   0.401  16.877
  117CHL1    C414849   5.400   0.437  16.643
  117CHL1   H4A14850   5.298   0.465  16.675
  117CHL1   H4B14851   5.469   0.515  16.682
  117CHL1    C514852   5.405   0.430  16.491
  117CHL1    C614853   5.478   0.515  16.416
  117CHL1    H614854   5.536   0.594  16.465
  117CHL1    C714855   5.479   0.514  16.266
  117CHL1   H7A14856   5.468   0.617  16.226
  117CHL1   H7B14857   5.578   0.476  16.230
  117CHL1    C814858   5.368   0.425  16.203
  117CHL1    H814859   5.271   0.480  16.212
  117CHL1   C1414860   5.395   0.399  16.056
  117CHL1   H1414861   5.493   0.347  16.051
  117CHL1   C1514862   5.409   0.522  15.964
  117CHL1  H15A14863   5.330   0.597  15.988
  117CHL1  H15B14864   5.509   0.570  15.975
  117CHL1   C1614865   5.387   0.465  15.823
  117CHL1  H16A14866   5.303   0.520  15.775
  117CHL1  H16B14867   5.477   0.476  15.759
  117CHL1   C1714868   5.349   0.314  15.841
  117CHL1   H1714869   5.445   0.258  15.840
  117CHL1   C1314870   5.296   0.306  15.986
  117CHL1   C1814871   5.152   0.364  15.989
  117CHL1  H18A14872   5.145   0.462  15.936
  117CHL1  H18B14873   5.081   0.294  15.940
  117CHL1  H18C14874   5.117   0.380  16.093
  117CHL1   C1214875   5.303   0.170  16.057
  117CHL1  H12A14876   5.230   0.098  16.015
  117CHL1  H12B14877   5.405   0.127  16.044
  117CHL1   C1114878   5.272   0.184  16.207
  117CHL1  H11A14879   5.164   0.209  16.216
  117CHL1  H11B14880   5.286   0.085  16.255
  117CHL1    C914881   5.359   0.292  16.279
  117CHL1    H914882   5.462   0.251  16.275
  117CHL1   C1014883   5.325   0.314  16.428
  117CHL1   C1914884   5.176   0.354  16.441
  117CHL1  H19A14885   5.152   0.446  16.383
  117CHL1  H19B14886   5.110   0.272  16.404
  117CHL1  H19C14887   5.147   0.371  16.546
  117CHL1    C114888   5.355   0.181  16.505
  117CHL1   H1A14889   5.283   0.104  16.470
  117CHL1   H1B14890   5.457   0.148  16.477
  117CHL1    C214891   5.347   0.191  16.657
  117CHL1   H2A14892   5.374   0.094  16.704
  117CHL1   H2B14893   5.242   0.216  16.686
  117CHL1   C2014894   5.263   0.260  15.725
  117CHL1   H2014895   5.164   0.310  15.728
  117CHL1   C2114896   5.241   0.108  15.740
  117CHL1  H21A14897   5.338   0.055  15.758
  117CHL1  H21B14898   5.195   0.065  15.648
  117CHL1  H21C14899   5.171   0.086  15.823
  117CHL1   C2214900   5.327   0.291  15.587
  117CHL1  H22A14901   5.344   0.401  15.578
  117CHL1  H22B14902   5.425   0.241  15.579
  117CHL1   C2314903   5.241   0.253  15.464
  117CHL1  H23A14904   5.293   0.294  15.375
  117CHL1  H23B14905   5.236   0.143  15.452
  117CHL1   C2414906   5.099   0.311  15.473
  117CHL1  H24A14907   5.042   0.256  15.551
  117CHL1  H24B14908   5.105   0.417  15.505
  117CHL1   C2514909   5.016   0.307  15.343
  117CHL1   H2514910   5.005   0.201  15.311
  117CHL1   C2614911   4.876   0.364  15.371
  117CHL1  H26A14912   4.884   0.466  15.414
  117CHL1  H26B14913   4.817   0.370  15.277
  117CHL1  H26C14914   4.822   0.299  15.443
  117CHL1   C2714915   5.085   0.383  15.229
  117CHL1  H27A14916   5.173   0.327  15.191
  117CHL1  H27B14917   5.015   0.398  15.144
  117CHL1  H27C14918   5.120   0.482  15.265
  118CHL1    C314919   7.435   1.584  16.734
  118CHL1    H314920   7.470   1.682  16.694
  118CHL1    O314921   7.402   1.600  16.871
  118CHL1   H3'14922   7.306   1.601  16.872
  118CHL1    C414923   7.308   1.540  16.658
  118CHL1   H4A14924   7.272   1.445  16.703
  118CHL1   H4B14925   7.229   1.616  16.675
  118CHL1    C514926   7.334   1.519  16.510
  118CHL1    C614927   7.259   1.581  16.418
  118CHL1    H614928   7.173   1.640  16.451
  118CHL1    C714929   7.281   1.570  16.270
  118CHL1   H7A14930   7.184   1.558  16.217
  118CHL1   H7B14931   7.328   1.664  16.234
  118CHL1    C814932   7.375   1.454  16.232
  118CHL1    H814933   7.316   1.361  16.238
  118CHL1   C1414934   7.428   1.476  16.092
  118CHL1   H1414935   7.495   1.565  16.097
  118CHL1   C1514936   7.325   1.510  15.983
  118CHL1  H15A14937   7.233   1.449  15.997
  118CHL1  H15B14938   7.298   1.618  15.983
  118CHL1   C1614939   7.395   1.468  15.854
  118CHL1  H16A14940   7.333   1.390  15.804
  118CHL1  H16B14941   7.407   1.552  15.782
  118CHL1   C1714942   7.533   1.408  15.895
  118CHL1   H1714943   7.606   1.493  15.899
  118CHL1   C1314944   7.514   1.362  16.039
  118CHL1   C1814945   7.431   1.233  16.035
  118CHL1  H18A14946   7.338   1.251  15.976
  118CHL1  H18B14947   7.487   1.150  15.987
  118CHL1  H18C14948   7.401   1.199  16.136
  118CHL1   C1214949   7.638   1.350  16.129
  118CHL1  H12A14950   7.699   1.262  16.100
  118CHL1  H12B14951   7.701   1.441  16.118
  118CHL1   C1114952   7.596   1.336  16.277
  118CHL1  H11A14953   7.546   1.237  16.286
  118CHL1  H11B14954   7.687   1.335  16.341
  118CHL1    C914955   7.496   1.444  16.326
  118CHL1    H914956   7.549   1.541  16.317
  118CHL1   C1014957   7.456   1.431  16.475
  118CHL1   C1914958   7.409   1.287  16.502
  118CHL1  H19A14959   7.494   1.215  16.489
  118CHL1  H19B14960   7.376   1.276  16.607
  118CHL1  H19C14961   7.326   1.257  16.435
  118CHL1    C114962   7.578   1.465  16.565
  118CHL1   H1A14963   7.655   1.385  16.555
  118CHL1   H1B14964   7.624   1.559  16.529
  118CHL1    C214965   7.546   1.481  16.715
  118CHL1   H2A14966   7.637   1.512  16.770
  118CHL1   H2B14967   7.514   1.383  16.757
  118CHL1   C2014968   7.581   1.312  15.786
  118CHL1   H2014969   7.505   1.231  15.780
  118CHL1   C2114970   7.711   1.237  15.814
  118CHL1  H21A14971   7.731   1.164  15.733
  118CHL1  H21B14972   7.706   1.179  15.909
  118CHL1  H21C14973   7.796   1.308  15.817
  118CHL1   C2214974   7.584   1.393  15.655
  118CHL1  H22A14975   7.480   1.418  15.623
  118CHL1  H22B14976   7.637   1.489  15.676
  118CHL1   C2314977   7.652   1.339  15.531
  118CHL1  H23A14978   7.760   1.319  15.549
  118CHL1  H23B14979   7.604   1.243  15.500
  118CHL1   C2414980   7.636   1.448  15.423
  118CHL1  H24A14981   7.529   1.459  15.398
  118CHL1  H24B14982   7.670   1.546  15.462
  118CHL1   C2514983   7.714   1.419  15.296
  118CHL1   H2514984   7.820   1.399  15.323
  118CHL1   C2614985   7.651   1.296  15.234
  118CHL1  H26A14986   7.698   1.277  15.135
  118CHL1  H26B14987   7.665   1.206  15.297
  118CHL1  H26C14988   7.543   1.315  15.218
  118CHL1   C2714989   7.711   1.536  15.196
  118CHL1  H27A14990   7.765   1.507  15.103
  118CHL1  H27B14991   7.606   1.561  15.169
  118CHL1  H27C14992   7.761   1.625  15.238
  119CHL1    C314993   1.192   0.245  16.735
  119CHL1    H314994   1.121   0.161  16.721
  119CHL1    O314995   1.234   0.250  16.871
  119CHL1   H3'14996   1.153   0.245  16.923
  119CHL1    C414997   1.316   0.219  16.646
  119CHL1   H4A14998   1.400   0.281  16.683
  119CHL1   H4B14999   1.348   0.114  16.664
  119CHL1    C515000   1.291   0.246  16.499
  119CHL1    C615001   1.315   0.156  16.403
  119CHL1    H615002   1.356   0.058  16.433
  119CHL1    C715003   1.298   0.183  16.256
  119CHL1   H7A15004   1.379   0.135  16.196
  119CHL1   H7B15005   1.202   0.140  16.220
  119CHL1    C815006   1.301   0.334  16.225
  119CHL1    H815007   1.404   0.371  16.245
  119CHL1   C1415008   1.265   0.361  16.079
  119CHL1   H1415009   1.161   0.324  16.067
  119CHL1   C1515010   1.346   0.297  15.962
  119CHL1  H15A15011   1.454   0.295  15.988
  119CHL1  H15B15012   1.311   0.193  15.943
  119CHL1   C1615013   1.322   0.390  15.840
  119CHL1  H16A15014   1.418   0.433  15.804
  119CHL1  H16B15015   1.273   0.336  15.756
  119CHL1   C1715016   1.228   0.501  15.895
  119CHL1   H1715017   1.129   0.451  15.887
  119CHL1   C1315018   1.262   0.509  16.045
  119CHL1   C1815019   1.404   0.571  16.059
  119CHL1  H18A15020   1.444   0.559  16.162
  119CHL1  H18B15021   1.478   0.526  15.990
  119CHL1  H18C15022   1.402   0.680  16.039
  119CHL1   C1215023   1.159   0.579  16.134
  119CHL1  H12A15024   1.158   0.688  16.110
  119CHL1  H12B15025   1.058   0.538  16.114
  119CHL1   C1115026   1.191   0.559  16.281
  119CHL1  H11A15027   1.287   0.611  16.300
  119CHL1  H11B15028   1.114   0.608  16.344
  119CHL1    C915029   1.204   0.408  16.318
  119CHL1    H915030   1.105   0.364  16.298
  119CHL1   C1015031   1.233   0.384  16.469
  119CHL1   C1915032   1.334   0.491  16.517
  119CHL1  H19A15033   1.424   0.491  16.451
  119CHL1  H19B15034   1.287   0.591  16.515
  119CHL1  H19C15035   1.368   0.476  16.622
  119CHL1    C115036   1.101   0.396  16.550
  119CHL1   H1A15037   1.056   0.496  16.532
  119CHL1   H1B15038   1.029   0.320  16.513
  119CHL1    C215039   1.120   0.377  16.702
  119CHL1   H2A15040   1.021   0.379  16.753
  119CHL1   H2B15041   1.179   0.462  16.741
  119CHL1   C2015042   1.212   0.639  15.830
  119CHL1   H2015043   1.272   0.713  15.887
  119CHL1   C2115044   1.064   0.675  15.852
  119CHL1  H21A15045   1.057   0.773  15.904
  119CHL1  H21B15046   1.008   0.604  15.916
  119CHL1  H21C15047   1.008   0.683  15.757
  119CHL1   C2215048   1.264   0.656  15.683
  119CHL1  H22A15049   1.373   0.635  15.685
  119CHL1  H22B15050   1.218   0.576  15.622
  119CHL1   C2315051   1.246   0.796  15.613
  119CHL1  H23A15052   1.246   0.877  15.690
  119CHL1  H23B15053   1.335   0.812  15.548
  119CHL1   C2415054   1.120   0.805  15.523
  119CHL1  H24A15055   1.114   0.712  15.462
  119CHL1  H24B15056   1.030   0.791  15.587
  119CHL1   C2515057   1.095   0.910  15.414
  119CHL1   H2515058   1.076   1.010  15.459
  119CHL1   C2615059   1.212   0.916  15.319
  119CHL1  H26A15060   1.244   0.813  15.291
  119CHL1  H26B15061   1.177   0.958  15.222
  119CHL1  H26C15062   1.298   0.973  15.361
  119CHL1   C2715063   0.975   0.873  15.325
  119CHL1  H27A15064   1.005   0.792  15.254
  119CHL1  H27B15065   0.888   0.836  15.383
  119CHL1  H27C15066   0.942   0.959  15.263
  120CHL1    C315067   7.323   7.550  16.694
  120CHL1    H315068   7.219   7.513  16.683
  120CHL1    O315069   7.347   7.582  16.831
  120CHL1   H3'15070   7.306   7.667  16.846
  120CHL1    C415071   7.422   7.441  16.653
  120CHL1   H4A15072   7.523   7.480  16.678
  120CHL1   H4B15073   7.406   7.351  16.716
  120CHL1    C515074   7.421   7.408  16.505
  120CHL1    C615075   7.401   7.283  16.460
  120CHL1    H615076   7.388   7.201  16.532
  120CHL1    C715077   7.412   7.245  16.315
  120CHL1   H7A15078   7.475   7.154  16.304
  120CHL1   H7B15079   7.312   7.219  16.275
  120CHL1    C815080   7.475   7.358  16.227
  120CHL1    H815081   7.585   7.358  16.241
  120CHL1   C1415082   7.443   7.331  16.082
  120CHL1   H1415083   7.332   7.336  16.076
  120CHL1   C1515084   7.475   7.192  16.026
  120CHL1  H15A15085   7.579   7.163  16.053
  120CHL1  H15B15086   7.405   7.114  16.063
  120CHL1   C1615087   7.462   7.212  15.874
  120CHL1  H16A15088   7.556   7.181  15.825
  120CHL1  H16B15089   7.377   7.155  15.832
  120CHL1   C1715090   7.439   7.365  15.853
  120CHL1   H1715091   7.330   7.383  15.862
  120CHL1   C1315092   7.495   7.432  15.980
  120CHL1   C1815093   7.650   7.431  15.976
  120CHL1  H18A15094   7.692   7.461  16.074
  120CHL1  H18B15095   7.690   7.330  15.952
  120CHL1  H18C15096   7.687   7.502  15.899
  120CHL1   C1215097   7.441   7.571  16.016
  120CHL1  H12A15098   7.490   7.649  15.954
  120CHL1  H12B15099   7.332   7.575  15.993
  120CHL1   C1115100   7.464   7.606  16.164
  120CHL1  H11A15101   7.573   7.623  16.174
  120CHL1  H11B15102   7.412   7.701  16.187
  120CHL1    C915103   7.420   7.496  16.265
  120CHL1    H915104   7.309   7.486  16.257
  120CHL1   C1015105   7.442   7.531  16.414
  120CHL1   C1915106   7.586   7.584  16.429
  120CHL1  H19A15107   7.599   7.680  16.376
  120CHL1  H19B15108   7.613   7.604  16.535
  120CHL1  H19C15109   7.660   7.511  16.389
  120CHL1    C115110   7.339   7.640  16.458
  120CHL1   H1A15111   7.357   7.732  16.399
  120CHL1   H1B15112   7.237   7.605  16.433
  120CHL1    C215113   7.343   7.675  16.608
  120CHL1   H2A15114   7.265   7.751  16.632
  120CHL1   H2B15115   7.442   7.720  16.631
  120CHL1   C2015116   7.474   7.409  15.710
  120CHL1   H2015117   7.577   7.375  15.685
  120CHL1   C2115118   7.469   7.562  15.694
  120CHL1  H21A15119   7.483   7.590  15.587
  120CHL1  H21B15120   7.550   7.611  15.753
  120CHL1  H21C15121   7.371   7.601  15.728
  120CHL1   C2215122   7.375   7.347  15.609
  120CHL1  H22A15123   7.294   7.298  15.667
  120CHL1  H22B15124   7.326   7.426  15.547
  120CHL1   C2315125   7.425   7.234  15.520
  120CHL1  H23A15126   7.498   7.172  15.575
  120CHL1  H23B15127   7.336   7.171  15.498
  120CHL1   C2415128   7.479   7.279  15.384
  120CHL1  H24A15129   7.397   7.332  15.330
  120CHL1  H24B15130   7.558   7.355  15.401
  120CHL1   C2515131   7.528   7.163  15.296
  120CHL1   H2515132   7.441   7.095  15.280
  120CHL1   C2615133   7.569   7.212  15.158
  120CHL1  H26A15134   7.659   7.277  15.165
  120CHL1  H26B15135   7.592   7.127  15.091
  120CHL1  H26C15136   7.487   7.272  15.112
  120CHL1   C2715137   7.642   7.080  15.358
  120CHL1  H27A15138   7.730   7.144  15.380
  120CHL1  H27B15139   7.610   7.032  15.453
  120CHL1  H27C15140   7.673   7.000  15.288
  121CHL1    C315141   4.298   3.838  13.221
  121CHL1    H315142   4.274   3.945  13.239
  121CHL1    O315143   4.293   3.812  13.081
  121CHL1   H3'15144   4.363   3.864  13.041
  121CHL1    C415145   4.439   3.807  13.273
  121CHL1   H4A15146   4.467   3.705  13.239
  121CHL1   H4B15147   4.511   3.877  13.225
  121CHL1    C515148   4.446   3.814  13.425
  121CHL1    C615149   4.531   3.897  13.486
  121CHL1    H615150   4.600   3.958  13.425
  121CHL1    C715151   4.544   3.907  13.634
  121CHL1   H7A15152   4.652   3.914  13.661
  121CHL1   H7B15153   4.493   3.998  13.671
  121CHL1    C815154   4.484   3.784  13.707
  121CHL1    H815155   4.553   3.700  13.685
  121CHL1   C1415156   4.474   3.810  13.856
  121CHL1   H1415157   4.392   3.883  13.870
  121CHL1   C1515158   4.594   3.872  13.923
  121CHL1  H15A15159   4.688   3.822  13.892
  121CHL1  H15B15160   4.596   3.979  13.891
  121CHL1   C1615161   4.567   3.856  14.072
  121CHL1  H16A15162   4.661   3.823  14.120
  121CHL1  H16B15163   4.532   3.951  14.119
  121CHL1   C1715164   4.454   3.751  14.086
  121CHL1   H1715165   4.360   3.806  14.108
  121CHL1   C1315166   4.439   3.691  13.944
  121CHL1   C1815167   4.551   3.585  13.933
  121CHL1  H18A15168   4.517   3.489  13.977
  121CHL1  H18B15169   4.582   3.568  13.828
  121CHL1  H18C15170   4.643   3.617  13.985
  121CHL1   C1215171   4.298   3.648  13.898
  121CHL1  H12A15172   4.268   3.553  13.947
  121CHL1  H12B15173   4.226   3.727  13.929
  121CHL1   C1115174   4.286   3.632  13.744
  121CHL1  H11A15175   4.342   3.538  13.722
  121CHL1  H11B15176   4.180   3.616  13.716
  121CHL1    C915177   4.346   3.748  13.657
  121CHL1    H915178   4.282   3.837  13.676
  121CHL1   C1015179   4.345   3.726  13.502
  121CHL1   C1915180   4.384   3.579  13.475
  121CHL1  H19A15181   4.481   3.556  13.523
  121CHL1  H19B15182   4.306   3.511  13.517
  121CHL1  H19C15183   4.391   3.556  13.367
  121CHL1    C115184   4.204   3.758  13.445
  121CHL1   H1A15185   4.130   3.688  13.490
  121CHL1   H1B15186   4.175   3.861  13.475
  121CHL1    C215187   4.195   3.749  13.291
  121CHL1   H2A15188   4.093   3.776  13.256
  121CHL1   H2B15189   4.217   3.646  13.258
  121CHL1   C2015190   4.484   3.656  14.203
  121CHL1   H2015191   4.575   3.596  14.183
  121CHL1   C2115192   4.366   3.561  14.219
  121CHL1  H21A15193   4.352   3.498  14.128
  121CHL1  H21B15194   4.274   3.620  14.236
  121CHL1  H21C15195   4.381   3.491  14.303
  121CHL1   C2215196   4.513   3.732  14.335
  121CHL1  H22A15197   4.609   3.788  14.326
  121CHL1  H22B15198   4.433   3.806  14.355
  121CHL1   C2315199   4.527   3.637  14.456
  121CHL1  H23A15200   4.424   3.606  14.484
  121CHL1  H23B15201   4.585   3.547  14.428
  121CHL1   C2415202   4.595   3.706  14.574
  121CHL1  H24A15203   4.704   3.717  14.553
  121CHL1  H24B15204   4.554   3.809  14.579
  121CHL1   C2515205   4.575   3.639  14.712
  121CHL1   H2515206   4.610   3.714  14.786
  121CHL1   C2615207   4.428   3.608  14.743
  121CHL1  H26A15208   4.364   3.695  14.720
  121CHL1  H26B15209   4.393   3.522  14.682
  121CHL1  H26C15210   4.416   3.582  14.850
  121CHL1   C2715211   4.663   3.517  14.735
  121CHL1  H27A15212   4.640   3.437  14.661
  121CHL1  H27B15213   4.770   3.546  14.727
  121CHL1  H27C15214   4.646   3.476  14.837
  122CHL1    C315215   2.651   3.789  13.243
  122CHL1    H315216   2.733   3.721  13.274
  122CHL1    O315217   2.635   3.779  13.102
  122CHL1   H3'15218   2.565   3.840  13.078
  122CHL1    C415219   2.521   3.748  13.312
  122CHL1   H4A15220   2.438   3.812  13.275
  122CHL1   H4B15221   2.497   3.644  13.281
  122CHL1    C515222   2.531   3.760  13.463
  122CHL1    C615223   2.507   3.655  13.541
  122CHL1    H615224   2.475   3.559  13.497
  122CHL1    C715225   2.514   3.661  13.691
  122CHL1   H7A15226   2.427   3.610  13.737
  122CHL1   H7B15227   2.604   3.605  13.725
  122CHL1    C815228   2.525   3.803  13.749
  122CHL1    H815229   2.425   3.850  13.747
  122CHL1   C1415230   2.574   3.792  13.892
  122CHL1   H1415231   2.675   3.747  13.888
  122CHL1   C1515232   2.493   3.700  13.985
  122CHL1  H15A15233   2.386   3.728  13.974
  122CHL1  H15B15234   2.505   3.592  13.962
  122CHL1   C1615235   2.543   3.737  14.124
  122CHL1  H16A15236   2.455   3.755  14.189
  122CHL1  H16B15237   2.605   3.656  14.168
  122CHL1   C1715238   2.628   3.867  14.107
  122CHL1   H1715239   2.734   3.835  14.099
  122CHL1   C1315240   2.590   3.923  13.968
  122CHL1   C1815241   2.456   3.999  13.980
  122CHL1  H18A15242   2.382   3.940  14.039
  122CHL1  H18B15243   2.471   4.096  14.031
  122CHL1  H18C15244   2.411   4.019  13.880
  122CHL1   C1215245   2.695   4.006  13.889
  122CHL1  H12A15246   2.707   4.107  13.934
  122CHL1  H12B15247   2.792   3.953  13.893
  122CHL1   C1115248   2.654   4.022  13.740
  122CHL1  H11A15249   2.564   4.088  13.737
  122CHL1  H11B15250   2.736   4.075  13.686
  122CHL1    C915251   2.623   3.887  13.668
  122CHL1    H915252   2.719   3.831  13.670
  122CHL1   C1015253   2.582   3.897  13.517
  122CHL1   C1915254   2.464   3.997  13.503
  122CHL1  H19A15255   2.379   3.967  13.568
  122CHL1  H19B15256   2.496   4.099  13.533
  122CHL1  H19C15257   2.428   4.002  13.399
  122CHL1    C115258   2.704   3.946  13.434
  122CHL1   H1A15259   2.724   4.052  13.459
  122CHL1   H1B15260   2.793   3.886  13.464
  122CHL1    C215261   2.688   3.933  13.281
  122CHL1   H2A15262   2.782   3.962  13.231
  122CHL1   H2B15263   2.607   4.001  13.246
  122CHL1   C2015264   2.617   3.954  14.234
  122CHL1   H2015265   2.513   3.991  14.246
  122CHL1   C2115266   2.710   4.077  14.222
  122CHL1  H21A15267   2.679   4.141  14.137
  122CHL1  H21B15268   2.816   4.045  14.208
  122CHL1  H21C15269   2.703   4.140  14.313
  122CHL1   C2215270   2.650   3.867  14.359
  122CHL1  H22A15271   2.565   3.798  14.378
  122CHL1  H22B15272   2.740   3.804  14.337
  122CHL1   C2315273   2.678   3.942  14.490
  122CHL1  H23A15274   2.768   4.005  14.476
  122CHL1  H23B15275   2.591   4.009  14.512
  122CHL1   C2415276   2.701   3.848  14.609
  122CHL1  H24A15277   2.615   3.777  14.616
  122CHL1  H24B15278   2.793   3.788  14.591
  122CHL1   C2515279   2.715   3.920  14.744
  122CHL1   H2515280   2.618   3.971  14.765
  122CHL1   C2615281   2.739   3.821  14.860
  122CHL1  H26A15282   2.653   3.751  14.868
  122CHL1  H26B15283   2.831   3.763  14.842
  122CHL1  H26C15284   2.749   3.876  14.956
  122CHL1   C2715285   2.823   4.029  14.742
  122CHL1  H27A15286   2.818   4.088  14.837
  122CHL1  H27B15287   2.924   3.984  14.732
  122CHL1  H27C15288   2.807   4.101  14.659
  123CHL1    C315289   5.181   3.838  13.248
  123CHL1    H315290   5.178   3.728  13.254
  123CHL1    O315291   5.114   3.881  13.130
  123CHL1   H3'15292   5.092   3.973  13.145
  123CHL1    C415293   5.106   3.897  13.369
  123CHL1   H4A15294   5.060   3.994  13.340
  123CHL1   H4B15295   5.018   3.830  13.384
  123CHL1    C515296   5.184   3.915  13.499
  123CHL1    C615297   5.123   3.887  13.615
  123CHL1    H615298   5.017   3.858  13.615
  123CHL1    C715299   5.188   3.897  13.750
  123CHL1   H7A15300   5.125   3.957  13.819
  123CHL1   H7B15301   5.197   3.795  13.794
  123CHL1    C815302   5.329   3.961  13.745
  123CHL1    H815303   5.316   4.071  13.740
  123CHL1   C1415304   5.406   3.924  13.871
  123CHL1   H1415305   5.415   3.814  13.869
  123CHL1   C1515306   5.344   3.957  14.008
  123CHL1  H15A15307   5.306   4.062  14.008
  123CHL1  H15B15308   5.260   3.889  14.033
  123CHL1   C1615309   5.462   3.944  14.106
  123CHL1  H16A15310   5.470   4.036  14.167
  123CHL1  H16B15311   5.449   3.857  14.175
  123CHL1   C1715312   5.590   3.924  14.018
  123CHL1   H1715313   5.605   3.815  14.007
  123CHL1   C1315314   5.549   3.976  13.878
  123CHL1   C1815315   5.549   4.132  13.878
  123CHL1  H18A15316   5.493   4.173  13.791
  123CHL1  H18B15317   5.502   4.173  13.970
  123CHL1  H18C15318   5.652   4.171  13.872
  123CHL1   C1215319   5.625   3.919  13.757
  123CHL1  H12A15320   5.729   3.956  13.750
  123CHL1  H12B15321   5.629   3.808  13.765
  123CHL1   C1115322   5.557   3.957  13.625
  123CHL1  H11A15323   5.567   4.067  13.614
  123CHL1  H11B15324   5.613   3.908  13.542
  123CHL1    C915325   5.407   3.914  13.622
  123CHL1    H915326   5.409   3.803  13.629
  123CHL1   C1015327   5.335   3.948  13.489
  123CHL1   C1915328   5.363   4.097  13.458
  123CHL1  H19A15329   5.471   4.115  13.438
  123CHL1  H19B15330   5.311   4.129  13.365
  123CHL1  H19C15331   5.331   4.163  13.541
  123CHL1    C115332   5.397   3.864  13.374
  123CHL1   H1A15333   5.503   3.895  13.362
  123CHL1   H1B15334   5.395   3.756  13.402
  123CHL1    C215335   5.326   3.883  13.239
  123CHL1   H2A15336   5.374   3.822  13.160
  123CHL1   H2B15337   5.334   3.989  13.207
  123CHL1   C2015338   5.717   3.981  14.083
  123CHL1   H2015339   5.694   4.089  14.094
  123CHL1   C2115340   5.833   3.974  13.984
  123CHL1  H21A15341   5.931   3.989  14.033
  123CHL1  H21B15342   5.823   4.051  13.905
  123CHL1  H21C15343   5.829   3.873  13.937
  123CHL1   C2215344   5.753   3.919  14.222
  123CHL1  H22A15345   5.673   3.947  14.294
  123CHL1  H22B15346   5.746   3.808  14.213
  123CHL1   C2315347   5.894   3.948  14.283
  123CHL1  H23A15348   5.975   3.902  14.222
  123CHL1  H23B15349   5.912   4.058  14.279
  123CHL1   C2415350   5.919   3.906  14.429
  123CHL1  H24A15351   5.852   3.962  14.498
  123CHL1  H24B15352   5.893   3.799  14.442
  123CHL1   C2515353   6.063   3.914  14.486
  123CHL1   H2515354   6.128   3.851  14.422
  123CHL1   C2615355   6.122   4.056  14.489
  123CHL1  H26A15356   6.062   4.121  14.555
  123CHL1  H26B15357   6.226   4.053  14.529
  123CHL1  H26C15358   6.125   4.100  14.387
  123CHL1   C2715359   6.063   3.858  14.629
  123CHL1  H27A15360   6.004   3.923  14.696
  123CHL1  H27B15361   6.017   3.756  14.631
  123CHL1  H27C15362   6.167   3.851  14.668
  124CHL1    C315363   3.563   5.245  13.250
  124CHL1    H315364   3.497   5.321  13.297
  124CHL1    O315365   3.552   5.256  13.109
  124CHL1   H3'15366   3.459   5.239  13.088
  124CHL1    C415367   3.709   5.271  13.294
  124CHL1   H4A15368   3.774   5.196  13.244
  124CHL1   H4B15369   3.740   5.370  13.256
  124CHL1    C515370   3.721   5.260  13.445
  124CHL1    C615371   3.766   5.362  13.519
  124CHL1    H615372   3.798   5.455  13.470
  124CHL1    C715373   3.779   5.356  13.669
  124CHL1   H7A15374   3.875   5.400  13.702
  124CHL1   H7B15375   3.695   5.413  13.714
  124CHL1    C815376   3.764   5.215  13.730
  124CHL1    H815377   3.861   5.163  13.714
  124CHL1   C1415378   3.728   5.224  13.878
  124CHL1   H1415379   3.624   5.265  13.882
  124CHL1   C1515380   3.808   5.319  13.965
  124CHL1  H15A15381   3.915   5.296  13.948
  124CHL1  H15B15382   3.790   5.427  13.942
  124CHL1   C1615383   3.770   5.280  14.108
  124CHL1  H16A15384   3.861   5.293  14.171
  124CHL1  H16B15385   3.691   5.348  14.147
  124CHL1   C1715386   3.715   5.134  14.104
  124CHL1   H1715387   3.606   5.148  14.120
  124CHL1   C1315388   3.724   5.091  13.953
  124CHL1   C1815389   3.856   5.013  13.930
  124CHL1  H18A15390   3.875   4.992  13.822
  124CHL1  H18B15391   3.943   5.069  13.970
  124CHL1  H18C15392   3.851   4.914  13.979
  124CHL1   C1215393   3.603   5.017  13.892
  124CHL1  H12A15394   3.593   4.916  13.937
  124CHL1  H12B15395   3.511   5.074  13.916
  124CHL1   C1115396   3.615   5.007  13.737
  124CHL1  H11A15397   3.691   4.929  13.716
  124CHL1  H11B15398   3.517   4.971  13.699
  124CHL1    C915399   3.652   5.139  13.662
  124CHL1    H915400   3.562   5.204  13.675
  124CHL1   C1015401   3.671   5.128  13.507
  124CHL1   C1915402   3.782   5.025  13.475
  124CHL1  H19A15403   3.762   4.927  13.524
  124CHL1  H19B15404   3.789   5.006  13.366
  124CHL1  H19C15405   3.882   5.060  13.510
  124CHL1    C115406   3.535   5.087  13.445
  124CHL1   H1A15407   3.517   4.980  13.472
  124CHL1   H1B15408   3.455   5.147  13.493
  124CHL1    C215409   3.521   5.105  13.293
  124CHL1   H2A15410   3.416   5.087  13.262
  124CHL1   H2B15411   3.586   5.031  13.241
  124CHL1   C2015412   3.763   5.034  14.215
  124CHL1   H2015413   3.834   4.961  14.170
  124CHL1   C2115414   3.637   4.958  14.260
  124CHL1  H21A15415   3.591   4.903  14.176
  124CHL1  H21B15416   3.562   5.029  14.302
  124CHL1  H21C15417   3.664   4.886  14.341
  124CHL1   C2215418   3.839   5.084  14.342
  124CHL1  H22A15419   3.893   5.179  14.321
  124CHL1  H22B15420   3.765   5.109  14.421
  124CHL1   C2315421   3.949   4.990  14.404
  124CHL1  H23A15422   3.898   4.922  14.475
  124CHL1  H23B15423   3.996   4.929  14.324
  124CHL1   C2415424   4.060   5.072  14.476
  124CHL1  H24A15425   4.130   5.115  14.401
  124CHL1  H24B15426   4.007   5.154  14.528
  124CHL1   C2515427   4.162   5.019  14.579
  124CHL1   H2515428   4.239   4.957  14.529
  124CHL1   C2615429   4.230   5.143  14.642
  124CHL1  H26A15430   4.305   5.114  14.719
  124CHL1  H26B15431   4.280   5.205  14.564
  124CHL1  H26C15432   4.154   5.207  14.692
  124CHL1   C2715433   4.097   4.939  14.690
  124CHL1  H27A15434   4.009   4.998  14.723
  124CHL1  H27B15435   4.063   4.840  14.653
  124CHL1  H27C15436   4.166   4.925  14.776
  125CHL1    C315437   4.293   5.251  13.192
  125CHL1    H315438   4.184   5.266  13.173
  125CHL1    O315439   4.359   5.233  13.067
  125CHL1   H3'15440   4.343   5.142  13.041
  125CHL1    C415441   4.353   5.377  13.256
  125CHL1   H4A15442   4.463   5.364  13.260
  125CHL1   H4B15443   4.333   5.462  13.188
  125CHL1    C515444   4.302   5.402  13.396
  125CHL1    C615445   4.247   5.520  13.429
  125CHL1    H615446   4.242   5.600  13.354
  125CHL1    C715447   4.205   5.554  13.569
  125CHL1   H7A15448   4.240   5.656  13.596
  125CHL1   H7B15449   4.095   5.553  13.577
  125CHL1    C815450   4.263   5.453  13.672
  125CHL1    H815451   4.373   5.470  13.681
  125CHL1   C1415452   4.201   5.480  13.807
  125CHL1   H1415453   4.092   5.477  13.791
  125CHL1   C1515454   4.232   5.618  13.869
  125CHL1  H15A15455   4.341   5.638  13.864
  125CHL1  H15B15456   4.178   5.700  13.817
  125CHL1   C1615457   4.186   5.601  14.014
  125CHL1  H16A15458   4.264   5.634  14.086
  125CHL1  H16B15459   4.094   5.662  14.023
  125CHL1   C1715460   4.150   5.450  14.031
  125CHL1   H1715461   4.043   5.445  14.001
  125CHL1   C1315462   4.229   5.379  13.918
  125CHL1   C1815463   4.378   5.377  13.959
  125CHL1  H18A15464   4.443   5.358  13.870
  125CHL1  H18B15465   4.411   5.472  14.006
  125CHL1  H18C15466   4.396   5.295  14.032
  125CHL1   C1215467   4.184   5.240  13.864
  125CHL1  H12A15468   4.204   5.160  13.938
  125CHL1  H12B15469   4.076   5.242  13.841
  125CHL1   C1115470   4.257   5.203  13.735
  125CHL1  H11A15471   4.365   5.190  13.759
  125CHL1  H11B15472   4.219   5.105  13.699
  125CHL1    C915473   4.238   5.310  13.624
  125CHL1    H915474   4.129   5.306  13.600
  125CHL1   C1015475   4.314   5.281  13.492
  125CHL1   C1915476   4.464   5.259  13.524
  125CHL1  H19A15477   4.507   5.345  13.580
  125CHL1  H19B15478   4.478   5.167  13.585
  125CHL1  H19C15479   4.524   5.245  13.432
  125CHL1    C115480   4.255   5.155  13.423
  125CHL1   H1A15481   4.276   5.066  13.487
  125CHL1   H1B15482   4.145   5.165  13.415
  125CHL1    C215483   4.312   5.128  13.282
  125CHL1   H2A15484   4.262   5.040  13.237
  125CHL1   H2B15485   4.420   5.105  13.289
  125CHL1   C2015486   4.151   5.398  14.176
  125CHL1   H2015487   4.251   5.414  14.222
  125CHL1   C2115488   4.125   5.248  14.167
  125CHL1  H21A15489   4.220   5.191  14.156
  125CHL1  H21B15490   4.055   5.223  14.085
  125CHL1  H21C15491   4.072   5.215  14.259
  125CHL1   C2215492   4.044   5.470  14.266
  125CHL1  H22A15493   4.089   5.571  14.276
  125CHL1  H22B15494   3.948   5.480  14.212
  125CHL1   C2315495   4.016   5.426  14.413
  125CHL1  H23A15496   4.058   5.325  14.430
  125CHL1  H23B15497   4.071   5.493  14.482
  125CHL1   C2415498   3.865   5.427  14.455
  125CHL1  H24A15499   3.825   5.531  14.448
  125CHL1  H24B15500   3.808   5.366  14.382
  125CHL1   C2515501   3.834   5.370  14.596
  125CHL1   H2515502   3.888   5.274  14.608
  125CHL1   C2615503   3.882   5.459  14.712
  125CHL1  H26A15504   3.809   5.541  14.729
  125CHL1  H26B15505   3.890   5.398  14.804
  125CHL1  H26C15506   3.982   5.502  14.691
  125CHL1   C2715507   3.685   5.336  14.616
  125CHL1  H27A15508   3.670   5.285  14.713
  125CHL1  H27B15509   3.622   5.428  14.614
  125CHL1  H27C15510   3.649   5.267  14.536
  126CHL1    C315511   2.552   5.146  13.216
  126CHL1    H315512   2.568   5.036  13.213
  126CHL1    O315513   2.551   5.198  13.084
  126CHL1   H3'15514   2.544   5.123  13.025
  126CHL1    C415515   2.417   5.176  13.284
  126CHL1   H4A15516   2.392   5.283  13.269
  126CHL1   H4B15517   2.338   5.118  13.231
  126CHL1    C515518   2.421   5.143  13.432
  126CHL1    C615519   2.339   5.053  13.487
  126CHL1    H615520   2.262   5.006  13.425
  126CHL1    C715521   2.342   5.014  13.632
  126CHL1   H7A15522   2.239   4.996  13.669
  126CHL1   H7B15523   2.397   4.919  13.643
  126CHL1    C815524   2.412   5.120  13.722
  126CHL1    H815525   2.343   5.206  13.734
  126CHL1   C1415526   2.447   5.059  13.857
  126CHL1   H1415527   2.530   4.987  13.835
  126CHL1   C1515528   2.343   4.972  13.929
  126CHL1  H15A15529   2.244   5.022  13.923
  126CHL1  H15B15530   2.337   4.870  13.885
  126CHL1   C1615531   2.389   4.973  14.074
  126CHL1  H16A15532   2.312   5.028  14.133
  126CHL1  H16B15533   2.402   4.871  14.116
  126CHL1   C1715534   2.518   5.057  14.080
  126CHL1   H1715535   2.596   4.983  14.053
  126CHL1   C1315536   2.506   5.155  13.960
  126CHL1   C1815537   2.405   5.267  13.995
  126CHL1  H18A15538   2.385   5.331  13.906
  126CHL1  H18B15539   2.308   5.227  14.030
  126CHL1  H18C15540   2.447   5.334  14.073
  126CHL1   C1215541   2.636   5.214  13.902
  126CHL1  H12A15542   2.671   5.298  13.966
  126CHL1  H12B15543   2.715   5.136  13.901
  126CHL1   C1115544   2.616   5.267  13.758
  126CHL1  H11A15545   2.555   5.360  13.766
  126CHL1  H11B15546   2.714   5.296  13.715
  126CHL1    C915547   2.543   5.168  13.661
  126CHL1    H915548   2.607   5.077  13.657
  126CHL1   C1015549   2.531   5.213  13.513
  126CHL1   C1915550   2.502   5.364  13.511
  126CHL1  H19A15551   2.494   5.405  13.407
  126CHL1  H19B15552   2.407   5.387  13.564
  126CHL1  H19C15553   2.583   5.422  13.560
  126CHL1    C115554   2.663   5.175  13.440
  126CHL1   H1A15555   2.745   5.228  13.493
  126CHL1   H1B15556   2.681   5.066  13.451
  126CHL1    C215557   2.668   5.211  13.291
  126CHL1   H2A15558   2.764   5.178  13.247
  126CHL1   H2B15559   2.661   5.322  13.280
  126CHL1   C2015560   2.556   5.110  14.220
  126CHL1   H2015561   2.509   5.210  14.234
  126CHL1   C2115562   2.710   5.123  14.224
  126CHL1  H21A15563   2.758   5.024  14.207
  126CHL1  H21B15564   2.745   5.157  14.324
  126CHL1  H21C15565   2.747   5.194  14.147
  126CHL1   C2215566   2.510   5.023  14.340
  126CHL1  H22A15567   2.406   4.985  14.327
  126CHL1  H22B15568   2.577   4.935  14.347
  126CHL1   C2315569   2.511   5.100  14.475
  126CHL1  H23A15570   2.601   5.165  14.478
  126CHL1  H23B15571   2.422   5.166  14.480
  126CHL1   C2415572   2.515   5.007  14.598
  126CHL1  H24A15573   2.428   4.939  14.598
  126CHL1  H24B15574   2.605   4.943  14.585
  126CHL1   C2515575   2.528   5.078  14.736
  126CHL1   H2515576   2.541   4.998  14.812
  126CHL1   C2615577   2.652   5.167  14.740
  126CHL1  H26A15578   2.631   5.261  14.684
  126CHL1  H26B15579   2.677   5.194  14.845
  126CHL1  H26C15580   2.738   5.116  14.693
  126CHL1   C2715581   2.408   5.164  14.778
  126CHL1  H27A15582   2.374   5.229  14.694
  126CHL1  H27B15583   2.322   5.102  14.812
  126CHL1  H27C15584   2.436   5.229  14.863
  127CHL1    C315585   3.403   6.429  13.233
  127CHL1    H315586   3.511   6.400  13.237
  127CHL1    O315587   3.363   6.430  13.096
  127CHL1   H3'15588   3.280   6.382  13.093
  127CHL1    C415589   3.318   6.327  13.311
  127CHL1   H4A15590   3.211   6.349  13.291
  127CHL1   H4B15591   3.338   6.227  13.267
  127CHL1    C515592   3.342   6.328  13.461
  127CHL1    C615593   3.372   6.217  13.530
  127CHL1    H615594   3.378   6.121  13.476
  127CHL1    C715595   3.391   6.213  13.679
  127CHL1   H7A15596   3.335   6.127  13.721
  127CHL1   H7B15597   3.499   6.198  13.702
  127CHL1    C815598   3.342   6.341  13.751
  127CHL1    H815599   3.232   6.339  13.757
  127CHL1   C1415600   3.400   6.347  13.893
  127CHL1   H1415601   3.510   6.356  13.878
  127CHL1   C1515602   3.381   6.225  13.984
  127CHL1  H15A15603   3.276   6.187  13.974
  127CHL1  H15B15604   3.454   6.146  13.960
  127CHL1   C1615605   3.399   6.277  14.127
  127CHL1  H16A15606   3.303   6.266  14.182
  127CHL1  H16B15607   3.478   6.223  14.183
  127CHL1   C1715608   3.432   6.427  14.109
  127CHL1   H1715609   3.540   6.433  14.084
  127CHL1   C1315610   3.361   6.469  13.977
  127CHL1   C1815611   3.207   6.474  14.001
  127CHL1  H18A15612   3.182   6.562  14.065
  127CHL1  H18B15613   3.152   6.485  13.906
  127CHL1  H18C15614   3.169   6.383  14.052
  127CHL1   C1215615   3.410   6.593  13.900
  127CHL1  H12A15616   3.376   6.687  13.948
  127CHL1  H12B15617   3.521   6.593  13.898
  127CHL1   C1115618   3.357   6.596  13.755
  127CHL1  H11A15619   3.248   6.613  13.761
  127CHL1  H11B15620   3.402   6.683  13.703
  127CHL1    C915621   3.386   6.466  13.674
  127CHL1    H915622   3.497   6.460  13.668
  127CHL1   C1015623   3.336   6.467  13.527
  127CHL1   C1915624   3.187   6.508  13.526
  127CHL1  H19A15625   3.127   6.440  13.589
  127CHL1  H19B15626   3.174   6.612  13.564
  127CHL1  H19C15627   3.143   6.508  13.423
  127CHL1    C115628   3.423   6.566  13.444
  127CHL1   H1A15629   3.413   6.668  13.487
  127CHL1   H1B15630   3.529   6.537  13.455
  127CHL1    C215631   3.390   6.569  13.293
  127CHL1   H2A15632   3.458   6.640  13.241
  127CHL1   H2B15633   3.286   6.605  13.278
  127CHL1   C2015634   3.416   6.507  14.237
  127CHL1   H2015635   3.309   6.510  14.268
  127CHL1   C2115636   3.462   6.647  14.203
  127CHL1  H21A15637   3.483   6.710  14.292
  127CHL1  H21B15638   3.376   6.692  14.148
  127CHL1  H21C15639   3.552   6.648  14.139
  127CHL1   C2215640   3.499   6.453  14.356
  127CHL1  H22A15641   3.580   6.387  14.318
  127CHL1  H22B15642   3.547   6.537  14.409
  127CHL1   C2315643   3.412   6.377  14.457
  127CHL1  H23A15644   3.343   6.447  14.508
  127CHL1  H23B15645   3.348   6.306  14.399
  127CHL1   C2415646   3.496   6.300  14.560
  127CHL1  H24A15647   3.581   6.251  14.509
  127CHL1  H24B15648   3.538   6.373  14.633
  127CHL1   C2515649   3.416   6.192  14.635
  127CHL1   H2515650   3.325   6.238  14.679
  127CHL1   C2615651   3.373   6.079  14.541
  127CHL1  H26A15652   3.301   6.116  14.465
  127CHL1  H26B15653   3.461   6.037  14.487
  127CHL1  H26C15654   3.325   5.997  14.598
  127CHL1   C2715655   3.499   6.132  14.749
  127CHL1  H27A15656   3.441   6.055  14.803
  127CHL1  H27B15657   3.591   6.085  14.708
  127CHL1  H27C15658   3.529   6.212  14.821
  128CHL1    C315659   2.049   1.722  13.223
  128CHL1    H315660   1.944   1.744  13.253
  128CHL1    O315661   2.056   1.719  13.081
  128CHL1   H3'15662   1.999   1.647  13.054
  128CHL1    C415663   2.142   1.832  13.276
  128CHL1   H4A15664   2.245   1.813  13.238
  128CHL1   H4B15665   2.110   1.929  13.232
  128CHL1    C515666   2.141   1.836  13.428
  128CHL1    C615667   2.107   1.947  13.494
  128CHL1    H615668   2.087   2.039  13.438
  128CHL1    C715669   2.098   1.957  13.643
  128CHL1   H7A15670   2.141   2.053  13.679
  128CHL1   H7B15671   1.991   1.954  13.672
  128CHL1    C815672   2.170   1.842  13.716
  128CHL1    H815673   2.279   1.864  13.711
  128CHL1   C1415674   2.121   1.835  13.860
  128CHL1   H1415675   2.016   1.800  13.855
  128CHL1   C1515676   2.116   1.964  13.944
  128CHL1  H15A15677   2.208   2.025  13.927
  128CHL1  H15B15678   2.028   2.026  13.917
  128CHL1   C1615679   2.111   1.913  14.088
  128CHL1  H16A15680   2.195   1.957  14.146
  128CHL1  H16B15681   2.015   1.940  14.138
  128CHL1   C1715682   2.126   1.757  14.080
  128CHL1   H1715683   2.024   1.715  14.074
  128CHL1   C1315684   2.194   1.733  13.945
  128CHL1   C1815685   2.343   1.774  13.958
  128CHL1  H18A15686   2.392   1.777  13.858
  128CHL1  H18B15687   2.356   1.874  14.005
  128CHL1  H18C15688   2.397   1.700  14.020
  128CHL1   C1215689   2.178   1.593  13.881
  128CHL1  H12A15690   2.242   1.518  13.931
  128CHL1  H12B15691   2.072   1.561  13.891
  128CHL1   C1115692   2.216   1.593  13.732
  128CHL1  H11A15693   2.326   1.608  13.727
  128CHL1  H11B15694   2.192   1.494  13.688
  128CHL1    C915695   2.145   1.706  13.651
  128CHL1    H915696   2.036   1.687  13.662
  128CHL1   C1015697   2.172   1.703  13.498
  128CHL1   C1915698   2.322   1.679  13.475
  128CHL1  H19A15699   2.381   1.761  13.521
  128CHL1  H19B15700   2.354   1.582  13.519
  128CHL1  H19C15701   2.346   1.675  13.367
  128CHL1    C115702   2.088   1.589  13.434
  128CHL1   H1A15703   2.127   1.493  13.474
  128CHL1   H1B15704   1.983   1.599  13.466
  128CHL1    C215705   2.090   1.585  13.280
  128CHL1   H2A15706   2.021   1.506  13.244
  128CHL1   H2B15707   2.192   1.561  13.244
  128CHL1   C2015708   2.194   1.697  14.202
  128CHL1   H2015709   2.300   1.732  14.205
  128CHL1   C2115710   2.197   1.544  14.195
  128CHL1  H21A15711   2.215   1.504  14.297
  128CHL1  H21B15712   2.281   1.508  14.131
  128CHL1  H21C15713   2.101   1.503  14.157
  128CHL1   C2215714   2.132   1.740  14.337
  128CHL1  H22A15715   2.053   1.817  14.326
  128CHL1  H22B15716   2.085   1.651  14.384
  128CHL1   C2315717   2.243   1.793  14.427
  128CHL1  H23A15718   2.334   1.730  14.415
  128CHL1  H23B15719   2.271   1.895  14.395
  128CHL1   C2415720   2.206   1.791  14.574
  128CHL1  H24A15721   2.112   1.847  14.590
  128CHL1  H24B15722   2.188   1.686  14.607
  128CHL1   C2515723   2.319   1.853  14.657
  128CHL1   H2515724   2.412   1.855  14.596
  128CHL1   C2615725   2.282   1.996  14.690
  128CHL1  H26A15726   2.281   2.061  14.600
  128CHL1  H26B15727   2.181   1.999  14.736
  128CHL1  H26C15728   2.356   2.035  14.764
  128CHL1   C2715729   2.349   1.772  14.783
  128CHL1  H27A15730   2.386   1.671  14.755
  128CHL1  H27B15731   2.428   1.823  14.843
  128CHL1  H27C15732   2.258   1.761  14.846
  129CHL1    C315733   5.720   5.993  13.235
  129CHL1    H315734   5.780   5.901  13.225
  129CHL1    O315735   5.645   6.012  13.116
  129CHL1   H3'15736   5.710   6.031  13.048
  129CHL1    C415737   5.622   5.977  13.353
  129CHL1   H4A15738   5.556   6.066  13.356
  129CHL1   H4B15739   5.557   5.890  13.332
  129CHL1    C515740   5.697   5.963  13.483
  129CHL1    C615741   5.681   5.853  13.558
  129CHL1    H615742   5.612   5.774  13.525
  129CHL1    C715743   5.751   5.833  13.688
  129CHL1   H7A15744   5.683   5.787  13.762
  129CHL1   H7B15745   5.835   5.762  13.671
  129CHL1    C815746   5.812   5.962  13.745
  129CHL1    H815747   5.728   6.021  13.787
  129CHL1   C1415748   5.914   5.926  13.852
  129CHL1   H1415749   6.002   5.884  13.800
  129CHL1   C1515750   5.874   5.819  13.954
  129CHL1  H15A15751   5.770   5.836  13.989
  129CHL1  H15B15752   5.881   5.718  13.910
  129CHL1   C1615753   5.973   5.842  14.067
  129CHL1  H16A15754   5.921   5.843  14.165
  129CHL1  H16B15755   6.053   5.765  14.065
  129CHL1   C1715756   6.045   5.977  14.042
  129CHL1   H1715757   6.139   5.951  13.989
  129CHL1   C1315758   5.964   6.046  13.931
  129CHL1   C1815759   5.847   6.113  14.000
  129CHL1  H18A15760   5.779   6.041  14.051
  129CHL1  H18B15761   5.888   6.180  14.079
  129CHL1  H18C15762   5.787   6.174  13.929
  129CHL1   C1215763   6.040   6.135  13.831
  129CHL1  H12A15764   6.077   6.228  13.879
  129CHL1  H12B15765   6.129   6.078  13.794
  129CHL1   C1115766   5.954   6.170  13.707
  129CHL1  H11A15767   5.878   6.243  13.742
  129CHL1  H11B15768   6.018   6.222  13.632
  129CHL1    C915769   5.885   6.047  13.640
  129CHL1    H915770   5.968   5.982  13.603
  129CHL1   C1015771   5.797   6.077  13.516
  129CHL1   C1915772   5.716   6.207  13.544
  129CHL1  H19A15773   5.644   6.230  13.463
  129CHL1  H19B15774   5.660   6.198  13.639
  129CHL1  H19C15775   5.785   6.294  13.551
  129CHL1    C115776   5.889   6.097  13.392
  129CHL1   H1A15777   5.953   6.186  13.408
  129CHL1   H1B15778   5.956   6.009  13.384
  129CHL1    C215779   5.814   6.112  13.258
  129CHL1   H2A15780   5.887   6.119  13.174
  129CHL1   H2B15781   5.754   6.206  13.260
  129CHL1   C2015782   6.090   6.043  14.174
  129CHL1   H2015783   6.001   6.061  14.239
  129CHL1   C2115784   6.159   6.177  14.145
  129CHL1  H21A15785   6.248   6.156  14.082
  129CHL1  H21B15786   6.193   6.225  14.239
  129CHL1  H21C15787   6.092   6.248  14.093
  129CHL1   C2215788   6.189   5.949  14.248
  129CHL1  H22A15789   6.143   5.848  14.263
  129CHL1  H22B15790   6.276   5.937  14.179
  129CHL1   C2315791   6.248   5.994  14.382
  129CHL1  H23A15792   6.326   5.919  14.408
  129CHL1  H23B15793   6.300   6.092  14.371
  129CHL1   C2415794   6.148   6.004  14.497
  129CHL1  H24A15795   6.074   6.084  14.473
  129CHL1  H24B15796   6.093   5.908  14.508
  129CHL1   C2515797   6.215   6.040  14.632
  129CHL1   H2515798   6.270   6.135  14.619
  129CHL1   C2615799   6.110   6.058  14.741
  129CHL1  H26A15800   6.054   5.963  14.756
  129CHL1  H26B15801   6.156   6.087  14.837
  129CHL1  H26C15802   6.036   6.136  14.711
  129CHL1   C2715803   6.314   5.933  14.679
  129CHL1  H27A15804   6.259   5.838  14.699
  129CHL1  H27B15805   6.394   5.914  14.605
  129CHL1  H27C15806   6.362   5.965  14.774
  130CHL1    C315807   2.590   6.514  13.236
  130CHL1    H315808   2.495   6.554  13.276
  130CHL1    O315809   2.582   6.519  13.094
  130CHL1   H3'15810   2.672   6.511  13.062
  130CHL1    C415811   2.708   6.599  13.285
  130CHL1   H4A15812   2.803   6.552  13.252
  130CHL1   H4B15813   2.703   6.699  13.237
  130CHL1    C515814   2.704   6.608  13.436
  130CHL1    C615815   2.692   6.727  13.497
  130CHL1    H615816   2.693   6.818  13.435
  130CHL1    C715817   2.679   6.747  13.645
  130CHL1   H7A15818   2.750   6.825  13.680
  130CHL1   H7B15819   2.576   6.782  13.667
  130CHL1    C815820   2.705   6.617  13.726
  130CHL1    H815821   2.814   6.605  13.736
  130CHL1   C1415822   2.639   6.630  13.863
  130CHL1   H1415823   2.530   6.634  13.845
  130CHL1   C1515824   2.670   6.755  13.947
  130CHL1  H15A15825   2.780   6.773  13.942
  130CHL1  H15B15826   2.616   6.845  13.911
  130CHL1   C1615827   2.630   6.715  14.090
  130CHL1  H16A15828   2.717   6.731  14.158
  130CHL1  H16B15829   2.544   6.774  14.127
  130CHL1   C1715830   2.593   6.563  14.085
  130CHL1   H1715831   2.484   6.558  14.067
  130CHL1   C1315832   2.661   6.511  13.956
  130CHL1   C1815833   2.813   6.492  13.984
  130CHL1  H18A15834   2.829   6.406  14.053
  130CHL1  H18B15835   2.870   6.470  13.891
  130CHL1  H18C15836   2.858   6.582  14.031
  130CHL1   C1215837   2.598   6.389  13.886
  130CHL1  H12A15838   2.613   6.297  13.947
  130CHL1  H12B15839   2.488   6.406  13.877
  130CHL1   C1115840   2.657   6.366  13.746
  130CHL1  H11A15841   2.764   6.337  13.758
  130CHL1  H11B15842   2.605   6.281  13.699
  130CHL1    C915843   2.647   6.493  13.656
  130CHL1    H915844   2.538   6.513  13.648
  130CHL1   C1015845   2.697   6.472  13.511
  130CHL1   C1915846   2.841   6.415  13.513
  130CHL1  H19A15847   2.842   6.313  13.558
  130CHL1  H19B15848   2.882   6.405  13.410
  130CHL1  H19C15849   2.908   6.480  13.573
  130CHL1    C115850   2.602   6.370  13.440
  130CHL1   H1A15851   2.625   6.267  13.476
  130CHL1   H1B15852   2.498   6.392  13.470
  130CHL1    C215853   2.607   6.370  13.286
  130CHL1   H2A15854   2.527   6.305  13.245
  130CHL1   H2B15855   2.704   6.329  13.251
  130CHL1   C2015856   2.622   6.488  14.217
  130CHL1   H2015857   2.732   6.482  14.229
  130CHL1   C2115858   2.564   6.345  14.213
  130CHL1  H21A15859   2.566   6.300  14.315
  130CHL1  H21B15860   2.625   6.280  14.147
  130CHL1  H21C15861   2.459   6.346  14.178
  130CHL1   C2215862   2.570   6.558  14.345
  130CHL1  H22A15863   2.570   6.669  14.336
  130CHL1  H22B15864   2.466   6.526  14.364
  130CHL1   C2315865   2.661   6.521  14.463
  130CHL1  H23A15866   2.680   6.411  14.462
  130CHL1  H23B15867   2.759   6.571  14.447
  130CHL1   C2415868   2.607   6.560  14.600
  130CHL1  H24A15869   2.572   6.665  14.596
  130CHL1  H24B15870   2.521   6.496  14.627
  130CHL1   C2515871   2.718   6.549  14.707
  130CHL1   H2515872   2.805   6.607  14.669
  130CHL1   C2615873   2.674   6.611  14.839
  130CHL1  H26A15874   2.591   6.553  14.883
  130CHL1  H26B15875   2.757   6.615  14.912
  130CHL1  H26C15876   2.638   6.715  14.820
  130CHL1   C2715877   2.767   6.406  14.730
  130CHL1  H27A15878   2.843   6.407  14.811
  130CHL1  H27B15879   2.682   6.341  14.761
  130CHL1  H27C15880   2.813   6.364  14.638
  131CHL1    C315881   0.905   5.089  13.251
  131CHL1    H315882   0.945   4.987  13.264
  131CHL1    O315883   0.874   5.110  13.114
  131CHL1   H3'15884   0.909   5.197  13.094
  131CHL1    C415885   0.778   5.104  13.337
  131CHL1   H4A15886   0.731   5.202  13.315
  131CHL1   H4B15887   0.705   5.027  13.303
  131CHL1    C515888   0.811   5.091  13.484
  131CHL1    C615889   0.754   4.998  13.561
  131CHL1    H615890   0.680   4.929  13.518
  131CHL1    C715891   0.780   4.988  13.708
  131CHL1   H7A15892   0.684   4.969  13.761
  131CHL1   H7B15893   0.847   4.900  13.726
  131CHL1    C815894   0.848   5.114  13.768
  131CHL1    H815895   0.773   5.196  13.771
  131CHL1   C1415896   0.898   5.087  13.908
  131CHL1   H1415897   0.976   5.009  13.899
  131CHL1   C1515898   0.793   5.030  14.000
  131CHL1  H15A15899   0.697   5.086  13.994
  131CHL1  H15B15900   0.776   4.928  13.959
  131CHL1   C1615901   0.856   5.039  14.139
  131CHL1  H16A15902   0.779   5.081  14.208
  131CHL1  H16B15903   0.892   4.941  14.176
  131CHL1   C1715904   0.978   5.135  14.126
  131CHL1   H1715905   1.068   5.070  14.118
  131CHL1   C1315906   0.961   5.201  13.985
  131CHL1   C1815907   0.858   5.316  13.997
  131CHL1  H18A15908   0.759   5.281  14.033
  131CHL1  H18B15909   0.891   5.392  14.072
  131CHL1  H18C15910   0.843   5.367  13.900
  131CHL1   C1215911   1.088   5.237  13.905
  131CHL1  H12A15912   1.138   5.326  13.947
  131CHL1  H12B15913   1.159   5.152  13.912
  131CHL1   C1115914   1.057   5.262  13.755
  131CHL1  H11A15915   1.004   5.359  13.752
  131CHL1  H11B15916   1.152   5.273  13.699
  131CHL1    C915917   0.966   5.155  13.683
  131CHL1    H915918   1.030   5.064  13.675
  131CHL1   C1015919   0.919   5.187  13.538
  131CHL1   C1915920   0.849   5.326  13.535
  131CHL1  H19A15921   0.913   5.405  13.579
  131CHL1  H19B15922   0.825   5.358  13.431
  131CHL1  H19C15923   0.754   5.324  13.594
  131CHL1    C115924   1.042   5.178  13.444
  131CHL1   H1A15925   1.117   5.255  13.475
  131CHL1   H1B15926   1.089   5.079  13.459
  131CHL1    C215927   1.011   5.191  13.294
  131CHL1   H2A15928   1.104   5.176  13.234
  131CHL1   H2B15929   0.973   5.294  13.273
  131CHL1   C2015930   0.996   5.222  14.252
  131CHL1   H2015931   0.909   5.290  14.263
  131CHL1   C2115932   1.122   5.309  14.236
  131CHL1  H21A15933   1.112   5.378  14.150
  131CHL1  H21B15934   1.211   5.244  14.220
  131CHL1  H21C15935   1.138   5.370  14.327
  131CHL1   C2215936   1.010   5.143  14.385
  131CHL1  H22A15937   1.063   5.047  14.367
  131CHL1  H22B15938   1.074   5.203  14.453
  131CHL1   C2315939   0.879   5.118  14.461
  131CHL1  H23A15940   0.816   5.209  14.460
  131CHL1  H23B15941   0.823   5.037  14.408
  131CHL1   C2415942   0.901   5.076  14.608
  131CHL1  H24A15943   0.981   4.998  14.611
  131CHL1  H24B15944   0.938   5.163  14.666
  131CHL1   C2515945   0.776   5.018  14.675
  131CHL1   H2515946   0.694   5.093  14.671
  131CHL1   C2615947   0.731   4.892  14.601
  131CHL1  H26A15948   0.671   4.917  14.511
  131CHL1  H26B15949   0.820   4.832  14.571
  131CHL1  H26C15950   0.670   4.826  14.667
  131CHL1   C2715951   0.800   4.984  14.823
  131CHL1  H27A15952   0.874   4.902  14.832
  131CHL1  H27B15953   0.838   5.073  14.878
  131CHL1  H27C15954   0.705   4.951  14.872
  132CHL1    C315955   3.806   7.086  13.249
  132CHL1    H315956   3.780   7.191  13.274
  132CHL1    O315957   3.799   7.068  13.108
  132CHL1   H3'15958   3.721   7.115  13.077
  132CHL1    C415959   3.949   7.055  13.297
  132CHL1   H4A15960   3.976   6.954  13.260
  132CHL1   H4B15961   4.017   7.126  13.246
  132CHL1    C515962   3.964   7.060  13.448
  132CHL1    C615963   4.054   7.141  13.507
  132CHL1    H615964   4.120   7.202  13.444
  132CHL1    C715965   4.076   7.148  13.655
  132CHL1   H7A15966   4.185   7.149  13.679
  132CHL1   H7B15967   4.033   7.244  13.693
  132CHL1    C815968   4.011   7.031  13.734
  132CHL1    H815969   4.073   6.941  13.719
  132CHL1   C1415970   4.004   7.066  13.882
  132CHL1   H1415971   3.935   7.153  13.889
  132CHL1   C1515972   4.132   7.112  13.954
  132CHL1  H15A15973   4.215   7.042  13.932
  132CHL1  H15B15974   4.162   7.215  13.924
  132CHL1   C1615975   4.094   7.104  14.103
  132CHL1  H16A15976   4.173   7.049  14.158
  132CHL1  H16B15977   4.082   7.205  14.148
  132CHL1   C1715978   3.957   7.028  14.111
  132CHL1   H1715979   3.878   7.106  14.112
  132CHL1   C1315980   3.943   6.958  13.973
  132CHL1   C1815981   4.026   6.828  13.972
  132CHL1  H18A15982   4.034   6.787  13.869
  132CHL1  H18B15983   4.128   6.845  14.012
  132CHL1  H18C15984   3.976   6.751  14.035
  132CHL1   C1215985   3.800   6.936  13.921
  132CHL1  H12A15986   3.745   6.859  13.980
  132CHL1  H12B15987   3.750   7.034  13.934
  132CHL1   C1115988   3.794   6.900  13.771
  132CHL1  H11A15989   3.839   6.799  13.760
  132CHL1  H11B15990   3.688   6.894  13.740
  132CHL1    C915991   3.869   7.003  13.681
  132CHL1    H915992   3.814   7.099  13.694
  132CHL1   C1015993   3.864   6.973  13.528
  132CHL1   C1915994   3.901   6.824  13.506
  132CHL1  H19A15995   3.823   6.758  13.549
  132CHL1  H19B15996   3.907   6.799  13.398
  132CHL1  H19C15997   3.999   6.800  13.553
  132CHL1    C115998   3.720   7.001  13.473
  132CHL1   H1A15999   3.649   6.929  13.519
  132CHL1   H1B16000   3.689   7.103  13.504
  132CHL1    C216001   3.706   6.992  13.319
  132CHL1   H2A16002   3.602   7.020  13.290
  132CHL1   H2B16003   3.723   6.888  13.286
  132CHL1   C2016004   3.943   6.946  14.241
  132CHL1   H2016005   4.021   6.867  14.241
  132CHL1   C2116006   3.806   6.877  14.249
  132CHL1  H21A16007   3.792   6.829  14.348
  132CHL1  H21B16008   3.796   6.797  14.172
  132CHL1  H21C16009   3.726   6.952  14.234
  132CHL1   C2216010   3.964   7.031  14.370
  132CHL1  H22A16011   3.967   6.961  14.456
  132CHL1  H22B16012   4.064   7.080  14.365
  132CHL1   C2316013   3.857   7.138  14.399
  132CHL1  H23A16014   3.834   7.194  14.306
  132CHL1  H23B16015   3.763   7.089  14.431
  132CHL1   C2416016   3.902   7.241  14.504
  132CHL1  H24A16017   3.996   7.287  14.467
  132CHL1  H24B16018   3.827   7.323  14.511
  132CHL1   C2516019   3.927   7.187  14.646
  132CHL1   H2516020   3.995   7.099  14.638
  132CHL1   C2616021   3.999   7.293  14.731
  132CHL1  H26A16022   4.027   7.251  14.830
  132CHL1  H26B16023   4.092   7.327  14.680
  132CHL1  H26C16024   3.933   7.381  14.747
  132CHL1   C2716025   3.798   7.142  14.717
  132CHL1  H27A16026   3.744   7.066  14.657
  132CHL1  H27B16027   3.822   7.099  14.816
  132CHL1  H27C16028   3.730   7.229  14.732
  133CHL1    C316029   0.896   2.412  13.208
  133CHL1    H316030   0.965   2.325  13.204
  133CHL1    O316031   0.860   2.450  13.077
  133CHL1   H3'16032   0.937   2.432  13.022
  133CHL1    C416033   0.770   2.371  13.285
  133CHL1   H4A16034   0.697   2.455  13.277
  133CHL1   H4B16035   0.725   2.284  13.233
  133CHL1    C516036   0.795   2.343  13.432
  133CHL1    C616037   0.760   2.225  13.487
  133CHL1    H616038   0.710   2.149  13.426
  133CHL1    C716039   0.774   2.194  13.633
  133CHL1   H7A16040   0.682   2.145  13.671
  133CHL1   H7B16041   0.858   2.123  13.648
  133CHL1    C816042   0.800   2.322  13.717
  133CHL1    H816043   0.705   2.379  13.724
  133CHL1   C1416044   0.844   2.281  13.856
  133CHL1   H1416045   0.942   2.229  13.842
  133CHL1   C1516046   0.756   2.180  13.932
  133CHL1  H15A16047   0.650   2.213  13.928
  133CHL1  H15B16048   0.764   2.077  13.891
  133CHL1   C1616049   0.810   2.189  14.075
  133CHL1  H16A16050   0.725   2.202  14.145
  133CHL1  H16B16051   0.866   2.098  14.103
  133CHL1   C1716052   0.905   2.313  14.079
  133CHL1   H1716053   1.008   2.275  14.062
  133CHL1   C1316054   0.872   2.395  13.953
  133CHL1   C1816055   0.744   2.479  13.980
  133CHL1  H18A16056   0.664   2.417  14.026
  133CHL1  H18B16057   0.767   2.563  14.048
  133CHL1  H18C16058   0.704   2.523  13.886
  133CHL1   C1216059   0.985   2.480  13.891
  133CHL1  H12A16060   1.007   2.569  13.954
  133CHL1  H12B16061   1.077   2.417  13.888
  133CHL1   C1116062   0.950   2.527  13.748
  133CHL1  H11A16063   0.868   2.600  13.759
  133CHL1  H11B16064   1.037   2.580  13.705
  133CHL1    C916065   0.907   2.411  13.653
  133CHL1    H916066   0.997   2.346  13.642
  133CHL1   C1016067   0.869   2.455  13.508
  133CHL1   C1916068   0.778   2.579  13.515
  133CHL1  H19A16069   0.690   2.554  13.578
  133CHL1  H19B16070   0.831   2.666  13.560
  133CHL1  H19C16071   0.740   2.611  13.416
  133CHL1    C116072   0.996   2.492  13.426
  133CHL1   H1A16073   1.047   2.577  13.475
  133CHL1   H1B16074   1.064   2.404  13.427
  133CHL1    C216075   0.967   2.528  13.279
  133CHL1   H2A16076   1.061   2.553  13.225
  133CHL1   H2B16077   0.902   2.619  13.274
  133CHL1   C2016078   0.904   2.379  14.217
  133CHL1   H2016079   0.801   2.409  14.243
  133CHL1   C2116080   0.994   2.504  14.223
  133CHL1  H21A16081   0.998   2.545  14.326
  133CHL1  H21B16082   0.953   2.584  14.157
  133CHL1  H21C16083   1.097   2.479  14.190
  133CHL1   C2216084   0.951   2.274  14.320
  133CHL1  H22A16085   0.883   2.186  14.318
  133CHL1  H22B16086   1.053   2.238  14.295
  133CHL1   C2316087   0.950   2.325  14.464
  133CHL1  H23A16088   1.039   2.388  14.481
  133CHL1  H23B16089   0.859   2.388  14.478
  133CHL1   C2416090   0.947   2.206  14.560
  133CHL1  H24A16091   0.851   2.152  14.547
  133CHL1  H24B16092   1.029   2.135  14.533
  133CHL1   C2516093   0.962   2.246  14.706
  133CHL1   H2516094   0.946   2.155  14.767
  133CHL1   C2616095   1.104   2.296  14.734
  133CHL1  H26A16096   1.124   2.392  14.682
  133CHL1  H26B16097   1.118   2.313  14.843
  133CHL1  H26C16098   1.180   2.222  14.700
  133CHL1   C2716099   0.854   2.349  14.744
  133CHL1  H27A16100   0.869   2.444  14.689
  133CHL1  H27B16101   0.753   2.310  14.720
  133CHL1  H27C16102   0.859   2.372  14.853
  134CHL1    C316103   6.912   2.522  13.215
  134CHL1    H316104   6.996   2.449  13.212
  134CHL1    O316105   6.858   2.535  13.084
  134CHL1   H3'16106   6.825   2.447  13.066
  134CHL1    C416107   6.801   2.471  13.306
  134CHL1   H4A16108   6.715   2.540  13.302
  134CHL1   H4B16109   6.764   2.374  13.266
  134CHL1    C516110   6.852   2.457  13.448
  134CHL1    C616111   6.850   2.338  13.508
  134CHL1    H616112   6.808   2.251  13.455
  134CHL1    C716113   6.892   2.318  13.649
  134CHL1   H7A16114   6.816   2.256  13.701
  134CHL1   H7B16115   6.991   2.267  13.653
  134CHL1    C816116   6.903   2.449  13.729
  134CHL1    H816117   6.799   2.484  13.749
  134CHL1   C1416118   6.974   2.419  13.859
  134CHL1   H1416119   7.079   2.392  13.833
  134CHL1   C1516120   6.922   2.298  13.938
  134CHL1  H15A16121   6.811   2.298  13.939
  134CHL1  H15B16122   6.957   2.204  13.892
  134CHL1   C1616123   6.977   2.321  14.079
  134CHL1  H16A16124   6.891   2.316  14.150
  134CHL1  H16B16125   7.052   2.244  14.108
  134CHL1   C1716126   7.043   2.462  14.080
  134CHL1   H1716127   7.151   2.446  14.058
  134CHL1   C1316128   6.984   2.535  13.957
  134CHL1   C1816129   6.843   2.587  13.994
  134CHL1  H18A16130   6.781   2.508  14.041
  134CHL1  H18B16131   6.851   2.672  14.065
  134CHL1  H18C16132   6.788   2.624  13.905
  134CHL1   C1216133   7.068   2.642  13.883
  134CHL1  H12A16134   7.076   2.735  13.944
  134CHL1  H12B16135   7.171   2.602  13.868
  134CHL1   C1116136   7.009   2.679  13.744
  134CHL1  H11A16137   6.915   2.735  13.763
  134CHL1  H11B16138   7.079   2.747  13.690
  134CHL1    C916139   6.978   2.556  13.652
  134CHL1    H916140   7.077   2.511  13.628
  134CHL1   C1016141   6.911   2.585  13.513
  134CHL1   C1916142   6.793   2.683  13.536
  134CHL1  H19A16143   6.737   2.703  13.442
  134CHL1  H19B16144   6.722   2.641  13.611
  134CHL1  H19C16145   6.830   2.781  13.572
  134CHL1    C116146   7.014   2.644  13.414
  134CHL1   H1A16147   7.046   2.744  13.451
  134CHL1   H1B16148   7.104   2.579  13.414
  134CHL1    C216149   6.965   2.657  13.268
  134CHL1   H2A16150   7.048   2.692  13.203
  134CHL1   H2B16151   6.883   2.732  13.264
  134CHL1   C2016152   7.033   2.525  14.220
  134CHL1   H2016153   6.927   2.552  14.240
  134CHL1   C2116154   7.118   2.653  14.227
  134CHL1  H21A16155   7.110   2.701  14.327
  134CHL1  H21B16156   7.083   2.728  14.152
  134CHL1  H21C16157   7.225   2.629  14.208
  134CHL1   C2216158   7.075   2.426  14.333
  134CHL1  H22A16159   7.015   2.333  14.327
  134CHL1  H22B16160   7.182   2.397  14.319
  134CHL1   C2316161   7.054   2.479  14.476
  134CHL1  H23A16162   7.131   2.555  14.500
  134CHL1  H23B16163   6.954   2.529  14.479
  134CHL1   C2416164   7.058   2.367  14.581
  134CHL1  H24A16165   6.977   2.293  14.559
  134CHL1  H24B16166   7.155   2.313  14.571
  134CHL1   C2516167   7.043   2.415  14.726
  134CHL1   H2516168   7.123   2.489  14.745
  134CHL1   C2616169   6.907   2.482  14.754
  134CHL1  H26A16170   6.902   2.515  14.860
  134CHL1  H26B16171   6.892   2.571  14.688
  134CHL1  H26C16172   6.825   2.410  14.736
  134CHL1   C2716173   7.061   2.298  14.824
  134CHL1  H27A16174   7.062   2.334  14.929
  134CHL1  H27B16175   6.980   2.224  14.811
  134CHL1  H27C16176   7.158   2.248  14.803
  135CHL1    C316177   7.190   3.207  13.247
  135CHL1    H316178   7.257   3.120  13.267
  135CHL1    O316179   7.168   3.216  13.107
  135CHL1   H3'16180   7.146   3.127  13.079
  135CHL1    C416181   7.056   3.188  13.319
  135CHL1   H4A16182   6.991   3.275  13.294
  135CHL1   H4B16183   7.006   3.098  13.277
  135CHL1    C516184   7.074   3.178  13.469
  135CHL1    C616185   7.029   3.072  13.538
  135CHL1    H616186   6.974   2.993  13.485
  135CHL1    C716187   7.042   3.056  13.686
  135CHL1   H7A16188   6.945   3.026  13.731
  135CHL1   H7B16189   7.115   2.975  13.707
  135CHL1    C816190   7.091   3.185  13.758
  135CHL1    H816191   7.005   3.254  13.769
  135CHL1   C1416192   7.144   3.149  13.896
  135CHL1   H1416193   7.232   3.082  13.878
  135CHL1   C1516194   7.051   3.068  13.988
  135CHL1  H15A16195   6.949   3.110  13.984
  135CHL1  H15B16196   7.048   2.961  13.959
  135CHL1   C1616197   7.111   3.090  14.128
  135CHL1  H16A16198   7.032   3.135  14.191
  135CHL1  H16B16199   7.145   2.994  14.174
  135CHL1   C1716200   7.230   3.190  14.112
  135CHL1   H1716201   7.320   3.128  14.089
  135CHL1   C1316202   7.199   3.265  13.980
  135CHL1   C1816203   7.089   3.370  14.008
  135CHL1  H18A16204   7.131   3.454  14.068
  135CHL1  H18B16205   7.048   3.412  13.914
  135CHL1  H18C16206   7.004   3.327  14.065
  135CHL1   C1216207   7.316   3.326  13.900
  135CHL1  H12A16208   7.357   3.415  13.951
  135CHL1  H12B16209   7.397   3.250  13.892
  135CHL1   C1116210   7.272   3.368  13.758
  135CHL1  H11A16211   7.204   3.455  13.768
  135CHL1  H11B16212   7.362   3.402  13.702
  135CHL1    C916213   7.202   3.254  13.678
  135CHL1    H916214   7.279   3.176  13.664
  135CHL1   C1016215   7.156   3.292  13.534
  135CHL1   C1916216   7.063   3.416  13.540
  135CHL1  H19A16217   6.974   3.397  13.605
  135CHL1  H19B16218   7.119   3.502  13.581
  135CHL1  H19C16219   7.027   3.445  13.439
  135CHL1    C116220   7.281   3.328  13.448
  135CHL1   H1A16221   7.320   3.426  13.482
  135CHL1   H1B16222   7.358   3.251  13.466
  135CHL1    C216223   7.258   3.335  13.296
  135CHL1   H2A16224   7.355   3.348  13.244
  135CHL1   H2B16225   7.194   3.422  13.271
  135CHL1   C2016226   7.261   3.268  14.241
  135CHL1   H2016227   7.177   3.337  14.264
  135CHL1   C2116228   7.389   3.353  14.222
  135CHL1  H21A16229   7.421   3.396  14.320
  135CHL1  H21B16230   7.370   3.438  14.153
  135CHL1  H21C16231   7.472   3.290  14.182
  135CHL1   C2216232   7.280   3.175  14.364
  135CHL1  H22A16233   7.314   3.074  14.331
  135CHL1  H22B16234   7.362   3.216  14.428
  135CHL1   C2316235   7.157   3.160  14.455
  135CHL1  H23A16236   7.143   3.254  14.514
  135CHL1  H23B16237   7.066   3.148  14.392
  135CHL1   C2416238   7.167   3.040  14.550
  135CHL1  H24A16239   7.189   2.948  14.491
  135CHL1  H24B16240   7.252   3.056  14.619
  135CHL1   C2516241   7.039   3.013  14.633
  135CHL1   H2516242   7.013   3.107  14.687
  135CHL1   C2616243   6.919   2.973  14.545
  135CHL1  H26A16244   6.892   3.054  14.475
  135CHL1  H26B16245   6.944   2.882  14.486
  135CHL1  H26C16246   6.831   2.951  14.609
  135CHL1   C2716247   7.065   2.904  14.739
  135CHL1  H27A16248   6.974   2.888  14.800
  135CHL1  H27B16249   7.091   2.809  14.689
  135CHL1  H27C16250   7.148   2.934  14.806
  136CHL1    C316251   5.528   0.453  13.233
  136CHL1    H316252   5.421   0.470  13.256
  136CHL1    O316253   5.544   0.432  13.093
  136CHL1   H3'16254   5.548   0.522  13.058
  136CHL1    C416255   5.611   0.575  13.276
  136CHL1   H4A16256   5.717   0.558  13.248
  136CHL1   H4B16257   5.577   0.663  13.216
  136CHL1    C516258   5.599   0.600  13.424
  136CHL1    C616259   5.555   0.718  13.472
  136CHL1    H616260   5.532   0.800  13.401
  136CHL1    C716261   5.540   0.751  13.617
  136CHL1   H7A16262   5.587   0.849  13.640
  136CHL1   H7B16263   5.432   0.760  13.641
  136CHL1    C816264   5.604   0.644  13.710
  136CHL1    H816265   5.713   0.664  13.714
  136CHL1   C1416266   5.543   0.656  13.849
  136CHL1   H1416267   5.435   0.632  13.837
  136CHL1   C1516268   5.545   0.793  13.918
  136CHL1  H15A16269   5.650   0.830  13.920
  136CHL1  H15B16270   5.481   0.868  13.868
  136CHL1   C1616271   5.498   0.759  14.059
  136CHL1  H16A16272   5.552   0.822  14.133
  136CHL1  H16B16273   5.389   0.779  14.069
  136CHL1   C1716274   5.523   0.605  14.079
  136CHL1   H1716275   5.423   0.558  14.077
  136CHL1   C1316276   5.596   0.556  13.952
  136CHL1   C1816277   5.750   0.572  13.969
  136CHL1  H18A16278   5.790   0.496  14.040
  136CHL1  H18B16279   5.804   0.559  13.873
  136CHL1  H18C16280   5.775   0.673  14.009
  136CHL1   C1216281   5.561   0.415  13.902
  136CHL1  H12A16282   5.600   0.337  13.970
  136CHL1  H12B16283   5.450   0.405  13.898
  136CHL1   C1116284   5.619   0.391  13.761
  136CHL1  H11A16285   5.729   0.386  13.769
  136CHL1  H11B16286   5.583   0.292  13.725
  136CHL1    C916287   5.578   0.502  13.659
  136CHL1    H916288   5.467   0.495  13.652
  136CHL1   C1016289   5.631   0.479  13.515
  136CHL1   C1916290   5.785   0.464  13.517
  136CHL1  H19A16291   5.833   0.553  13.564
  136CHL1  H19B16292   5.815   0.373  13.575
  136CHL1  H19C16293   5.826   0.453  13.415
  136CHL1    C116294   5.565   0.349  13.460
  136CHL1   H1A16295   5.609   0.261  13.511
  136CHL1   H1B16296   5.457   0.351  13.485
  136CHL1    C216297   5.577   0.328  13.308
  136CHL1   H2A16298   5.517   0.240  13.277
  136CHL1   H2B16299   5.683   0.310  13.282
  136CHL1   C2016300   5.586   0.570  14.214
  136CHL1   H2016301   5.690   0.608  14.216
  136CHL1   C2116302   5.588   0.417  14.235
  136CHL1  H21A16303   5.618   0.392  14.339
  136CHL1  H21B16304   5.662   0.369  14.167
  136CHL1  H21C16305   5.488   0.374  14.216
  136CHL1   C2216306   5.514   0.635  14.335
  136CHL1  H22A16307   5.475   0.737  14.312
  136CHL1  H22B16308   5.428   0.572  14.364
  136CHL1   C2316309   5.614   0.652  14.449
  136CHL1  H23A16310   5.657   0.554  14.477
  136CHL1  H23B16311   5.697   0.714  14.409
  136CHL1   C2416312   5.559   0.722  14.573
  136CHL1  H24A16313   5.639   0.726  14.650
  136CHL1  H24B16314   5.533   0.827  14.547
  136CHL1   C2516315   5.436   0.653  14.634
  136CHL1   H2516316   5.354   0.652  14.559
  136CHL1   C2616317   5.465   0.508  14.676
  136CHL1  H26A16318   5.551   0.505  14.747
  136CHL1  H26B16319   5.377   0.463  14.726
  136CHL1  H26C16320   5.491   0.446  14.588
  136CHL1   C2716321   5.388   0.736  14.753
  136CHL1  H27A16322   5.303   0.688  14.805
  136CHL1  H27B16323   5.474   0.745  14.824
  136CHL1  H27C16324   5.359   0.838  14.721
  137CHL1    C316325   0.408   1.701  13.241
  137CHL1    H316326   0.362   1.600  13.233
  137CHL1    O316327   0.415   1.760  13.112
  137CHL1   H3'16328   0.463   1.842  13.125
  137CHL1    C416329   0.320   1.791  13.330
  137CHL1   H4A16330   0.352   1.896  13.319
  137CHL1   H4B16331   0.216   1.786  13.289
  137CHL1    C516332   0.325   1.751  13.476
  137CHL1    C616333   0.212   1.724  13.544
  137CHL1    H616334   0.114   1.732  13.495
  137CHL1    C716335   0.210   1.692  13.691
  137CHL1   H7A16336   0.125   1.744  13.740
  137CHL1   H7B16337   0.195   1.583  13.706
  137CHL1    C816338   0.342   1.737  13.760
  137CHL1    H816339   0.343   1.848  13.759
  137CHL1   C1416340   0.348   1.689  13.904
  137CHL1   H1416341   0.361   1.579  13.898
  137CHL1   C1516342   0.223   1.709  13.993
  137CHL1  H15A16343   0.178   1.809  13.975
  137CHL1  H15B16344   0.147   1.630  13.973
  137CHL1   C1616345   0.279   1.700  14.136
  137CHL1  H16A16346   0.252   1.793  14.190
  137CHL1  H16B16347   0.235   1.614  14.190
  137CHL1   C1716348   0.434   1.687  14.123
  137CHL1   H1716349   0.457   1.578  14.114
  137CHL1   C1316350   0.468   1.742  13.983
  137CHL1   C1816351   0.466   1.896  13.992
  137CHL1  H18A16352   0.370   1.933  14.034
  137CHL1  H18B16353   0.549   1.933  14.057
  137CHL1  H18C16354   0.480   1.941  13.892
  137CHL1   C1216355   0.594   1.687  13.913
  137CHL1  H12A16356   0.686   1.728  13.959
  137CHL1  H12B16357   0.596   1.576  13.923
  137CHL1   C1116358   0.597   1.724  13.763
  137CHL1  H11A16359   0.617   1.833  13.764
  137CHL1  H11B16360   0.684   1.675  13.714
  137CHL1    C916361   0.467   1.690  13.684
  137CHL1    H916362   0.460   1.579  13.680
  137CHL1   C1016363   0.467   1.739  13.536
  137CHL1   C1916364   0.538   1.876  13.534
  137CHL1  H19A16365   0.522   1.933  13.440
  137CHL1  H19B16366   0.503   1.937  13.620
  137CHL1  H19C16367   0.648   1.863  13.545
  137CHL1    C116368   0.547   1.642  13.445
  137CHL1   H1A16369   0.651   1.636  13.483
  137CHL1   H1B16370   0.503   1.541  13.452
  137CHL1    C216371   0.550   1.686  13.297
  137CHL1   H2A16372   0.605   1.611  13.237
  137CHL1   H2B16373   0.604   1.783  13.288
  137CHL1   C2016374   0.510   1.734  14.249
  137CHL1   H2016375   0.507   1.845  14.255
  137CHL1   C2116376   0.658   1.689  14.239
  137CHL1  H21A16377   0.664   1.580  14.222
  137CHL1  H21B16378   0.714   1.715  14.331
  137CHL1  H21C16379   0.710   1.742  14.156
  137CHL1   C2216380   0.443   1.679  14.378
  137CHL1  H22A16381   0.347   1.732  14.393
  137CHL1  H22B16382   0.419   1.572  14.362
  137CHL1   C2316383   0.524   1.688  14.509
  137CHL1  H23A16384   0.620   1.633  14.498
  137CHL1  H23B16385   0.547   1.794  14.532
  137CHL1   C2416386   0.447   1.624  14.625
  137CHL1  H24A16387   0.350   1.678  14.637
  137CHL1  H24B16388   0.423   1.519  14.598
  137CHL1   C2516389   0.522   1.624  14.760
  137CHL1   H2516390   0.574   1.721  14.770
  137CHL1   C2616391   0.424   1.610  14.877
  137CHL1  H26A16392   0.339   1.680  14.866
  137CHL1  H26B16393   0.385   1.506  14.880
  137CHL1  H26C16394   0.475   1.629  14.974
  137CHL1   C2716395   0.625   1.510  14.768
  137CHL1  H27A16396   0.698   1.515  14.685
  137CHL1  H27B16397   0.679   1.513  14.865
  137CHL1  H27C16398   0.572   1.412  14.762
  138CHL1    C316399   6.853   1.056  13.198
  138CHL1    H316400   6.889   0.951  13.193
  138CHL1    O316401   6.811   1.096  13.068
  138CHL1   H3'16402   6.781   1.016  13.025
  138CHL1    C416403   6.733   1.065  13.294
  138CHL1   H4A16404   6.692   1.168  13.291
  138CHL1   H4B16405   6.652   0.999  13.256
  138CHL1    C516406   6.776   1.028  13.434
  138CHL1    C616407   6.716   0.928  13.499
  138CHL1    H616408   6.631   0.876  13.453
  138CHL1    C716409   6.746   0.893  13.641
  138CHL1   H7A16410   6.648   0.902  13.692
  138CHL1   H7B16411   6.785   0.789  13.651
  138CHL1    C816412   6.836   0.994  13.716
  138CHL1    H816413   6.767   1.078  13.741
  138CHL1   C1416414   6.901   0.935  13.841
  138CHL1   H1416415   6.985   0.871  13.806
  138CHL1   C1516416   6.821   0.841  13.932
  138CHL1  H15A16417   6.715   0.875  13.932
  138CHL1  H15B16418   6.825   0.736  13.897
  138CHL1   C1616419   6.882   0.859  14.072
  138CHL1  H16A16420   6.803   0.898  14.139
  138CHL1  H16B16421   6.920   0.763  14.114
  138CHL1   C1716422   6.996   0.965  14.061
  138CHL1   H1716423   7.090   0.909  14.042
  138CHL1   C1316424   6.963   1.042  13.931
  138CHL1   C1816425   6.854   1.148  13.965
  138CHL1  H18A16426   6.759   1.098  13.996
  138CHL1  H18B16427   6.884   1.216  14.047
  138CHL1  H18C16428   6.831   1.214  13.878
  138CHL1   C1216429   7.083   1.096  13.849
  138CHL1  H12A16430   7.138   1.176  13.903
  138CHL1  H12B16431   7.155   1.012  13.834
  138CHL1   C1116432   7.039   1.148  13.710
  138CHL1  H11A16433   6.984   1.242  13.732
  138CHL1  H11B16434   7.129   1.175  13.650
  138CHL1    C916435   6.947   1.052  13.628
  138CHL1    H916436   7.010   0.964  13.601
  138CHL1   C1016437   6.893   1.108  13.493
  138CHL1   C1916438   6.838   1.250  13.517
  138CHL1  H19A16439   6.755   1.250  13.591
  138CHL1  H19B16440   6.918   1.319  13.553
  138CHL1  H19C16441   6.801   1.296  13.422
  138CHL1    C116442   7.009   1.111  13.390
  138CHL1   H1A16443   7.087   1.182  13.424
  138CHL1   H1B16444   7.056   1.009  13.388
  138CHL1    C216445   6.967   1.146  13.246
  138CHL1   H2A16446   7.054   1.135  13.178
  138CHL1   H2B16447   6.933   1.252  13.242
  138CHL1   C2016448   7.014   1.047  14.190
  138CHL1   H2016449   6.920   1.103  14.210
  138CHL1   C2116450   7.129   1.147  14.173
  138CHL1  H21A16451   7.219   1.096  14.132
  138CHL1  H21B16452   7.156   1.194  14.270
  138CHL1  H21C16453   7.100   1.229  14.104
  138CHL1   C2216454   7.038   0.967  14.319
  138CHL1  H22A16455   6.979   0.873  14.318
  138CHL1  H22B16456   7.145   0.937  14.325
  138CHL1   C2316457   7.000   1.048  14.445
  138CHL1  H23A16458   7.071   1.132  14.460
  138CHL1  H23B16459   6.899   1.092  14.432
  138CHL1   C2416460   7.001   0.956  14.567
  138CHL1  H24A16461   6.932   0.872  14.548
  138CHL1  H24B16462   7.105   0.919  14.573
  138CHL1   C2516463   6.967   1.016  14.705
  138CHL1   H2516464   6.970   0.932  14.777
  138CHL1   C2616465   7.076   1.113  14.747
  138CHL1  H26A16466   7.176   1.066  14.735
  138CHL1  H26B16467   7.075   1.206  14.686
  138CHL1  H26C16468   7.063   1.140  14.854
  138CHL1   C2716469   6.826   1.075  14.712
  138CHL1  H27A16470   6.750   0.996  14.696
  138CHL1  H27B16471   6.808   1.121  14.812
  138CHL1  H27C16472   6.812   1.154  14.635
  139CHL1    C316473   0.128   6.549  13.263
  139CHL1    H316474   0.021   6.554  13.291
  139CHL1    O316475   0.139   6.567  13.122
  139CHL1   H3'16476   0.126   6.480  13.085
  139CHL1    C416477   0.204   6.662  13.335
  139CHL1   H4A16478   0.307   6.669  13.294
  139CHL1   H4B16479   0.155   6.758  13.308
  139CHL1    C516480   0.206   6.639  13.485
  139CHL1    C616481   0.162   6.732  13.570
  139CHL1    H616482   0.136   6.831  13.532
  139CHL1    C716483   0.153   6.711  13.718
  139CHL1   H7A16484   0.174   6.806  13.772
  139CHL1   H7B16485   0.051   6.677  13.746
  139CHL1    C816486   0.255   6.606  13.765
  139CHL1    H816487   0.354   6.654  13.747
  139CHL1   C1416488   0.234   6.571  13.910
  139CHL1   H1416489   0.145   6.505  13.915
  139CHL1   C1516490   0.202   6.685  14.007
  139CHL1  H15A16491   0.278   6.765  13.993
  139CHL1  H15B16492   0.100   6.727  13.992
  139CHL1   C1616493   0.217   6.617  14.142
  139CHL1  H16A16494   0.254   6.692  14.216
  139CHL1  H16B16495   0.118   6.579  14.177
  139CHL1   C1716496   0.313   6.495  14.123
  139CHL1   H1716497   0.252   6.404  14.142
  139CHL1   C1316498   0.349   6.493  13.972
  139CHL1   C1816499   0.482   6.570  13.950
  139CHL1  H18A16500   0.510   6.576  13.843
  139CHL1  H18B16501   0.475   6.673  13.990
  139CHL1  H18C16502   0.569   6.520  13.999
  139CHL1   C1216503   0.349   6.356  13.900
  139CHL1  H12A16504   0.436   6.296  13.933
  139CHL1  H12B16505   0.256   6.301  13.929
  139CHL1   C1116506   0.351   6.372  13.746
  139CHL1  H11A16507   0.455   6.404  13.723
  139CHL1  H11B16508   0.335   6.273  13.697
  139CHL1    C916509   0.249   6.476  13.686
  139CHL1    H916510   0.147   6.434  13.705
  139CHL1   C1016511   0.256   6.501  13.533
  139CHL1   C1916512   0.404   6.504  13.495
  139CHL1  H19A16513   0.459   6.585  13.547
  139CHL1  H19B16514   0.454   6.407  13.517
  139CHL1  H19C16515   0.413   6.517  13.385
  139CHL1    C116516   0.183   6.389  13.454
  139CHL1   H1A16517   0.233   6.292  13.477
  139CHL1   H1B16518   0.078   6.383  13.489
  139CHL1    C216519   0.183   6.410  13.300
  139CHL1   H2A16520   0.121   6.331  13.252
  139CHL1   H2B16521   0.286   6.400  13.261
  139CHL1   C2016522   0.427   6.495  14.227
  139CHL1   H2016523   0.492   6.583  14.209
  139CHL1   C2116524   0.508   6.365  14.214
  139CHL1  H21A16525   0.583   6.357  14.296
  139CHL1  H21B16526   0.564   6.360  14.117
  139CHL1  H21C16527   0.440   6.278  14.219
  139CHL1   C2216528   0.376   6.506  14.373
  139CHL1  H22A16529   0.295   6.582  14.382
  139CHL1  H22B16530   0.332   6.409  14.404
  139CHL1   C2316531   0.483   6.549  14.474
  139CHL1  H23A16532   0.557   6.467  14.487
  139CHL1  H23B16533   0.538   6.637  14.434
  139CHL1   C2416534   0.420   6.587  14.609
  139CHL1  H24A16535   0.359   6.679  14.595
  139CHL1  H24B16536   0.350   6.505  14.639
  139CHL1   C2516537   0.518   6.609  14.726
  139CHL1   H2516538   0.458   6.639  14.814
  139CHL1   C2616539   0.593   6.480  14.763
  139CHL1  H26A16540   0.664   6.453  14.682
  139CHL1  H26B16541   0.651   6.494  14.857
  139CHL1  H26C16542   0.521   6.397  14.777
  139CHL1   C2716543   0.617   6.724  14.697
  139CHL1  H27A16544   0.685   6.739  14.784
  139CHL1  H27B16545   0.679   6.700  14.608
  139CHL1  H27C16546   0.562   6.819  14.678
  140CHL1    C316547   7.194   0.454  13.250
  140CHL1    H316548   7.303   0.459  13.275
  140CHL1    O316549   7.179   0.459  13.109
  140CHL1   H3'16550   7.220   0.379  13.077
  140CHL1    C416551   7.133   0.323  13.301
  140CHL1   H4A16552   7.027   0.319  13.266
  140CHL1   H4B16553   7.186   0.238  13.251
  140CHL1    C516554   7.136   0.310  13.451
  140CHL1    C616555   7.192   0.202  13.510
  140CHL1    H616556   7.232   0.122  13.447
  140CHL1    C716557   7.191   0.179  13.657
  140CHL1   H7A16558   7.158   0.075  13.680
  140CHL1   H7B16559   7.295   0.190  13.697
  140CHL1    C816560   7.098   0.278  13.733
  140CHL1    H816561   6.993   0.244  13.720
  140CHL1   C1416562   7.135   0.275  13.879
  140CHL1   H1416563   7.242   0.305  13.882
  140CHL1   C1516564   7.128   0.138  13.948
  140CHL1  H15A16565   7.032   0.087  13.924
  140CHL1  H15B16566   7.213   0.077  13.911
  140CHL1   C1616567   7.135   0.172  14.098
  140CHL1  H16A16568   7.045   0.131  14.148
  140CHL1  H16B16569   7.225   0.130  14.148
  140CHL1   C1716570   7.138   0.327  14.103
  140CHL1   H1716571   7.244   0.354  14.085
  140CHL1   C1316572   7.064   0.372  13.973
  140CHL1   C1816573   6.912   0.336  13.972
  140CHL1  H18A16574   6.873   0.327  13.869
  140CHL1  H18B16575   6.890   0.242  14.026
  140CHL1  H18C16576   6.854   0.418  14.019
  140CHL1   C1216577   7.086   0.514  13.921
  140CHL1  H12A16578   7.027   0.586  13.983
  140CHL1  H12B16579   7.194   0.541  13.931
  140CHL1   C1116580   7.044   0.526  13.773
  140CHL1  H11A16581   6.934   0.514  13.767
  140CHL1  H11B16582   7.068   0.629  13.738
  140CHL1    C916583   7.114   0.421  13.680
  140CHL1    H916584   7.222   0.443  13.688
  140CHL1   C1016585   7.078   0.430  13.529
  140CHL1   C1916586   6.924   0.429  13.514
  140CHL1  H19A16587   6.879   0.340  13.563
  140CHL1  H19B16588   6.880   0.520  13.558
  140CHL1  H19C16589   6.894   0.427  13.407
  140CHL1    C116590   7.136   0.562  13.471
  140CHL1   H1A16591   7.084   0.648  13.516
  140CHL1   H1B16592   7.244   0.569  13.499
  140CHL1    C216593   7.126   0.574  13.317
  140CHL1   H2A16594   7.174   0.668  13.283
  140CHL1   H2B16595   7.019   0.577  13.287
  140CHL1   C2016596   7.113   0.387  14.242
  140CHL1   H2016597   7.176   0.328  14.313
  140CHL1   C2116598   6.968   0.363  14.282
  140CHL1  H21A16599   6.941   0.255  14.287
  140CHL1  H21B16600   6.898   0.416  14.214
  140CHL1  H21C16601   6.957   0.409  14.382
  140CHL1   C2216602   7.158   0.535  14.260
  140CHL1  H22A16603   7.258   0.544  14.212
  140CHL1  H22B16604   7.088   0.599  14.201
  140CHL1   C2316605   7.171   0.598  14.403
  140CHL1  H23A16606   7.259   0.665  14.400
  140CHL1  H23B16607   7.082   0.663  14.419
  140CHL1   C2416608   7.186   0.505  14.526
  140CHL1  H24A16609   7.092   0.448  14.540
  140CHL1  H24B16610   7.267   0.432  14.505
  140CHL1   C2516611   7.218   0.572  14.664
  140CHL1   H2516612   7.217   0.492  14.741
  140CHL1   C2616613   7.114   0.674  14.710
  140CHL1  H26A16614   7.024   0.627  14.754
  140CHL1  H26B16615   7.155   0.744  14.786
  140CHL1  H26C16616   7.082   0.732  14.621
  140CHL1   C2716617   7.357   0.637  14.669
  140CHL1  H27A16618   7.368   0.713  14.589
  140CHL1  H27B16619   7.371   0.688  14.767
  140CHL1  H27C16620   7.437   0.560  14.659
  141DOPC     N16621   3.831   2.869  17.040
  141DOPC   C1216622   3.935   2.757  17.049
  141DOPC  H12A16623   3.885   2.666  17.077
  141DOPC  H12B16624   4.004   2.782  17.127
  141DOPC   C1316625   3.753   2.862  16.913
  141DOPC  H13A16626   3.678   2.939  16.909
  141DOPC  H13B16627   3.820   2.878  16.830
  141DOPC  H13C16628   3.706   2.765  16.901
  141DOPC   C1416629   3.902   3.001  17.041
  141DOPC  H14A16630   3.965   3.007  16.954
  141DOPC  H14B16631   3.832   3.084  17.039
  141DOPC  H14C16632   3.965   3.011  17.128
  141DOPC   C1516633   3.738   2.861  17.158
  141DOPC  H15A16634   3.665   2.941  17.156
  141DOPC  H15B16635   3.792   2.871  17.251
  141DOPC  H15C16636   3.684   2.768  17.161
  141DOPC   C1116637   4.019   2.727  16.922
  141DOPC  H11A16638   4.083   2.639  16.943
  141DOPC  H11B16639   3.949   2.699  16.841
  141DOPC     P16640   4.104   2.896  16.743
  141DOPC   O1316641   4.216   2.992  16.734
  141DOPC   O1416642   3.968   2.943  16.711
  141DOPC   O1216643   4.103   2.838  16.890
  141DOPC   O1116644   4.136   2.763  16.660
  141DOPC    C116645   4.247   2.762  16.570
  141DOPC    HA16646   4.341   2.747  16.629
  141DOPC    HB16647   4.261   2.859  16.519
  141DOPC    C216648   4.238   2.651  16.459
  141DOPC    HS16649   4.338   2.605  16.451
  141DOPC   O2116650   4.200   2.710  16.336
  141DOPC   C2116651   4.295   2.768  16.269
  141DOPC   O2216652   4.413   2.773  16.300
  141DOPC   C2216653   4.230   2.817  16.142
  141DOPC   H2R16654   4.127   2.777  16.137
  141DOPC   H2S16655   4.285   2.773  16.056
  141DOPC    C316656   4.137   2.534  16.476
  141DOPC    HX16657   4.157   2.475  16.568
  141DOPC    HY16658   4.160   2.467  16.391
  141DOPC   O3116659   4.000   2.575  16.461
  141DOPC   C3116660   3.926   2.571  16.570
  141DOPC   O3216661   3.962   2.528  16.678
  141DOPC   C3216662   3.786   2.623  16.539
  141DOPC   H2X16663   3.735   2.635  16.637
  141DOPC   H2Y16664   3.795   2.724  16.493
  141DOPC   C2316665   4.224   2.969  16.135
  141DOPC   H3R16666   4.324   3.014  16.118
  141DOPC   H3S16667   4.184   3.011  16.230
  141DOPC   C2416668   4.129   3.005  16.022
  141DOPC   H4R16669   4.040   2.937  16.026
  141DOPC   H4S16670   4.179   2.986  15.925
  141DOPC   C2516671   4.075   3.147  16.030
  141DOPC   H5R16672   4.162   3.214  16.013
  141DOPC   H5S16673   4.035   3.167  16.132
  141DOPC   C2616674   3.967   3.170  15.925
  141DOPC   H6R16675   3.927   3.274  15.936
  141DOPC   H6S16676   3.882   3.101  15.942
  141DOPC   C2716677   4.022   3.152  15.783
  141DOPC   H7R16678   4.040   3.045  15.761
  141DOPC   H7S16679   4.121   3.202  15.778
  141DOPC   C2816680   3.933   3.215  15.674
  141DOPC   H8R16681   3.991   3.223  15.580
  141DOPC   H8S16682   3.906   3.318  15.704
  141DOPC   C2916683   3.811   3.129  15.656
  141DOPC   H9R16684   3.738   3.134  15.739
  141DOPC  C21016685   3.785   3.047  15.553
  141DOPC  H10R16686   3.693   2.988  15.555
  141DOPC  C21116687   3.872   3.024  15.431
  141DOPC  H11R16688   3.881   3.119  15.374
  141DOPC  H11S16689   3.821   2.952  15.364
  141DOPC  C21216690   4.016   2.969  15.452
  141DOPC  H12R16691   4.080   3.042  15.506
  141DOPC  H12S16692   4.059   2.954  15.351
  141DOPC  C21316693   4.018   2.836  15.528
  141DOPC  H13R16694   3.937   2.772  15.487
  141DOPC  H13S16695   3.990   2.858  15.634
  141DOPC  C21416696   4.147   2.753  15.529
  141DOPC  H14R16697   4.125   2.647  15.553
  141DOPC  H14S16698   4.208   2.793  15.613
  141DOPC  C21516699   4.236   2.762  15.404
  141DOPC  H15R16700   4.333   2.713  15.427
  141DOPC  H15S16701   4.253   2.871  15.388
  141DOPC  C21616702   4.191   2.711  15.268
  141DOPC  H16R16703   4.093   2.755  15.242
  141DOPC  H16S16704   4.181   2.600  15.271
  141DOPC  C21716705   4.295   2.745  15.158
  141DOPC  H17R16706   4.262   2.699  15.062
  141DOPC  H17S16707   4.391   2.698  15.186
  141DOPC  C21816708   4.321   2.893  15.132
  141DOPC  H18R16709   4.226   2.950  15.121
  141DOPC  H18S16710   4.383   2.907  15.041
  141DOPC  H18T16711   4.379   2.937  15.217
  141DOPC   C3316712   3.701   2.527  16.451
  141DOPC   H3X16713   3.595   2.561  16.457
  141DOPC   H3Y16714   3.705   2.424  16.493
  141DOPC   C3416715   3.738   2.521  16.302
  141DOPC   H4X16716   3.660   2.464  16.248
  141DOPC   H4Y16717   3.834   2.468  16.288
  141DOPC   C3516718   3.749   2.661  16.239
  141DOPC   H5X16719   3.846   2.706  16.271
  141DOPC   H5Y16720   3.668   2.725  16.278
  141DOPC   C3616721   3.742   2.661  16.086
  141DOPC   H6X16722   3.817   2.590  16.045
  141DOPC   H6Y16723   3.642   2.628  16.053
  141DOPC   C3716724   3.770   2.803  16.034
  141DOPC   H7X16725   3.701   2.874  16.084
  141DOPC   H7Y16726   3.873   2.830  16.065
  141DOPC   C3816727   3.755   2.819  15.882
  141DOPC   H8X16728   3.779   2.924  15.856
  141DOPC   H8Y16729   3.647   2.804  15.858
  141DOPC   C3916730   3.846   2.726  15.806
  141DOPC   H9X16731   3.951   2.728  15.838
  141DOPC  C31016732   3.811   2.646  15.703
  141DOPC  H10X16733   3.889   2.585  15.655
  141DOPC  C31116734   3.674   2.632  15.644
  141DOPC  H11X16735   3.596   2.686  15.702
  141DOPC  H11Y16736   3.647   2.524  15.654
  141DOPC  C31216737   3.657   2.676  15.496
  141DOPC  H12X16738   3.672   2.786  15.487
  141DOPC  H12Y16739   3.551   2.655  15.469
  141DOPC  C31316740   3.746   2.605  15.393
  141DOPC  H13X16741   3.834   2.667  15.367
  141DOPC  H13Y16742   3.784   2.510  15.438
  141DOPC  C31416743   3.675   2.573  15.261
  141DOPC  H14X16744   3.591   2.504  15.282
  141DOPC  H14Y16745   3.632   2.667  15.220
  141DOPC  C31516746   3.760   2.503  15.155
  141DOPC  H15X16747   3.696   2.497  15.064
  141DOPC  H15Y16748   3.782   2.399  15.186
  141DOPC  C31616749   3.891   2.573  15.118
  141DOPC  H16X16750   3.963   2.567  15.202
  141DOPC  H16Y16751   3.938   2.518  15.033
  141DOPC  C31716752   3.871   2.720  15.079
  141DOPC  H17X16753   3.768   2.735  15.041
  141DOPC  H17Y16754   3.882   2.782  15.170
  141DOPC  C31816755   3.969   2.768  14.971
  141DOPC  H18X16756   3.936   2.733  14.871
  141DOPC  H18Y16757   3.975   2.879  14.970
  141DOPC  H18Z16758   4.071   2.727  14.990
  142DOPC     N16759   4.427   3.241  16.982
  142DOPC   C1216760   4.473   3.264  16.838
  142DOPC  H12A16761   4.474   3.370  16.818
  142DOPC  H12B16762   4.403   3.219  16.769
  142DOPC   C1316763   4.299   3.313  17.012
  142DOPC  H13A16764   4.219   3.287  16.943
  142DOPC  H13B16765   4.266   3.293  17.113
  142DOPC  H13C16766   4.313   3.420  17.008
  142DOPC   C1416767   4.531   3.292  17.077
  142DOPC  H14A16768   4.626   3.245  17.056
  142DOPC  H14B16769   4.550   3.397  17.062
  142DOPC  H14C16770   4.508   3.277  17.181
  142DOPC   C1516771   4.410   3.093  17.000
  142DOPC  H15A16772   4.337   3.054  16.931
  142DOPC  H15B16773   4.384   3.068  17.102
  142DOPC  H15C16774   4.504   3.045  16.978
  142DOPC   C1116775   4.615   3.221  16.800
  142DOPC  H11A16776   4.635   3.117  16.833
  142DOPC  H11B16777   4.628   3.225  16.690
  142DOPC     P16778   4.850   3.282  16.898
  142DOPC   O1316779   4.852   3.141  16.943
  142DOPC   O1416780   4.890   3.386  16.996
  142DOPC   O1216781   4.701   3.317  16.860
  142DOPC   O1116782   4.917   3.303  16.755
  142DOPC    C116783   4.941   3.439  16.714
  142DOPC    HA16784   5.045   3.465  16.742
  142DOPC    HB16785   4.874   3.512  16.765
  142DOPC    C216786   4.924   3.468  16.561
  142DOPC    HS16787   4.938   3.578  16.548
  142DOPC   O2116788   4.795   3.428  16.515
  142DOPC   C2116789   4.701   3.517  16.539
  142DOPC   O2216790   4.712   3.622  16.598
  142DOPC   C2216791   4.575   3.470  16.468
  142DOPC   H2R16792   4.491   3.536  16.497
  142DOPC   H2S16793   4.555   3.366  16.503
  142DOPC    C316794   5.030   3.400  16.471
  142DOPC    HX16795   4.997   3.298  16.445
  142DOPC    HY16796   5.125   3.392  16.529
  142DOPC   O3116797   5.053   3.487  16.357
  142DOPC   C3116798   5.030   3.441  16.235
  142DOPC   O3216799   5.006   3.326  16.205
  142DOPC   C3216800   5.050   3.560  16.138
  142DOPC   H2X16801   5.040   3.653  16.198
  142DOPC   H2Y16802   5.156   3.554  16.104
  142DOPC   C2316803   4.589   3.471  16.315
  142DOPC   H3R16804   4.690   3.438  16.283
  142DOPC   H3S16805   4.573   3.574  16.278
  142DOPC   C2416806   4.486   3.376  16.254
  142DOPC   H4R16807   4.467   3.411  16.150
  142DOPC   H4S16808   4.392   3.382  16.312
  142DOPC   C2516809   4.536   3.231  16.246
  142DOPC   H5R16810   4.452   3.161  16.264
  142DOPC   H5S16811   4.612   3.214  16.325
  142DOPC   C2616812   4.595   3.206  16.107
  142DOPC   H6R16813   4.634   3.302  16.069
  142DOPC   H6S16814   4.513   3.173  16.039
  142DOPC   C2716815   4.710   3.106  16.100
  142DOPC   H7R16816   4.676   3.007  16.136
  142DOPC   H7S16817   4.792   3.141  16.167
  142DOPC   C2816818   4.761   3.099  15.955
  142DOPC   H8R16819   4.789   3.202  15.923
  142DOPC   H8S16820   4.675   3.068  15.892
  142DOPC   C2916821   4.873   3.002  15.931
  142DOPC   H9R16822   4.849   2.899  15.961
  142DOPC  C21016823   4.997   3.027  15.887
  142DOPC  H10R16824   5.067   2.943  15.875
  142DOPC  C21116825   5.050   3.163  15.856
  142DOPC  H11R16826   5.161   3.162  15.868
  142DOPC  H11S16827   5.013   3.234  15.933
  142DOPC  C21216828   5.017   3.223  15.717
  142DOPC  H12R16829   4.907   3.224  15.701
  142DOPC  H12S16830   5.062   3.162  15.635
  142DOPC  C21316831   5.073   3.365  15.719
  142DOPC  H13R16832   5.183   3.366  15.736
  142DOPC  H13S16833   5.031   3.407  15.813
  142DOPC  C21416834   5.038   3.463  15.607
  142DOPC  H14R16835   5.103   3.552  15.623
  142DOPC  H14S16836   4.933   3.499  15.619
  142DOPC  C21516837   5.054   3.415  15.463
  142DOPC  H15R16838   4.974   3.343  15.436
  142DOPC  H15S16839   5.151   3.361  15.454
  142DOPC  C21616840   5.056   3.535  15.369
  142DOPC  H16R16841   5.094   3.622  15.426
  142DOPC  H16S16842   4.953   3.561  15.336
  142DOPC  C21716843   5.150   3.517  15.250
  142DOPC  H17R16844   5.240   3.462  15.283
  142DOPC  H17S16845   5.184   3.617  15.216
  142DOPC  C21816846   5.085   3.446  15.132
  142DOPC  H18R16847   5.158   3.439  15.049
  142DOPC  H18S16848   4.997   3.504  15.096
  142DOPC  H18T16849   5.052   3.344  15.160
  142DOPC   C3316850   4.960   3.575  16.011
  142DOPC   H3X16851   5.025   3.554  15.924
  142DOPC   H3Y16852   4.937   3.683  15.998
  142DOPC   C3416853   4.828   3.494  16.006
  142DOPC   H4X16854   4.753   3.545  16.070
  142DOPC   H4Y16855   4.845   3.393  16.049
  142DOPC   C3516856   4.765   3.466  15.867
  142DOPC   H5X16857   4.667   3.416  15.885
  142DOPC   H5Y16858   4.827   3.391  15.813
  142DOPC   C3616859   4.740   3.585  15.775
  142DOPC   H6X16860   4.673   3.653  15.831
  142DOPC   H6Y16861   4.837   3.637  15.757
  142DOPC   C3716862   4.674   3.554  15.638
  142DOPC   H7X16863   4.708   3.631  15.565
  142DOPC   H7Y16864   4.734   3.467  15.604
  142DOPC   C3816865   4.515   3.528  15.634
  142DOPC   H8X16866   4.473   3.618  15.685
  142DOPC   H8Y16867   4.517   3.456  15.719
  142DOPC   C3916868   4.390   3.507  15.535
  142DOPC   H9X16869   4.363   3.606  15.497
  142DOPC  C31016870   4.316   3.405  15.469
  142DOPC  H10X16871   4.239   3.449  15.404
  142DOPC  C31116872   4.286   3.251  15.478
  142DOPC  H11X16873   4.191   3.245  15.421
  142DOPC  H11Y16874   4.249   3.217  15.577
  142DOPC  C31216875   4.363   3.126  15.401
  142DOPC  H12X16876   4.406   3.164  15.306
  142DOPC  H12Y16877   4.278   3.063  15.369
  142DOPC  C31316878   4.469   3.025  15.466
  142DOPC  H13X16879   4.491   3.032  15.575
  142DOPC  H13Y16880   4.410   2.931  15.472
  142DOPC  C31416881   4.601   2.969  15.396
  142DOPC  H14X16882   4.612   2.881  15.463
  142DOPC  H14Y16883   4.579   2.928  15.295
  142DOPC  C31516884   4.751   3.010  15.419
  142DOPC  H15X16885   4.796   2.945  15.498
  142DOPC  H15Y16886   4.765   3.111  15.462
  142DOPC  C31616887   4.849   3.009  15.298
  142DOPC  H16X16888   4.887   3.112  15.281
  142DOPC  H16Y16889   4.937   2.949  15.329
  142DOPC  C31716890   4.802   2.953  15.163
  142DOPC  H17X16891   4.892   2.939  15.101
  142DOPC  H17Y16892   4.758   2.852  15.180
  142DOPC  C31816893   4.705   3.038  15.082
  142DOPC  H18X16894   4.680   2.987  14.986
  142DOPC  H18Y16895   4.608   3.054  15.134
  142DOPC  H18Z16896   4.749   3.137  15.058
  143DOPC     N16897   2.538   3.769  17.080
  143DOPC   C1216898   2.676   3.708  17.057
  143DOPC  H12A16899   2.669   3.602  17.077
  143DOPC  H12B16900   2.746   3.748  17.129
  143DOPC   C1316901   2.437   3.676  17.020
  143DOPC  H13A16902   2.338   3.720  17.019
  143DOPC  H13B16903   2.467   3.656  16.918
  143DOPC  H13C16904   2.434   3.581  17.071
  143DOPC   C1416905   2.526   3.901  17.010
  143DOPC  H14A16906   2.600   3.971  17.046
  143DOPC  H14B16907   2.543   3.888  16.904
  143DOPC  H14C16908   2.428   3.944  17.022
  143DOPC   C1516909   2.512   3.784  17.226
  143DOPC  H15A16910   2.416   3.832  17.243
  143DOPC  H15B16911   2.588   3.846  17.272
  143DOPC  H15C16912   2.513   3.688  17.274
  143DOPC   C1116913   2.738   3.724  16.916
  143DOPC  H11A16914   2.763   3.832  16.902
  143DOPC  H11B16915   2.835   3.670  16.912
  143DOPC     P16916   2.642   3.751  16.677
  143DOPC   O1316917   2.773   3.746  16.611
  143DOPC   O1416918   2.587   3.885  16.710
  143DOPC   O1216919   2.652   3.672  16.815
  143DOPC   O1116920   2.535   3.669  16.595
  143DOPC    C116921   2.431   3.596  16.661
  143DOPC    HA16922   2.406   3.640  16.760
  143DOPC    HB16923   2.464   3.491  16.678
  143DOPC    C216924   2.295   3.597  16.584
  143DOPC    HS16925   2.225   3.532  16.640
  143DOPC   O2116926   2.310   3.549  16.451
  143DOPC   C2116927   2.341   3.424  16.435
  143DOPC   O2216928   2.351   3.339  16.521
  143DOPC   C2216929   2.365   3.401  16.287
  143DOPC   H2R16930   2.334   3.490  16.228
  143DOPC   H2S16931   2.304   3.314  16.257
  143DOPC    C316932   2.231   3.738  16.576
  143DOPC    HX16933   2.208   3.770  16.679
  143DOPC    HY16934   2.136   3.728  16.520
  143DOPC   O3116935   2.319   3.836  16.516
  143DOPC   C3116936   2.332   3.828  16.383
  143DOPC   O3216937   2.249   3.780  16.307
  143DOPC   C3216938   2.470   3.881  16.342
  143DOPC   H2X16939   2.529   3.899  16.435
  143DOPC   H2Y16940   2.519   3.799  16.287
  143DOPC   C2316941   2.514   3.370  16.266
  143DOPC   H3R16942   2.534   3.335  16.163
  143DOPC   H3S16943   2.539   3.289  16.338
  143DOPC   C2416944   2.613   3.477  16.308
  143DOPC   H4R16945   2.707   3.421  16.327
  143DOPC   H4S16946   2.584   3.527  16.403
  143DOPC   C2516947   2.647   3.579  16.201
  143DOPC   H5R16948   2.555   3.634  16.173
  143DOPC   H5S16949   2.681   3.523  16.111
  143DOPC   C2616950   2.756   3.672  16.255
  143DOPC   H6R16951   2.841   3.610  16.290
  143DOPC   H6S16952   2.717   3.724  16.345
  143DOPC   C2716953   2.808   3.777  16.155
  143DOPC   H7R16954   2.883   3.841  16.207
  143DOPC   H7S16955   2.723   3.843  16.129
  143DOPC   C2816956   2.871   3.715  16.029
  143DOPC   H8R16957   2.814   3.624  16.002
  143DOPC   H8S16958   2.973   3.680  16.056
  143DOPC   C2916959   2.875   3.809  15.911
  143DOPC   H9R16960   2.933   3.901  15.926
  143DOPC  C21016961   2.811   3.789  15.794
  143DOPC  H10R16962   2.820   3.864  15.715
  143DOPC  C21116963   2.725   3.669  15.760
  143DOPC  H11R16964   2.643   3.658  15.834
  143DOPC  H11S16965   2.785   3.575  15.766
  143DOPC  C21216966   2.666   3.679  15.619
  143DOPC  H12R16967   2.749   3.697  15.547
  143DOPC  H12S16968   2.597   3.766  15.612
  143DOPC  C21316969   2.591   3.552  15.575
  143DOPC  H13R16970   2.496   3.543  15.632
  143DOPC  H13S16971   2.652   3.463  15.600
  143DOPC  C21416972   2.562   3.552  15.424
  143DOPC  H14R16973   2.653   3.586  15.370
  143DOPC  H14S16974   2.481   3.626  15.403
  143DOPC  C21516975   2.522   3.415  15.368
  143DOPC  H15R16976   2.438   3.374  15.428
  143DOPC  H15S16977   2.607   3.343  15.378
  143DOPC  C21616978   2.479   3.423  15.220
  143DOPC  H16R16979   2.417   3.513  15.206
  143DOPC  H16S16980   2.416   3.335  15.195
  143DOPC  C21716981   2.598   3.426  15.123
  143DOPC  H17R16982   2.650   3.328  15.128
  143DOPC  H17S16983   2.671   3.504  15.156
  143DOPC  C21816984   2.557   3.456  14.979
  143DOPC  H18R16985   2.645   3.451  14.912
  143DOPC  H18S16986   2.512   3.557  14.971
  143DOPC  H18T16987   2.482   3.382  14.944
  143DOPC   C3316988   2.472   4.009  16.255
  143DOPC   H3X16989   2.577   4.043  16.244
  143DOPC   H3Y16990   2.417   4.090  16.308
  143DOPC   C3416991   2.412   3.991  16.114
  143DOPC   H4X16992   2.398   4.092  16.070
  143DOPC   H4Y16993   2.312   3.944  16.123
  143DOPC   C3516994   2.501   3.908  16.020
  143DOPC   H5X16995   2.523   3.810  16.067
  143DOPC   H5Y16996   2.597   3.962  16.006
  143DOPC   C3616997   2.440   3.881  15.881
  143DOPC   H6X16998   2.417   3.979  15.836
  143DOPC   H6Y16999   2.517   3.834  15.816
  143DOPC   C3717000   2.316   3.791  15.882
  143DOPC   H7X17001   2.240   3.835  15.951
  143DOPC   H7Y17002   2.272   3.790  15.780
  143DOPC   C3817003   2.342   3.645  15.924
  143DOPC   H8X17004   2.393   3.643  16.023
  143DOPC   H8Y17005   2.411   3.598  15.851
  143DOPC   C3917006   2.211   3.571  15.936
  143DOPC   H9X17007   2.160   3.584  16.033
  143DOPC  C31017008   2.153   3.496  15.841
  143DOPC  H10X17009   2.055   3.449  15.862
  143DOPC  C31117010   2.208   3.469  15.703
  143DOPC  H11X17011   2.238   3.363  15.696
  143DOPC  H11Y17012   2.299   3.529  15.684
  143DOPC  C31217013   2.111   3.499  15.588
  143DOPC  H12X17014   2.094   3.609  15.582
  143DOPC  H12Y17015   2.013   3.450  15.605
  143DOPC  C31317016   2.170   3.448  15.456
  143DOPC  H13X17017   2.266   3.501  15.437
  143DOPC  H13Y17018   2.192   3.340  15.467
  143DOPC  C31417019   2.080   3.467  15.335
  143DOPC  H14X17020   2.112   3.398  15.254
  143DOPC  H14Y17021   1.975   3.443  15.361
  143DOPC  C31517022   2.088   3.610  15.279
  143DOPC  H15X17023   2.193   3.636  15.253
  143DOPC  H15Y17024   2.054   3.680  15.358
  143DOPC  C31617025   2.000   3.624  15.156
  143DOPC  H16X17026   2.044   3.573  15.068
  143DOPC  H16Y17027   1.904   3.573  15.179
  143DOPC  C31717028   1.967   3.769  15.124
  143DOPC  H17X17029   1.977   3.830  15.216
  143DOPC  H17Y17030   2.041   3.810  15.051
  143DOPC  C31817031   1.825   3.782  15.071
  143DOPC  H18X17032   1.810   3.718  14.982
  143DOPC  H18Y17033   1.754   3.750  15.151
  143DOPC  H18Z17034   1.800   3.886  15.043
  144DOPC     N17035   3.154   2.598  16.769
  144DOPC   C1217036   3.281   2.519  16.748
  144DOPC  H12A17037   3.352   2.577  16.691
  144DOPC  H12B17038   3.257   2.431  16.690
  144DOPC   C1317039   3.174   2.691  16.885
  144DOPC  H13A17040   3.206   2.633  16.970
  144DOPC  H13B17041   3.249   2.766  16.866
  144DOPC  H13C17042   3.082   2.738  16.916
  144DOPC   C1417043   3.046   2.502  16.811
  144DOPC  H14A17044   3.015   2.434  16.733
  144DOPC  H14B17045   3.084   2.444  16.894
  144DOPC  H14C17046   2.961   2.554  16.853
  144DOPC   C1517047   3.111   2.674  16.647
  144DOPC  H15A17048   3.021   2.730  16.668
  144DOPC  H15B17049   3.091   2.607  16.564
  144DOPC  H15C17050   3.187   2.745  16.617
  144DOPC   C1117051   3.354   2.470  16.876
  144DOPC  H11A17052   3.425   2.392  16.839
  144DOPC  H11B17053   3.413   2.552  16.922
  144DOPC     P17054   3.299   2.297  17.071
  144DOPC   O1317055   3.180   2.272  17.155
  144DOPC   O1417056   3.423   2.332  17.144
  144DOPC   O1217057   3.263   2.417  16.973
  144DOPC   O1117058   3.325   2.178  16.967
  144DOPC    C117059   3.235   2.167  16.856
  144DOPC    HA17060   3.245   2.254  16.788
  144DOPC    HB17061   3.130   2.162  16.892
  144DOPC    C217062   3.255   2.042  16.764
  144DOPC    HS17063   3.231   1.954  16.827
  144DOPC   O2117064   3.387   2.032  16.705
  144DOPC   C2117065   3.409   1.910  16.657
  144DOPC   O2217066   3.359   1.807  16.700
  144DOPC   C2217067   3.493   1.915  16.530
  144DOPC   H2R17068   3.510   1.811  16.495
  144DOPC   H2S17069   3.593   1.957  16.555
  144DOPC    C317070   3.151   2.053  16.647
  144DOPC    HX17071   3.050   2.054  16.692
  144DOPC    HY17072   3.162   1.961  16.586
  144DOPC   O3117073   3.171   2.176  16.570
  144DOPC   C3117074   3.134   2.165  16.442
  144DOPC   O3217075   3.082   2.066  16.395
  144DOPC   C3217076   3.170   2.293  16.365
  144DOPC   H2X17077   3.131   2.380  16.423
  144DOPC   H2Y17078   3.281   2.299  16.362
  144DOPC   C2317079   3.426   1.995  16.417
  144DOPC   H3R17080   3.506   2.038  16.353
  144DOPC   H3S17081   3.371   2.083  16.457
  144DOPC   C2417082   3.341   1.905  16.327
  144DOPC   H4R17083   3.255   1.865  16.384
  144DOPC   H4S17084   3.406   1.818  16.300
  144DOPC   C2517085   3.292   1.963  16.193
  144DOPC   H5R17086   3.189   2.005  16.202
  144DOPC   H5S17087   3.281   1.877  16.124
  144DOPC   C2617088   3.383   2.068  16.129
  144DOPC   H6R17089   3.488   2.038  16.146
  144DOPC   H6S17090   3.370   2.169  16.175
  144DOPC   C2717091   3.365   2.074  15.978
  144DOPC   H7R17092   3.279   2.138  15.951
  144DOPC   H7S17093   3.339   1.971  15.946
  144DOPC   C2817094   3.494   2.119  15.907
  144DOPC   H8R17095   3.584   2.090  15.966
  144DOPC   H8S17096   3.495   2.230  15.902
  144DOPC   C2917097   3.500   2.054  15.771
  144DOPC   H9R17098   3.561   1.963  15.762
  144DOPC  C21017099   3.437   2.102  15.664
  144DOPC  H10R17100   3.445   2.051  15.566
  144DOPC  C21117101   3.354   2.227  15.667
  144DOPC  H11R17102   3.300   2.240  15.763
  144DOPC  H11S17103   3.276   2.225  15.588
  144DOPC  C21217104   3.452   2.344  15.649
  144DOPC  H12R17105   3.534   2.340  15.724
  144DOPC  H12S17106   3.398   2.440  15.665
  144DOPC  C21317107   3.512   2.345  15.509
  144DOPC  H13R17108   3.553   2.245  15.483
  144DOPC  H13S17109   3.598   2.414  15.499
  144DOPC  C21417110   3.405   2.385  15.410
  144DOPC  H14R17111   3.418   2.489  15.373
  144DOPC  H14S17112   3.307   2.389  15.461
  144DOPC  C21517113   3.396   2.284  15.297
  144DOPC  H15R17114   3.402   2.182  15.339
  144DOPC  H15S17115   3.479   2.295  15.224
  144DOPC  C21617116   3.260   2.300  15.233
  144DOPC  H16R17117   3.188   2.291  15.317
  144DOPC  H16S17118   3.240   2.212  15.168
  144DOPC  C21717119   3.239   2.434  15.161
  144DOPC  H17R17120   3.232   2.515  15.236
  144DOPC  H17S17121   3.141   2.430  15.108
  144DOPC  C21817122   3.351   2.468  15.061
  144DOPC  H18R17123   3.443   2.500  15.115
  144DOPC  H18S17124   3.320   2.551  14.994
  144DOPC  H18T17125   3.376   2.381  14.998
  144DOPC   C3317126   3.116   2.299  16.219
  144DOPC   H3X17127   3.005   2.302  16.217
  144DOPC   H3Y17128   3.147   2.209  16.162
  144DOPC   C3417129   3.166   2.423  16.143
  144DOPC   H4X17130   3.277   2.423  16.143
  144DOPC   H4Y17131   3.132   2.515  16.197
  144DOPC   C3517132   3.117   2.432  15.998
  144DOPC   H5X17133   3.006   2.436  15.994
  144DOPC   H5Y17134   3.150   2.342  15.942
  144DOPC   C3617135   3.174   2.557  15.928
  144DOPC   H6X17136   3.132   2.649  15.974
  144DOPC   H6Y17137   3.284   2.557  15.947
  144DOPC   C3717138   3.155   2.563  15.775
  144DOPC   H7X17139   3.233   2.632  15.737
  144DOPC   H7Y17140   3.174   2.463  15.730
  144DOPC   C3817141   3.017   2.615  15.729
  144DOPC   H8X17142   2.990   2.703  15.791
  144DOPC   H8Y17143   2.941   2.536  15.749
  144DOPC   C3917144   3.022   2.655  15.583
  144DOPC   H9X17145   3.096   2.733  15.560
  144DOPC  C31017146   2.948   2.607  15.482
  144DOPC  H10X17147   2.963   2.646  15.381
  144DOPC  C31117148   2.842   2.500  15.494
  144DOPC  H11X17149   2.774   2.501  15.406
  144DOPC  H11Y17150   2.778   2.521  15.583
  144DOPC  C31217151   2.895   2.358  15.513
  144DOPC  H12X17152   2.811   2.295  15.548
  144DOPC  H12Y17153   2.972   2.358  15.594
  144DOPC  C31317154   2.953   2.298  15.386
  144DOPC  H13X17155   3.008   2.377  15.330
  144DOPC  H13Y17156   3.024   2.217  15.415
  144DOPC  C31417157   2.849   2.236  15.293
  144DOPC  H14X17158   2.780   2.174  15.354
  144DOPC  H14Y17159   2.791   2.320  15.248
  144DOPC  C31517160   2.904   2.148  15.180
  144DOPC  H15X17161   2.947   2.055  15.223
  144DOPC  H15Y17162   2.989   2.205  15.135
  144DOPC  C31617163   2.798   2.113  15.074
  144DOPC  H16X17164   2.713   2.065  15.126
  144DOPC  H16Y17165   2.760   2.207  15.027
  144DOPC  C31717166   2.841   2.016  14.962
  144DOPC  H17X17167   2.913   2.065  14.893
  144DOPC  H17Y17168   2.896   1.930  15.005
  144DOPC  C31817169   2.724   1.965  14.877
  144DOPC  H18X17170   2.650   1.911  14.940
  144DOPC  H18Y17171   2.672   2.050  14.827
  144DOPC  H18Z17172   2.760   1.895  14.798
  145DOPC     N17173   3.928   5.491  17.079
  145DOPC   C1217174   4.023   5.560  16.981
  145DOPC  H12A17175   4.110   5.497  16.970
  145DOPC  H12B17176   4.056   5.653  17.024
  145DOPC   C1317177   3.941   5.343  17.063
  145DOPC  H13A17178   4.042   5.310  17.081
  145DOPC  H13B17179   3.871   5.290  17.125
  145DOPC  H13C17180   3.923   5.317  16.959
  145DOPC   C1417181   3.786   5.529  17.050
  145DOPC  H14A17182   3.769   5.521  16.944
  145DOPC  H14B17183   3.718   5.463  17.101
  145DOPC  H14C17184   3.765   5.630  17.082
  145DOPC   C1517185   3.962   5.526  17.220
  145DOPC  H15A17186   3.954   5.633  17.236
  145DOPC  H15B17187   4.063   5.496  17.245
  145DOPC  H15C17188   3.894   5.478  17.288
  145DOPC   C1117189   3.973   5.590  16.836
  145DOPC  H11A17190   3.901   5.674  16.841
  145DOPC  H11B17191   4.059   5.625  16.775
  145DOPC     P17192   3.988   5.357  16.714
  145DOPC   O1317193   3.885   5.257  16.676
  145DOPC   O1417194   4.088   5.316  16.814
  145DOPC   O1217195   3.908   5.479  16.773
  145DOPC   O1117196   4.061   5.414  16.586
  145DOPC    C117197   3.999   5.504  16.494
  145DOPC    HA17198   3.976   5.601  16.543
  145DOPC    HB17199   3.905   5.461  16.455
  145DOPC    C217200   4.093   5.534  16.373
  145DOPC    HS17201   4.041   5.602  16.303
  145DOPC   O2117202   4.130   5.412  16.305
  145DOPC   C2117203   4.035   5.358  16.231
  145DOPC   O2217204   3.924   5.404  16.211
  145DOPC   C2217205   4.086   5.224  16.177
  145DOPC   H2R17206   4.011   5.147  16.206
  145DOPC   H2S17207   4.183   5.199  16.225
  145DOPC    C317208   4.224   5.606  16.416
  145DOPC    HX17209   4.266   5.549  16.502
  145DOPC    HY17210   4.201   5.708  16.453
  145DOPC   O3117211   4.322   5.605  16.309
  145DOPC   C3117212   4.331   5.714  16.234
  145DOPC   O3217213   4.279   5.821  16.258
  145DOPC   C3217214   4.415   5.681  16.110
  145DOPC   H2X17215   4.521   5.707  16.131
  145DOPC   H2Y17216   4.409   5.572  16.091
  145DOPC   C2317217   4.102   5.225  16.023
  145DOPC   H3R17218   4.011   5.266  15.975
  145DOPC   H3S17219   4.114   5.120  15.988
  145DOPC   C2417220   4.227   5.302  15.977
  145DOPC   H4R17221   4.317   5.257  16.022
  145DOPC   H4S17222   4.222   5.407  16.013
  145DOPC   C2517223   4.243   5.302  15.825
  145DOPC   H5R17224   4.237   5.198  15.786
  145DOPC   H5S17225   4.344   5.340  15.800
  145DOPC   C2617226   4.139   5.389  15.754
  145DOPC   H6R17227   4.140   5.490  15.802
  145DOPC   H6S17228   4.036   5.348  15.765
  145DOPC   C2717229   4.173   5.408  15.606
  145DOPC   H7R17230   4.284   5.414  15.605
  145DOPC   H7S17231   4.136   5.506  15.568
  145DOPC   C2817232   4.129   5.293  15.513
  145DOPC   H8R17233   4.173   5.200  15.555
  145DOPC   H8S17234   4.181   5.310  15.416
  145DOPC   C2917235   3.983   5.270  15.485
  145DOPC   H9R17236   3.963   5.170  15.445
  145DOPC  C21017237   3.878   5.353  15.500
  145DOPC  H10R17238   3.779   5.316  15.467
  145DOPC  C21117239   3.875   5.495  15.550
  145DOPC  H11R17240   3.946   5.558  15.491
  145DOPC  H11S17241   3.910   5.499  15.655
  145DOPC  C21217242   3.737   5.564  15.546
  145DOPC  H12R17243   3.750   5.668  15.581
  145DOPC  H12S17244   3.669   5.513  15.618
  145DOPC  C21317245   3.671   5.568  15.408
  145DOPC  H13R17246   3.576   5.626  15.415
  145DOPC  H13S17247   3.645   5.464  15.377
  145DOPC  C21417248   3.757   5.634  15.300
  145DOPC  H14R17249   3.850   5.573  15.288
  145DOPC  H14S17250   3.786   5.735  15.336
  145DOPC  C21517251   3.690   5.648  15.163
  145DOPC  H15R17252   3.760   5.697  15.092
  145DOPC  H15S17253   3.602   5.716  15.173
  145DOPC  C21617254   3.644   5.514  15.103
  145DOPC  H16R17255   3.581   5.534  15.013
  145DOPC  H16S17256   3.583   5.457  15.176
  145DOPC  C21717257   3.760   5.424  15.063
  145DOPC  H17R17258   3.831   5.413  15.147
  145DOPC  H17S17259   3.812   5.477  14.980
  145DOPC  C21817260   3.716   5.285  15.016
  145DOPC  H18R17261   3.636   5.293  14.940
  145DOPC  H18S17262   3.679   5.225  15.102
  145DOPC  H18T17263   3.803   5.233  14.971
  145DOPC   C3317264   4.366   5.757  15.984
  145DOPC   H3X17265   4.425   5.722  15.896
  145DOPC   H3Y17266   4.385   5.866  15.996
  145DOPC   C3417267   4.217   5.732  15.958
  145DOPC   H4X17268   4.158   5.775  16.042
  145DOPC   H4Y17269   4.198   5.623  15.956
  145DOPC   C3517270   4.164   5.796  15.829
  145DOPC   H5X17271   4.210   5.748  15.740
  145DOPC   H5Y17272   4.192   5.903  15.829
  145DOPC   C3617273   4.011   5.781  15.823
  145DOPC   H6X17274   3.985   5.673  15.821
  145DOPC   H6Y17275   3.968   5.823  15.917
  145DOPC   C3717276   3.944   5.852  15.704
  145DOPC   H7X17277   3.984   5.808  15.610
  145DOPC   H7Y17278   3.835   5.830  15.709
  145DOPC   C3817279   3.965   6.004  15.705
  145DOPC   H8X17280   4.073   6.024  15.687
  145DOPC   H8Y17281   3.944   6.041  15.808
  145DOPC   C3917282   3.879   6.080  15.607
  145DOPC   H9X17283   3.783   6.116  15.648
  145DOPC  C31017284   3.908   6.104  15.479
  145DOPC  H10X17285   3.836   6.159  15.416
  145DOPC  C31117286   4.033   6.059  15.407
  145DOPC  H11X17287   4.116   6.037  15.477
  145DOPC  H11Y17288   4.069   6.135  15.335
  145DOPC  C31217289   3.995   5.929  15.334
  145DOPC  H12X17290   3.921   5.949  15.254
  145DOPC  H12Y17291   3.948   5.859  15.407
  145DOPC  C31317292   4.114   5.855  15.274
  145DOPC  H13X17293   4.150   5.909  15.184
  145DOPC  H13Y17294   4.197   5.849  15.348
  145DOPC  C31417295   4.070   5.713  15.238
  145DOPC  H14X17296   4.050   5.658  15.333
  145DOPC  H14Y17297   3.977   5.717  15.178
  145DOPC  C31517298   4.175   5.638  15.158
  145DOPC  H15X17299   4.274   5.666  15.200
  145DOPC  H15Y17300   4.169   5.677  15.054
  145DOPC  C31617301   4.163   5.485  15.162
  145DOPC  H16X17302   4.264   5.443  15.178
  145DOPC  H16Y17303   4.100   5.454  15.248
  145DOPC  C31717304   4.108   5.423  15.032
  145DOPC  H17X17305   4.008   5.468  15.014
  145DOPC  H17Y17306   4.170   5.451  14.945
  145DOPC  C31817307   4.100   5.271  15.037
  145DOPC  H18X17308   4.039   5.239  15.125
  145DOPC  H18Y17309   4.052   5.232  14.945
  145DOPC  H18Z17310   4.201   5.226  15.046
  146DOPC     N17311   5.360   2.702  17.027
  146DOPC   C1217312   5.485   2.716  16.941
  146DOPC  H12A17313   5.488   2.631  16.874
  146DOPC  H12B17314   5.571   2.715  17.006
  146DOPC   C1317315   5.376   2.596  17.131
  146DOPC  H13A17316   5.455   2.621  17.200
  146DOPC  H13B17317   5.284   2.588  17.188
  146DOPC  H13C17318   5.392   2.499  17.087
  146DOPC   C1417319   5.240   2.666  16.944
  146DOPC  H14A17320   5.222   2.743  16.870
  146DOPC  H14B17321   5.251   2.572  16.892
  146DOPC  H14C17322   5.150   2.663  17.004
  146DOPC   C1517323   5.332   2.833  17.094
  146DOPC  H15A17324   5.413   2.868  17.155
  146DOPC  H15B17325   5.243   2.829  17.156
  146DOPC  H15C17326   5.313   2.910  17.020
  146DOPC   C1117327   5.499   2.842  16.852
  146DOPC  H11A17328   5.506   2.933  16.915
  146DOPC  H11B17329   5.595   2.837  16.796
  146DOPC     P17330   5.284   2.960  16.755
  146DOPC   O1317331   5.313   3.054  16.865
  146DOPC   O1417332   5.155   2.888  16.757
  146DOPC   O1217333   5.394   2.846  16.756
  146DOPC   O1117334   5.311   3.023  16.612
  146DOPC    C117335   5.279   2.943  16.497
  146DOPC    HA17336   5.195   2.990  16.442
  146DOPC    HB17337   5.246   2.840  16.523
  146DOPC    C217338   5.400   2.928  16.401
  146DOPC    HS17339   5.492   2.920  16.463
  146DOPC   O2117340   5.402   3.045  16.317
  146DOPC   C2117341   5.513   3.072  16.253
  146DOPC   O2217342   5.618   3.011  16.260
  146DOPC   C2217343   5.486   3.192  16.162
  146DOPC   H2R17344   5.464   3.280  16.226
  146DOPC   H2S17345   5.395   3.168  16.102
  146DOPC    C317346   5.383   2.798  16.317
  146DOPC    HX17347   5.302   2.820  16.244
  146DOPC    HY17348   5.349   2.717  16.384
  146DOPC   O3117349   5.507   2.757  16.255
  146DOPC   C3117350   5.494   2.696  16.139
  146DOPC   O3217351   5.389   2.660  16.088
  146DOPC   C3217352   5.632   2.671  16.080
  146DOPC   H2X17353   5.705   2.740  16.127
  146DOPC   H2Y17354   5.661   2.567  16.104
  146DOPC   C2317355   5.604   3.224  16.067
  146DOPC   H3R17356   5.651   3.129  16.032
  146DOPC   H3S17357   5.680   3.281  16.125
  146DOPC   C2417358   5.564   3.304  15.943
  146DOPC   H4R17359   5.655   3.350  15.898
  146DOPC   H4S17360   5.496   3.387  15.972
  146DOPC   C2517361   5.501   3.217  15.835
  146DOPC   H5R17362   5.404   3.178  15.873
  146DOPC   H5S17363   5.567   3.129  15.815
  146DOPC   C2617364   5.479   3.293  15.703
  146DOPC   H6R17365   5.572   3.300  15.643
  146DOPC   H6S17366   5.449   3.396  15.731
  146DOPC   C2717367   5.363   3.235  15.621
  146DOPC   H7R17368   5.318   3.320  15.565
  146DOPC   H7S17369   5.288   3.198  15.694
  146DOPC   C2817370   5.391   3.122  15.522
  146DOPC   H8R17371   5.447   3.041  15.573
  146DOPC   H8S17372   5.456   3.160  15.440
  146DOPC   C2917373   5.257   3.075  15.470
  146DOPC   H9R17374   5.203   3.149  15.410
  146DOPC  C21017375   5.198   2.956  15.493
  146DOPC  H10R17376   5.099   2.938  15.450
  146DOPC  C21117377   5.253   2.842  15.574
  146DOPC  H11R17378   5.172   2.786  15.625
  146DOPC  H11S17379   5.324   2.876  15.652
  146DOPC  C21217380   5.325   2.751  15.474
  146DOPC  H12R17381   5.405   2.811  15.426
  146DOPC  H12S17382   5.256   2.717  15.394
  146DOPC  C21317383   5.393   2.627  15.535
  146DOPC  H13R17384   5.322   2.542  15.535
  146DOPC  H13S17385   5.420   2.649  15.640
  146DOPC  C21417386   5.521   2.591  15.458
  146DOPC  H14R17387   5.569   2.503  15.505
  146DOPC  H14S17388   5.591   2.677  15.470
  146DOPC  C21517389   5.502   2.567  15.307
  146DOPC  H15R17390   5.446   2.653  15.264
  146DOPC  H15S17391   5.440   2.477  15.292
  146DOPC  C21617392   5.639   2.555  15.238
  146DOPC  H16R17393   5.686   2.462  15.278
  146DOPC  H16S17394   5.701   2.641  15.268
  146DOPC  C21717395   5.643   2.545  15.084
  146DOPC  H17R17396   5.615   2.442  15.054
  146DOPC  H17S17397   5.748   2.558  15.051
  146DOPC  C21817398   5.555   2.644  15.009
  146DOPC  H18R17399   5.546   2.615  14.902
  146DOPC  H18S17400   5.597   2.746  15.014
  146DOPC  H18T17401   5.452   2.644  15.050
  146DOPC   C3317402   5.633   2.691  15.927
  146DOPC   H3X17403   5.559   2.625  15.878
  146DOPC   H3Y17404   5.733   2.661  15.890
  146DOPC   C3417405   5.605   2.837  15.886
  146DOPC   H4X17406   5.667   2.906  15.947
  146DOPC   H4Y17407   5.498   2.860  15.907
  146DOPC   C3517408   5.633   2.863  15.738
  146DOPC   H5X17409   5.581   2.955  15.704
  146DOPC   H5Y17410   5.594   2.778  15.678
  146DOPC   C3617411   5.783   2.880  15.711
  146DOPC   H6X17412   5.819   2.976  15.753
  146DOPC   H6Y17413   5.833   2.797  15.765
  146DOPC   C3717414   5.824   2.867  15.564
  146DOPC   H7X17415   5.934   2.853  15.560
  146DOPC   H7Y17416   5.778   2.774  15.524
  146DOPC   C3817417   5.786   2.987  15.478
  146DOPC   H8X17418   5.841   3.077  15.513
  146DOPC   H8Y17419   5.678   3.008  15.490
  146DOPC   C3917420   5.825   2.952  15.337
  146DOPC   H9X17421   5.933   2.942  15.320
  146DOPC  C31017422   5.741   2.929  15.234
  146DOPC  H10X17423   5.783   2.900  15.137
  146DOPC  C31117424   5.591   2.934  15.238
  146DOPC  H11X17425   5.552   2.985  15.329
  146DOPC  H11Y17426   5.551   2.831  15.239
  146DOPC  C31217427   5.537   3.008  15.115
  146DOPC  H12X17428   5.567   2.955  15.022
  146DOPC  H12Y17429   5.584   3.109  15.111
  146DOPC  C31317430   5.385   3.023  15.117
  146DOPC  H13X17431   5.353   3.076  15.209
  146DOPC  H13Y17432   5.354   3.084  15.029
  146DOPC  C31417433   5.313   2.888  15.107
  146DOPC  H14X17434   5.355   2.836  15.018
  146DOPC  H14Y17435   5.335   2.827  15.197
  146DOPC  C31517436   5.162   2.899  15.089
  146DOPC  H15X17437   5.139   2.986  15.024
  146DOPC  H15Y17438   5.114   2.916  15.188
  146DOPC  C31617439   5.106   2.773  15.022
  146DOPC  H16X17440   4.999   2.786  14.997
  146DOPC  H16Y17441   5.160   2.758  14.926
  146DOPC  C31717442   5.122   2.646  15.107
  146DOPC  H17X17443   5.223   2.642  15.152
  146DOPC  H17Y17444   5.048   2.648  15.190
  146DOPC  C31817445   5.103   2.522  15.021
  146DOPC  H18X17446   5.091   2.431  15.085
  146DOPC  H18Y17447   5.013   2.531  14.956
  146DOPC  H18Z17448   5.191   2.510  14.955
  147DOPC     N17449   1.684   3.264  17.009
  147DOPC   C1217450   1.765   3.388  16.974
  147DOPC  H12A17451   1.741   3.469  17.041
  147DOPC  H12B17452   1.740   3.419  16.873
  147DOPC   C1317453   1.664   3.188  16.882
  147DOPC  H13A17454   1.620   3.090  16.896
  147DOPC  H13B17455   1.599   3.238  16.812
  147DOPC  H13C17456   1.759   3.172  16.833
  147DOPC   C1417457   1.553   3.305  17.068
  147DOPC  H14A17458   1.495   3.362  16.996
  147DOPC  H14B17459   1.491   3.220  17.094
  147DOPC  H14C17460   1.567   3.364  17.157
  147DOPC   C1517461   1.768   3.183  17.103
  147DOPC  H15A17462   1.787   3.238  17.195
  147DOPC  H15B17463   1.863   3.167  17.056
  147DOPC  H15C17464   1.727   3.086  17.128
  147DOPC   C1117465   1.920   3.378  16.979
  147DOPC  H11A17466   1.956   3.476  16.942
  147DOPC  H11B17467   1.955   3.369  17.084
  147DOPC     P17468   2.103   3.293  16.822
  147DOPC   O1317469   2.208   3.325  16.922
  147DOPC   O1417470   2.067   3.395  16.722
  147DOPC   O1217471   1.969   3.266  16.903
  147DOPC   O1117472   2.131   3.153  16.754
  147DOPC    C117473   2.018   3.083  16.701
  147DOPC    HA17474   1.955   3.150  16.638
  147DOPC    HB17475   1.957   3.042  16.784
  147DOPC    C217476   2.060   2.964  16.610
  147DOPC    HS17477   2.136   2.905  16.665
  147DOPC   O2117478   2.114   3.014  16.487
  147DOPC   C2117479   2.156   2.922  16.402
  147DOPC   O2217480   2.168   2.803  16.423
  147DOPC   C2217481   2.185   2.988  16.268
  147DOPC   H2R17482   2.220   2.909  16.198
  147DOPC   H2S17483   2.267   3.061  16.285
  147DOPC    C317484   1.935   2.876  16.585
  147DOPC    HX17485   1.895   2.841  16.683
  147DOPC    HY17486   1.967   2.783  16.533
  147DOPC   O3117487   1.837   2.945  16.504
  147DOPC   C3117488   1.731   2.994  16.567
  147DOPC   O3217489   1.708   2.979  16.685
  147DOPC   C3217490   1.643   3.072  16.468
  147DOPC   H2X17491   1.539   3.065  16.506
  147DOPC   H2Y17492   1.675   3.178  16.470
  147DOPC   C2317493   2.065   3.063  16.207
  147DOPC   H3R17494   2.017   3.129  16.282
  147DOPC   H3S17495   1.989   2.988  16.175
  147DOPC   C2417496   2.110   3.149  16.088
  147DOPC   H4R17497   2.204   3.108  16.046
  147DOPC   H4S17498   2.134   3.251  16.125
  147DOPC   C2517499   2.007   3.158  15.975
  147DOPC   H5R17500   2.037   3.238  15.904
  147DOPC   H5S17501   1.909   3.187  16.019
  147DOPC   C2617502   1.992   3.027  15.896
  147DOPC   H6R17503   1.910   3.042  15.822
  147DOPC   H6S17504   1.960   2.947  15.966
  147DOPC   C2717505   2.115   2.977  15.818
  147DOPC   H7R17506   2.085   2.886  15.761
  147DOPC   H7S17507   2.192   2.946  15.891
  147DOPC   C2817508   2.177   3.078  15.721
  147DOPC   H8R17509   2.270   3.033  15.679
  147DOPC   H8S17510   2.210   3.167  15.778
  147DOPC   C2917511   2.087   3.119  15.607
  147DOPC   H9R17512   2.029   3.211  15.624
  147DOPC  C21017513   2.071   3.051  15.492
  147DOPC  H10R17514   2.001   3.093  15.418
  147DOPC  C21117515   2.139   2.922  15.451
  147DOPC  H11R17516   2.062   2.841  15.454
  147DOPC  H11S17517   2.217   2.891  15.523
  147DOPC  C21217518   2.199   2.924  15.309
  147DOPC  H12R17519   2.292   2.985  15.315
  147DOPC  H12S17520   2.131   2.979  15.241
  147DOPC  C21317521   2.235   2.787  15.247
  147DOPC  H13R17522   2.280   2.719  15.322
  147DOPC  H13S17523   2.313   2.810  15.171
  147DOPC  C21417524   2.125   2.715  15.165
  147DOPC  H14R17525   2.061   2.795  15.123
  147DOPC  H14S17526   2.061   2.652  15.231
  147DOPC  C21517527   2.172   2.633  15.043
  147DOPC  H15R17528   2.193   2.528  15.072
  147DOPC  H15S17529   2.267   2.678  15.007
  147DOPC  C21617530   2.072   2.640  14.925
  147DOPC  H16R17531   2.126   2.619  14.830
  147DOPC  H16S17532   2.037   2.746  14.919
  147DOPC  C21717533   1.951   2.547  14.935
  147DOPC  H17R17534   1.910   2.554  15.038
  147DOPC  H17S17535   1.984   2.442  14.920
  147DOPC  C21817536   1.836   2.572  14.837
  147DOPC  H18R17537   1.787   2.668  14.860
  147DOPC  H18S17538   1.759   2.492  14.845
  147DOPC  H18T17539   1.872   2.574  14.732
  147DOPC   C3317540   1.650   3.016  16.324
  147DOPC   H3X17541   1.628   2.907  16.332
  147DOPC   H3Y17542   1.752   3.028  16.280
  147DOPC   C3417543   1.545   3.071  16.228
  147DOPC   H4X17544   1.562   3.178  16.206
  147DOPC   H4Y17545   1.447   3.063  16.280
  147DOPC   C3517546   1.534   2.989  16.097
  147DOPC   H5X17547   1.427   2.989  16.067
  147DOPC   H5Y17548   1.556   2.883  16.119
  147DOPC   C3617549   1.618   3.041  15.979
  147DOPC   H6X17550   1.613   3.152  15.975
  147DOPC   H6Y17551   1.725   3.016  15.995
  147DOPC   C3717552   1.571   2.985  15.842
  147DOPC   H7X17553   1.561   2.875  15.848
  147DOPC   H7Y17554   1.470   3.024  15.820
  147DOPC   C3817555   1.659   3.019  15.720
  147DOPC   H8X17556   1.606   2.982  15.630
  147DOPC   H8Y17557   1.754   2.961  15.719
  147DOPC   C3917558   1.693   3.164  15.712
  147DOPC   H9X17559   1.771   3.200  15.781
  147DOPC  C31017560   1.633   3.252  15.632
  147DOPC  H10X17561   1.665   3.357  15.633
  147DOPC  C31117562   1.522   3.219  15.536
  147DOPC  H11X17563   1.437   3.288  15.553
  147DOPC  H11Y17564   1.477   3.118  15.553
  147DOPC  C31217565   1.563   3.227  15.388
  147DOPC  H12X17566   1.475   3.262  15.331
  147DOPC  H12Y17567   1.585   3.125  15.350
  147DOPC  C31317568   1.682   3.321  15.355
  147DOPC  H13X17569   1.689   3.405  15.426
  147DOPC  H13Y17570   1.778   3.265  15.363
  147DOPC  C31417571   1.666   3.381  15.215
  147DOPC  H14X17572   1.559   3.405  15.197
  147DOPC  H14Y17573   1.724   3.476  15.208
  147DOPC  C31517574   1.715   3.283  15.112
  147DOPC  H15X17575   1.657   3.189  15.126
  147DOPC  H15Y17576   1.821   3.261  15.138
  147DOPC  C31617577   1.701   3.322  14.964
  147DOPC  H16X17578   1.714   3.226  14.910
  147DOPC  H16Y17579   1.599   3.359  14.943
  147DOPC  C31717580   1.807   3.415  14.906
  147DOPC  H17X17581   1.767   3.519  14.900
  147DOPC  H17Y17582   1.895   3.419  14.974
  147DOPC  C31817583   1.853   3.369  14.767
  147DOPC  H18X17584   1.898   3.268  14.771
  147DOPC  H18Y17585   1.767   3.364  14.697
  147DOPC  H18Z17586   1.929   3.439  14.725
  148DOPC     N17587   2.715   5.337  16.733
  148DOPC   C1217588   2.700   5.485  16.767
  148DOPC  H12A17589   2.595   5.510  16.777
  148DOPC  H12B17590   2.738   5.546  16.687
  148DOPC   C1317591   2.857   5.295  16.756
  148DOPC  H13A17592   2.884   5.317  16.858
  148DOPC  H13B17593   2.871   5.189  16.740
  148DOPC  H13C17594   2.925   5.349  16.692
  148DOPC   C1417595   2.676   5.307  16.592
  148DOPC  H14A17596   2.688   5.202  16.570
  148DOPC  H14B17597   2.573   5.333  16.574
  148DOPC  H14C17598   2.737   5.363  16.523
  148DOPC   C1517599   2.628   5.259  16.828
  148DOPC  H15A17600   2.525   5.287  16.818
  148DOPC  H15B17601   2.657   5.286  16.929
  148DOPC  H15C17602   2.640   5.152  16.816
  148DOPC   C1117603   2.768   5.533  16.897
  148DOPC  H11A17604   2.877   5.513  16.891
  148DOPC  H11B17605   2.759   5.643  16.905
  148DOPC     P17606   2.602   5.532  17.098
  148DOPC   O1317607   2.646   5.662  17.154
  148DOPC   O1417608   2.555   5.428  17.192
  148DOPC   O1217609   2.718   5.467  17.013
  148DOPC   O1117610   2.492   5.555  16.987
  148DOPC    C117611   2.410   5.671  16.983
  148DOPC    HA17612   2.435   5.748  17.059
  148DOPC    HB17613   2.305   5.639  17.001
  148DOPC    C217614   2.411   5.737  16.842
  148DOPC    HS17615   2.317   5.795  16.834
  148DOPC   O2117616   2.422   5.630  16.745
  148DOPC   C2117617   2.336   5.640  16.646
  148DOPC   O2217618   2.266   5.735  16.619
  148DOPC   C2217619   2.332   5.508  16.570
  148DOPC   H2R17620   2.226   5.510  16.537
  148DOPC   H2S17621   2.350   5.422  16.639
  148DOPC    C317622   2.527   5.839  16.824
  148DOPC    HX17623   2.624   5.792  16.851
  148DOPC    HY17624   2.511   5.922  16.896
  148DOPC   O3117625   2.526   5.894  16.690
  148DOPC   C3117626   2.590   5.821  16.600
  148DOPC   O3217627   2.676   5.737  16.623
  148DOPC   C3217628   2.529   5.846  16.463
  148DOPC   H2X17629   2.424   5.809  16.463
  148DOPC   H2Y17630   2.523   5.955  16.446
  148DOPC   C2317631   2.410   5.495  16.437
  148DOPC   H3R17632   2.517   5.472  16.454
  148DOPC   H3S17633   2.404   5.592  16.383
  148DOPC   C2417634   2.343   5.390  16.347
  148DOPC   H4R17635   2.269   5.443  16.283
  148DOPC   H4S17636   2.285   5.318  16.409
  148DOPC   C2517637   2.436   5.307  16.256
  148DOPC   H5R17638   2.487   5.229  16.316
  148DOPC   H5S17639   2.514   5.372  16.211
  148DOPC   C2617640   2.356   5.242  16.142
  148DOPC   H6R17641   2.315   5.322  16.076
  148DOPC   H6S17642   2.268   5.190  16.185
  148DOPC   C2717643   2.436   5.142  16.057
  148DOPC   H7R17644   2.383   5.044  16.061
  148DOPC   H7S17645   2.537   5.126  16.100
  148DOPC   C2817646   2.446   5.180  15.908
  148DOPC   H8R17647   2.344   5.199  15.868
  148DOPC   H8S17648   2.486   5.093  15.852
  148DOPC   C2917649   2.538   5.298  15.886
  148DOPC   H9R17650   2.641   5.283  15.922
  148DOPC  C21017651   2.507   5.415  15.830
  148DOPC  H10R17652   2.585   5.492  15.822
  148DOPC  C21117653   2.375   5.462  15.774
  148DOPC  H11R17654   2.359   5.564  15.814
  148DOPC  H11S17655   2.290   5.399  15.807
  148DOPC  C21217656   2.374   5.471  15.620
  148DOPC  H12R17657   2.274   5.508  15.587
  148DOPC  H12S17658   2.388   5.370  15.577
  148DOPC  C21317659   2.482   5.565  15.563
  148DOPC  H13R17660   2.581   5.531  15.599
  148DOPC  H13S17661   2.466   5.669  15.600
  148DOPC  C21417662   2.487   5.566  15.409
  148DOPC  H14R17663   2.468   5.463  15.371
  148DOPC  H14S17664   2.590   5.594  15.377
  148DOPC  C21517665   2.390   5.665  15.345
  148DOPC  H15R17666   2.412   5.768  15.380
  148DOPC  H15S17667   2.288   5.640  15.379
  148DOPC  C21617668   2.393   5.659  15.191
  148DOPC  H16R17669   2.305   5.719  15.157
  148DOPC  H16S17670   2.378   5.554  15.157
  148DOPC  C21717671   2.514   5.720  15.120
  148DOPC  H17R17672   2.500   5.708  15.010
  148DOPC  H17S17673   2.604   5.661  15.146
  148DOPC  C21817674   2.538   5.869  15.148
  148DOPC  H18R17675   2.555   5.887  15.256
  148DOPC  H18S17676   2.450   5.928  15.114
  148DOPC  H18T17677   2.627   5.905  15.092
  148DOPC   C3317678   2.606   5.772  16.352
  148DOPC   H3X17679   2.618   5.666  16.382
  148DOPC   H3Y17680   2.708   5.816  16.344
  148DOPC   C3417681   2.536   5.778  16.216
  148DOPC   H4X17682   2.590   5.852  16.153
  148DOPC   H4Y17683   2.431   5.814  16.227
  148DOPC   C3517684   2.536   5.647  16.136
  148DOPC   H5X17685   2.507   5.670  16.031
  148DOPC   H5Y17686   2.457   5.579  16.175
  148DOPC   C3617687   2.671   5.576  16.135
  148DOPC   H6X17688   2.692   5.534  16.236
  148DOPC   H6Y17689   2.665   5.489  16.066
  148DOPC   C3717690   2.789   5.666  16.095
  148DOPC   H7X17691   2.800   5.749  16.168
  148DOPC   H7Y17692   2.882   5.606  16.101
  148DOPC   C3817693   2.776   5.728  15.956
  148DOPC   H8X17694   2.855   5.805  15.945
  148DOPC   H8Y17695   2.678   5.780  15.945
  148DOPC   C3917696   2.793   5.622  15.852
  148DOPC   H9X17697   2.790   5.518  15.889
  148DOPC  C31017698   2.817   5.643  15.723
  148DOPC  H10X17699   2.831   5.557  15.657
  148DOPC  C31117700   2.830   5.779  15.659
  148DOPC  H11X17701   2.938   5.803  15.652
  148DOPC  H11Y17702   2.783   5.860  15.719
  148DOPC  C31217703   2.771   5.778  15.518
  148DOPC  H12X17704   2.781   5.880  15.475
  148DOPC  H12Y17705   2.662   5.756  15.519
  148DOPC  C31317706   2.846   5.678  15.429
  148DOPC  H13X17707   2.952   5.681  15.460
  148DOPC  H13Y17708   2.809   5.575  15.446
  148DOPC  C31417709   2.841   5.708  15.279
  148DOPC  H14X17710   2.780   5.630  15.230
  148DOPC  H14Y17711   2.796   5.808  15.258
  148DOPC  C31517712   2.982   5.701  15.222
  148DOPC  H15X17713   3.024   5.606  15.260
  148DOPC  H15Y17714   3.041   5.787  15.261
  148DOPC  C31617715   2.993   5.694  15.070
  148DOPC  H16X17716   2.929   5.771  15.023
  148DOPC  H16Y17717   3.099   5.716  15.044
  148DOPC  C31717718   2.961   5.555  15.016
  148DOPC  H17X17719   3.012   5.479  15.078
  148DOPC  H17Y17720   2.852   5.536  15.022
  148DOPC  C31817721   3.009   5.540  14.872
  148DOPC  H18X17722   3.018   5.432  14.845
  148DOPC  H18Y17723   2.937   5.589  14.803
  148DOPC  H18Z17724   3.108   5.587  14.858
  149DOPC     N17725   2.518   1.935  16.785
  149DOPC   C1217726   2.502   1.934  16.937
  149DOPC  H12A17727   2.582   1.876  16.981
  149DOPC  H12B17728   2.410   1.883  16.962
  149DOPC   C1317729   2.405   2.010  16.723
  149DOPC  H13A17730   2.310   1.974  16.759
  149DOPC  H13B17731   2.414   2.114  16.749
  149DOPC  H13C17732   2.409   2.002  16.615
  149DOPC   C1417733   2.523   1.794  16.733
  149DOPC  H14A17734   2.432   1.739  16.755
  149DOPC  H14B17735   2.535   1.790  16.626
  149DOPC  H14C17736   2.604   1.738  16.777
  149DOPC   C1517737   2.645   2.005  16.750
  149DOPC  H15A17738   2.642   2.104  16.793
  149DOPC  H15B17739   2.658   2.013  16.643
  149DOPC  H15C17740   2.729   1.955  16.794
  149DOPC   C1117741   2.503   2.071  17.010
  149DOPC  H11A17742   2.433   2.140  16.958
  149DOPC  H11B17743   2.465   2.052  17.113
  149DOPC     P17744   2.646   2.278  17.061
  149DOPC   O1317745   2.787   2.318  17.082
  149DOPC   O1417746   2.548   2.308  17.167
  149DOPC   O1217747   2.636   2.124  17.020
  149DOPC   O1117748   2.596   2.341  16.925
  149DOPC    C117749   2.690   2.346  16.818
  149DOPC    HA17750   2.740   2.249  16.798
  149DOPC    HB17751   2.770   2.420  16.842
  149DOPC    C217752   2.619   2.394  16.691
  149DOPC    HS17753   2.565   2.485  16.724
  149DOPC   O2117754   2.530   2.293  16.637
  149DOPC   C2117755   2.421   2.346  16.582
  149DOPC   O2217756   2.379   2.458  16.603
  149DOPC   C2217757   2.355   2.246  16.488
  149DOPC   H2R17758   2.259   2.218  16.536
  149DOPC   H2S17759   2.417   2.154  16.477
  149DOPC    C317760   2.721   2.431  16.582
  149DOPC    HX17761   2.794   2.505  16.622
  149DOPC    HY17762   2.663   2.478  16.500
  149DOPC   O3117763   2.792   2.313  16.541
  149DOPC   C3117764   2.804   2.302  16.409
  149DOPC   O3217765   2.800   2.393  16.330
  149DOPC   C3217766   2.816   2.155  16.375
  149DOPC   H2X17767   2.888   2.144  16.291
  149DOPC   H2Y17768   2.851   2.098  16.463
  149DOPC   C2317769   2.324   2.308  16.350
  149DOPC   H3R17770   2.294   2.414  16.358
  149DOPC   H3S17771   2.239   2.251  16.307
  149DOPC   C2417772   2.437   2.301  16.249
  149DOPC   H4R17773   2.463   2.194  16.232
  149DOPC   H4S17774   2.525   2.356  16.290
  149DOPC   C2517775   2.401   2.361  16.112
  149DOPC   H5R17776   2.345   2.456  16.126
  149DOPC   H5S17777   2.334   2.290  16.058
  149DOPC   C2617778   2.527   2.389  16.031
  149DOPC   H6R17779   2.616   2.355  16.089
  149DOPC   H6S17780   2.536   2.499  16.019
  149DOPC   C2717781   2.530   2.325  15.892
  149DOPC   H7R17782   2.462   2.382  15.825
  149DOPC   H7S17783   2.487   2.223  15.901
  149DOPC   C2817784   2.671   2.319  15.828
  149DOPC   H8R17785   2.710   2.423  15.820
  149DOPC   H8S17786   2.658   2.284  15.724
  149DOPC   C2917787   2.775   2.240  15.903
  149DOPC   H9R17788   2.803   2.281  16.001
  149DOPC  C21017789   2.836   2.127  15.862
  149DOPC  H10R17790   2.909   2.078  15.928
  149DOPC  C21117791   2.811   2.055  15.732
  149DOPC  H11R17792   2.721   2.093  15.680
  149DOPC  H11S17793   2.789   1.949  15.756
  149DOPC  C21217794   2.924   2.057  15.630
  149DOPC  H12R17795   3.005   2.128  15.659
  149DOPC  H12S17796   2.881   2.092  15.533
  149DOPC  C21317797   2.982   1.919  15.602
  149DOPC  H13R17798   3.021   1.876  15.697
  149DOPC  H13S17799   3.067   1.930  15.532
  149DOPC  C21417800   2.881   1.821  15.539
  149DOPC  H14R17801   2.791   1.805  15.603
  149DOPC  H14S17802   2.933   1.723  15.530
  149DOPC  C21517803   2.838   1.860  15.398
  149DOPC  H15R17804   2.931   1.883  15.343
  149DOPC  H15S17805   2.775   1.951  15.398
  149DOPC  C21617806   2.765   1.748  15.322
  149DOPC  H16R17807   2.656   1.751  15.343
  149DOPC  H16S17808   2.803   1.648  15.354
  149DOPC  C21717809   2.794   1.764  15.173
  149DOPC  H17R17810   2.904   1.765  15.158
  149DOPC  H17S17811   2.753   1.864  15.147
  149DOPC  C21817812   2.733   1.663  15.079
  149DOPC  H18R17813   2.772   1.674  14.976
  149DOPC  H18S17814   2.623   1.680  15.076
  149DOPC  H18T17815   2.753   1.559  15.114
  149DOPC   C3317816   2.683   2.099  16.326
  149DOPC   H3X17817   2.659   2.152  16.231
  149DOPC   H3Y17818   2.603   2.117  16.401
  149DOPC   C3417819   2.695   1.951  16.298
  149DOPC   H4X17820   2.722   1.897  16.391
  149DOPC   H4Y17821   2.777   1.939  16.224
  149DOPC   C3517822   2.567   1.890  16.240
  149DOPC   H5X17823   2.481   1.927  16.299
  149DOPC   H5Y17824   2.569   1.779  16.248
  149DOPC   C3617825   2.549   1.929  16.093
  149DOPC   H6X17826   2.441   1.927  16.066
  149DOPC   H6Y17827   2.582   2.034  16.077
  149DOPC   C3717828   2.623   1.836  15.995
  149DOPC   H7X17829   2.728   1.872  15.989
  149DOPC   H7Y17830   2.625   1.732  16.035
  149DOPC   C3817831   2.561   1.832  15.854
  149DOPC   H8X17832   2.472   1.765  15.853
  149DOPC   H8Y17833   2.634   1.788  15.783
  149DOPC   C3917834   2.524   1.972  15.816
  149DOPC   H9X17835   2.579   2.049  15.871
  149DOPC  C31017836   2.439   2.013  15.722
  149DOPC  H10X17837   2.423   2.121  15.709
  149DOPC  C31117838   2.361   1.926  15.630
  149DOPC  H11X17839   2.253   1.940  15.656
  149DOPC  H11Y17840   2.387   1.818  15.639
  149DOPC  C31217841   2.377   1.973  15.487
  149DOPC  H12X17842   2.334   1.896  15.419
  149DOPC  H12Y17843   2.485   1.982  15.460
  149DOPC  C31317844   2.303   2.105  15.464
  149DOPC  H13X17845   2.202   2.100  15.510
  149DOPC  H13Y17846   2.357   2.189  15.512
  149DOPC  C31417847   2.285   2.133  15.315
  149DOPC  H14X17848   2.217   2.056  15.275
  149DOPC  H14Y17849   2.238   2.233  15.300
  149DOPC  C31517850   2.418   2.129  15.239
  149DOPC  H15X17851   2.402   2.156  15.132
  149DOPC  H15Y17852   2.457   2.025  15.238
  149DOPC  C31617853   2.524   2.222  15.298
  149DOPC  H16X17854   2.550   2.192  15.401
  149DOPC  H16Y17855   2.613   2.206  15.233
  149DOPC  C31717856   2.492   2.371  15.292
  149DOPC  H17X17857   2.387   2.390  15.324
  149DOPC  H17Y17858   2.558   2.425  15.364
  149DOPC  C31817859   2.517   2.427  15.153
  149DOPC  H18X17860   2.626   2.437  15.133
  149DOPC  H18Y17861   2.476   2.360  15.075
  149DOPC  H18Z17862   2.470   2.527  15.141
  150DOPC     N17863   6.073   4.940  17.125
  150DOPC   C1217864   5.953   4.961  17.032
  150DOPC  H12A17865   5.864   4.923  17.080
  150DOPC  H12B17866   5.972   4.900  16.945
  150DOPC   C1317867   6.158   5.063  17.130
  150DOPC  H13A17868   6.254   5.044  17.176
  150DOPC  H13B17869   6.176   5.096  17.029
  150DOPC  H13C17870   6.109   5.144  17.181
  150DOPC   C1417871   6.156   4.831  17.062
  150DOPC  H14A17872   6.100   4.740  17.047
  150DOPC  H14B17873   6.190   4.862  16.964
  150DOPC  H14C17874   6.244   4.807  17.120
  150DOPC   C1517875   6.035   4.897  17.262
  150DOPC  H15A17876   5.977   4.806  17.259
  150DOPC  H15B17877   5.980   4.974  17.314
  150DOPC  H15C17878   6.123   4.874  17.319
  150DOPC   C1117879   5.921   5.102  16.973
  150DOPC  H11A17880   5.830   5.091  16.911
  150DOPC  H11B17881   5.897   5.173  17.055
  150DOPC     P17882   6.086   5.089  16.765
  150DOPC   O1317883   6.146   4.963  16.812
  150DOPC   O1417884   6.176   5.187  16.702
  150DOPC   O1217885   6.026   5.158  16.895
  150DOPC   O1117886   5.959   5.051  16.677
  150DOPC    C117887   5.951   4.918  16.618
  150DOPC    HA17888   5.871   4.861  16.671
  150DOPC    HB17889   6.044   4.858  16.628
  150DOPC    C217890   5.914   4.916  16.467
  150DOPC    HS17891   5.811   4.876  16.461
  150DOPC   O2117892   6.007   4.831  16.397
  150DOPC   C2117893   5.960   4.794  16.278
  150DOPC   O2217894   5.845   4.809  16.240
  150DOPC   C2217895   6.071   4.727  16.200
  150DOPC   H2R17896   6.111   4.644  16.262
  150DOPC   H2S17897   6.151   4.803  16.184
  150DOPC    C317898   5.909   5.057  16.402
  150DOPC    HX17899   5.825   5.107  16.454
  150DOPC    HY17900   5.879   5.051  16.295
  150DOPC   O3117901   6.026   5.139  16.422
  150DOPC   C3117902   6.116   5.141  16.326
  150DOPC   O3217903   6.121   5.066  16.230
  150DOPC   C3217904   6.207   5.261  16.352
  150DOPC   H2X17905   6.143   5.349  16.374
  150DOPC   H2Y17906   6.266   5.238  16.443
  150DOPC   C2317907   6.024   4.674  16.063
  150DOPC   H3R17908   5.937   4.605  16.074
  150DOPC   H3S17909   6.106   4.612  16.022
  150DOPC   C2417910   5.989   4.786  15.965
  150DOPC   H4R17911   6.067   4.865  15.969
  150DOPC   H4S17912   5.894   4.834  15.997
  150DOPC   C2517913   5.974   4.737  15.821
  150DOPC   H5R17914   5.866   4.722  15.798
  150DOPC   H5S17915   6.020   4.636  15.813
  150DOPC   C2617916   6.038   4.826  15.713
  150DOPC   H6R17917   6.139   4.860  15.743
  150DOPC   H6S17918   5.979   4.919  15.695
  150DOPC   C2717919   6.048   4.748  15.583
  150DOPC   H7R17920   5.952   4.694  15.568
  150DOPC   H7S17921   6.127   4.671  15.597
  150DOPC   C2817922   6.078   4.834  15.460
  150DOPC   H8R17923   6.179   4.879  15.470
  150DOPC   H8S17924   6.005   4.918  15.456
  150DOPC   C2917925   6.069   4.748  15.337
  150DOPC   H9R17926   6.163   4.700  15.306
  150DOPC  C21017927   5.958   4.720  15.269
  150DOPC  H10R17928   5.967   4.653  15.182
  150DOPC  C21117929   5.819   4.768  15.299
  150DOPC  H11R17930   5.804   4.788  15.407
  150DOPC  H11S17931   5.747   4.690  15.267
  150DOPC  C21217932   5.782   4.892  15.219
  150DOPC  H12R17933   5.800   4.872  15.111
  150DOPC  H12S17934   5.851   4.975  15.246
  150DOPC  C21317935   5.635   4.938  15.236
  150DOPC  H13R17936   5.614   4.961  15.343
  150DOPC  H13S17937   5.565   4.858  15.203
  150DOPC  C21417938   5.623   5.065  15.151
  150DOPC  H14R17939   5.674   5.043  15.054
  150DOPC  H14S17940   5.698   5.128  15.202
  150DOPC  C21517941   5.493   5.143  15.126
  150DOPC  H15R17942   5.515   5.252  15.131
  150DOPC  H15S17943   5.428   5.120  15.213
  150DOPC  C21617944   5.412   5.120  14.994
  150DOPC  H16R17945   5.307   5.126  15.030
  150DOPC  H16S17946   5.423   5.015  14.959
  150DOPC  C21717947   5.419   5.221  14.874
  150DOPC  H17R17948   5.493   5.302  14.893
  150DOPC  H17S17949   5.320   5.272  14.875
  150DOPC  C21817950   5.419   5.179  14.726
  150DOPC  H18R17951   5.349   5.243  14.668
  150DOPC  H18S17952   5.384   5.074  14.711
  150DOPC  H18T17953   5.519   5.189  14.678
  150DOPC   C3317954   6.302   5.296  16.234
  150DOPC   H3X17955   6.333   5.204  16.179
  150DOPC   H3Y17956   6.394   5.341  16.276
  150DOPC   C3417957   6.241   5.399  16.138
  150DOPC   H4X17958   6.224   5.492  16.195
  150DOPC   H4Y17959   6.141   5.364  16.104
  150DOPC   C3517960   6.330   5.430  16.016
  150DOPC   H5X17961   6.432   5.456  16.050
  150DOPC   H5Y17962   6.288   5.519  15.966
  150DOPC   C3617963   6.337   5.319  15.910
  150DOPC   H6X17964   6.387   5.362  15.820
  150DOPC   H6Y17965   6.399   5.235  15.947
  150DOPC   C3717966   6.198   5.266  15.870
  150DOPC   H7X17967   6.166   5.191  15.946
  150DOPC   H7Y17968   6.127   5.351  15.874
  150DOPC   C3817969   6.186   5.205  15.730
  150DOPC   H8X17970   6.160   5.288  15.661
  150DOPC   H8Y17971   6.100   5.136  15.730
  150DOPC   C3917972   6.310   5.134  15.683
  150DOPC   H9X17973   6.332   5.042  15.739
  150DOPC  C31017974   6.392   5.172  15.583
  150DOPC  H10X17975   6.478   5.108  15.559
  150DOPC  C31117976   6.377   5.294  15.494
  150DOPC  H11X17977   6.461   5.364  15.511
  150DOPC  H11Y17978   6.284   5.351  15.514
  150DOPC  C31217979   6.375   5.252  15.346
  150DOPC  H12X17980   6.471   5.201  15.322
  150DOPC  H12Y17981   6.369   5.343  15.282
  150DOPC  C31317982   6.258   5.158  15.310
  150DOPC  H13X17983   6.238   5.088  15.394
  150DOPC  H13Y17984   6.166   5.217  15.294
  150DOPC  C31417985   6.288   5.073  15.187
  150DOPC  H14X17986   6.392   5.033  15.194
  150DOPC  H14Y17987   6.219   4.986  15.186
  150DOPC  C31517988   6.271   5.150  15.057
  150DOPC  H15X17989   6.342   5.107  14.983
  150DOPC  H15Y17990   6.298   5.257  15.070
  150DOPC  C31617991   6.129   5.139  15.003
  150DOPC  H16X17992   6.105   5.031  14.986
  150DOPC  H16Y17993   6.056   5.177  15.077
  150DOPC  C31717994   6.110   5.214  14.871
  150DOPC  H17X17995   6.012   5.182  14.828
  150DOPC  H17Y17996   6.100   5.323  14.893
  150DOPC  C31817997   6.221   5.190  14.767
  150DOPC  H18X17998   6.193   5.235  14.670
  150DOPC  H18Y17999   6.317   5.235  14.800
  150DOPC  H18Z18000   6.236   5.081  14.752
  151DOPC     N18001   1.439   3.863  16.937
  151DOPC   C1218002   1.302   3.922  16.970
  151DOPC  H12A18003   1.248   3.943  16.878
  151DOPC  H12B18004   1.312   4.015  17.024
  151DOPC   C1318005   1.437   3.802  16.799
  151DOPC  H13A18006   1.412   3.873  16.721
  151DOPC  H13B18007   1.528   3.751  16.774
  151DOPC  H13C18008   1.359   3.727  16.794
  151DOPC   C1418009   1.469   3.753  17.034
  151DOPC  H14A18010   1.469   3.791  17.135
  151DOPC  H14B18011   1.390   3.680  17.028
  151DOPC  H14C18012   1.564   3.706  17.014
  151DOPC   C1518013   1.545   3.966  16.949
  151DOPC  H15A18014   1.548   4.004  17.050
  151DOPC  H15B18015   1.525   4.048  16.882
  151DOPC  H15C18016   1.642   3.923  16.928
  151DOPC   C1118017   1.206   3.833  17.052
  151DOPC  H11A18018   1.245   3.819  17.155
  151DOPC  H11B18019   1.109   3.885  17.064
  151DOPC     P18020   1.096   3.699  16.860
  151DOPC   O1318021   1.064   3.838  16.822
  151DOPC   O1418022   0.989   3.604  16.897
  151DOPC   O1218023   1.190   3.706  16.989
  151DOPC   O1118024   1.196   3.640  16.754
  151DOPC    C118025   1.237   3.504  16.744
  151DOPC    HA18026   1.198   3.441  16.827
  151DOPC    HB18027   1.348   3.499  16.750
  151DOPC    C218028   1.195   3.439  16.609
  151DOPC    HS18029   1.256   3.349  16.590
  151DOPC   O2118030   1.207   3.529  16.497
  151DOPC   C2118031   1.311   3.604  16.478
  151DOPC   O2218032   1.416   3.605  16.542
  151DOPC   C2218033   1.281   3.697  16.360
  151DOPC   H2R18034   1.177   3.732  16.372
  151DOPC   H2S18035   1.287   3.638  16.266
  151DOPC    C318036   1.046   3.393  16.619
  151DOPC    HX18037   0.984   3.474  16.663
  151DOPC    HY18038   1.041   3.307  16.689
  151DOPC   O3118039   0.997   3.350  16.490
  151DOPC   C3118040   0.947   3.448  16.416
  151DOPC   O3218041   0.905   3.555  16.453
  151DOPC   C3218042   0.977   3.412  16.272
  151DOPC   H2X18043   1.080   3.450  16.254
  151DOPC   H2Y18044   0.983   3.301  16.261
  151DOPC   C2318045   1.377   3.819  16.352
  151DOPC   H3R18046   1.471   3.793  16.299
  151DOPC   H3S18047   1.404   3.848  16.456
  151DOPC   C2418048   1.311   3.942  16.289
  151DOPC   H4R18049   1.343   4.030  16.348
  151DOPC   H4S18050   1.200   3.935  16.298
  151DOPC   C2518051   1.347   3.971  16.143
  151DOPC   H5R18052   1.452   4.008  16.138
  151DOPC   H5S18053   1.280   4.050  16.105
  151DOPC   C2618054   1.339   3.852  16.047
  151DOPC   H6R18055   1.242   3.799  16.058
  151DOPC   H6S18056   1.420   3.780  16.070
  151DOPC   C2718057   1.355   3.902  15.903
  151DOPC   H7R18058   1.427   3.987  15.904
  151DOPC   H7S18059   1.258   3.943  15.866
  151DOPC   C2818060   1.411   3.798  15.808
  151DOPC   H8R18061   1.502   3.751  15.851
  151DOPC   H8S18062   1.439   3.846  15.711
  151DOPC   C2918063   1.305   3.698  15.779
  151DOPC   H9R18064   1.210   3.715  15.830
  151DOPC  C21018065   1.321   3.595  15.697
  151DOPC  H10R18066   1.237   3.527  15.677
  151DOPC  C21118067   1.449   3.566  15.624
  151DOPC  H11R18068   1.494   3.477  15.672
  151DOPC  H11S18069   1.524   3.647  15.629
  151DOPC  C21218070   1.420   3.533  15.478
  151DOPC  H12R18071   1.332   3.465  15.468
  151DOPC  H12S18072   1.506   3.476  15.439
  151DOPC  C21318073   1.408   3.651  15.381
  151DOPC  H13R18074   1.366   3.605  15.288
  151DOPC  H13S18075   1.509   3.689  15.356
  151DOPC  C21418076   1.318   3.767  15.422
  151DOPC  H14R18077   1.374   3.837  15.489
  151DOPC  H14S18078   1.230   3.731  15.478
  151DOPC  C21518079   1.268   3.839  15.297
  151DOPC  H15R18080   1.220   3.763  15.233
  151DOPC  H15S18081   1.354   3.882  15.242
  151DOPC  C21618082   1.165   3.947  15.327
  151DOPC  H16R18083   1.216   4.028  15.383
  151DOPC  H16S18084   1.085   3.905  15.392
  151DOPC  C21718085   1.100   4.004  15.200
  151DOPC  H17R18086   1.181   4.042  15.134
  151DOPC  H17S18087   1.037   4.091  15.227
  151DOPC  C21818088   1.014   3.902  15.123
  151DOPC  H18R18089   0.969   3.948  15.033
  151DOPC  H18S18090   0.932   3.865  15.188
  151DOPC  H18T18091   1.074   3.815  15.090
  151DOPC   C3318092   0.879   3.467  16.168
  151DOPC   H3X18093   0.839   3.567  16.196
  151DOPC   H3Y18094   0.793   3.397  16.158
  151DOPC   C3418095   0.953   3.474  16.036
  151DOPC   H4X18096   0.884   3.466  15.949
  151DOPC   H4Y18097   1.015   3.382  16.035
  151DOPC   C3518098   1.043   3.597  16.025
  151DOPC   H5X18099   1.118   3.579  15.944
  151DOPC   H5Y18100   1.101   3.610  16.119
  151DOPC   C3618101   0.966   3.727  15.997
  151DOPC   H6X18102   0.895   3.743  16.080
  151DOPC   H6Y18103   1.036   3.813  15.996
  151DOPC   C3718104   0.887   3.726  15.865
  151DOPC   H7X18105   0.819   3.639  15.864
  151DOPC   H7Y18106   0.823   3.817  15.866
  151DOPC   C3818107   0.974   3.726  15.738
  151DOPC   H8X18108   1.040   3.637  15.745
  151DOPC   H8Y18109   1.040   3.815  15.741
  151DOPC   C3918110   0.898   3.724  15.608
  151DOPC   H9X18111   0.845   3.818  15.584
  151DOPC  C31018112   0.888   3.621  15.522
  151DOPC  H10X18113   0.829   3.633  15.430
  151DOPC  C31118114   0.951   3.485  15.538
  151DOPC  H11X18115   0.877   3.404  15.520
  151DOPC  H11Y18116   0.987   3.468  15.642
  151DOPC  C31218117   1.071   3.467  15.444
  151DOPC  H12X18118   1.136   3.391  15.492
  151DOPC  H12Y18119   1.131   3.560  15.435
  151DOPC  C31318120   1.036   3.413  15.305
  151DOPC  H13X18121   1.128   3.368  15.263
  151DOPC  H13Y18122   0.962   3.332  15.321
  151DOPC  C31418123   0.986   3.513  15.201
  151DOPC  H14X18124   0.888   3.555  15.233
  151DOPC  H14Y18125   1.058   3.596  15.191
  151DOPC  C31518126   0.968   3.445  15.063
  151DOPC  H15X18127   1.068   3.416  15.024
  151DOPC  H15Y18128   0.923   3.518  14.992
  151DOPC  C31618129   0.881   3.318  15.072
  151DOPC  H16X18130   0.933   3.247  15.140
  151DOPC  H16Y18131   0.783   3.343  15.118
  151DOPC  C31718132   0.859   3.242  14.942
  151DOPC  H17X18133   0.960   3.217  14.902
  151DOPC  H17Y18134   0.808   3.146  14.965
  151DOPC  C31818135   0.779   3.317  14.836
  151DOPC  H18X18136   0.765   3.254  14.746
  151DOPC  H18Y18137   0.679   3.345  14.875
  151DOPC  H18Z18138   0.834   3.409  14.808
  152DOPC     N18139   3.948   1.398  16.867
  152DOPC   C1218140   3.985   1.290  16.768
  152DOPC  H12A18141   4.046   1.332  16.689
  152DOPC  H12B18142   3.895   1.252  16.721
  152DOPC   C1318143   4.069   1.442  16.944
  152DOPC  H13A18144   4.149   1.473  16.879
  152DOPC  H13B18145   4.046   1.524  17.010
  152DOPC  H13C18146   4.105   1.361  17.006
  152DOPC   C1418147   3.849   1.344  16.965
  152DOPC  H14A18148   3.830   1.414  17.046
  152DOPC  H14B18149   3.755   1.319  16.918
  152DOPC  H14C18150   3.889   1.253  17.007
  152DOPC   C1518151   3.890   1.518  16.799
  152DOPC  H15A18152   3.870   1.595  16.872
  152DOPC  H15B18153   3.797   1.494  16.751
  152DOPC  H15C18154   3.958   1.559  16.726
  152DOPC   C1118155   4.061   1.167  16.823
  152DOPC  H11A18156   4.089   1.104  16.736
  152DOPC  H11B18157   4.155   1.199  16.872
  152DOPC     P18158   4.035   0.950  16.958
  152DOPC   O1318159   3.942   0.887  17.054
  152DOPC   O1418160   4.177   0.965  16.998
  152DOPC   O1218161   3.979   1.093  16.916
  152DOPC   O1118162   4.023   0.872  16.821
  152DOPC    C118163   3.899   0.878  16.749
  152DOPC    HA18164   3.881   0.981  16.712
  152DOPC    HB18165   3.814   0.847  16.812
  152DOPC    C218166   3.900   0.785  16.624
  152DOPC    HS18167   3.919   0.683  16.662
  152DOPC   O2118168   4.007   0.826  16.537
  152DOPC   C2118169   4.030   0.743  16.437
  152DOPC   O2218170   3.974   0.637  16.417
  152DOPC   C2218171   4.136   0.804  16.345
  152DOPC   H2R18172   4.227   0.739  16.355
  152DOPC   H2S18173   4.161   0.906  16.380
  152DOPC    C318174   3.761   0.783  16.550
  152DOPC    HX18175   3.679   0.780  16.626
  152DOPC    HY18176   3.753   0.687  16.495
  152DOPC   O3118177   3.746   0.891  16.455
  152DOPC   C3118178   3.694   1.003  16.500
  152DOPC   O3218179   3.646   1.021  16.611
  152DOPC   C3218180   3.713   1.112  16.394
  152DOPC   H2X18181   3.756   1.067  16.302
  152DOPC   H2Y18182   3.614   1.154  16.368
  152DOPC   C2318183   4.090   0.808  16.198
  152DOPC   H3R18184   4.084   0.703  16.160
  152DOPC   H3S18185   4.166   0.860  16.137
  152DOPC   C2418186   3.953   0.876  16.180
  152DOPC   H4R18187   3.956   0.976  16.229
  152DOPC   H4S18188   3.875   0.816  16.231
  152DOPC   C2518189   3.914   0.893  16.033
  152DOPC   H5R18190   3.921   0.794  15.983
  152DOPC   H5S18191   3.989   0.958  15.984
  152DOPC   C2618192   3.772   0.947  16.012
  152DOPC   H6R18193   3.716   0.942  16.108
  152DOPC   H6S18194   3.717   0.883  15.939
  152DOPC   C2718195   3.769   1.089  15.955
  152DOPC   H7R18196   3.806   1.087  15.851
  152DOPC   H7S18197   3.838   1.152  16.015
  152DOPC   C2818198   3.627   1.150  15.956
  152DOPC   H8R18199   3.580   1.131  16.054
  152DOPC   H8S18200   3.566   1.098  15.880
  152DOPC   C2918201   3.637   1.298  15.930
  152DOPC   H9R18202   3.685   1.355  16.011
  152DOPC  C21018203   3.595   1.364  15.821
  152DOPC  H10R18204   3.613   1.473  15.815
  152DOPC  C21118205   3.528   1.305  15.700
  152DOPC  H11R18206   3.477   1.386  15.643
  152DOPC  H11S18207   3.450   1.233  15.730
  152DOPC  C21218208   3.625   1.234  15.603
  152DOPC  H12R18209   3.565   1.194  15.518
  152DOPC  H12S18210   3.673   1.148  15.654
  152DOPC  C21318211   3.733   1.327  15.546
  152DOPC  H13R18212   3.803   1.354  15.628
  152DOPC  H13S18213   3.686   1.419  15.506
  152DOPC  C21418214   3.817   1.260  15.437
  152DOPC  H14R18215   3.752   1.195  15.374
  152DOPC  H14S18216   3.890   1.196  15.490
  152DOPC  C21518217   3.896   1.356  15.349
  152DOPC  H15R18218   3.982   1.302  15.304
  152DOPC  H15S18219   3.938   1.438  15.412
  152DOPC  C21618220   3.812   1.415  15.235
  152DOPC  H16R18221   3.719   1.459  15.277
  152DOPC  H16S18222   3.783   1.334  15.165
  152DOPC  C21718223   3.890   1.522  15.160
  152DOPC  H17R18224   3.983   1.476  15.118
  152DOPC  H17S18225   3.920   1.598  15.236
  152DOPC  C21818226   3.813   1.592  15.049
  152DOPC  H18R18227   3.783   1.519  14.971
  152DOPC  H18S18228   3.875   1.670  15.001
  152DOPC  H18T18229   3.721   1.640  15.090
  152DOPC   C3318230   3.807   1.223  16.448
  152DOPC   H3X18231   3.897   1.177  16.494
  152DOPC   H3Y18232   3.752   1.278  16.527
  152DOPC   C3418233   3.855   1.322  16.341
  152DOPC   H4X18234   3.888   1.415  16.392
  152DOPC   H4Y18235   3.772   1.349  16.272
  152DOPC   C3518236   3.974   1.270  16.259
  152DOPC   H5X18237   3.939   1.188  16.193
  152DOPC   H5Y18238   4.050   1.227  16.328
  152DOPC   C3618239   4.041   1.380  16.175
  152DOPC   H6X18240   3.969   1.418  16.099
  152DOPC   H6Y18241   4.067   1.465  16.242
  152DOPC   C3718242   4.168   1.333  16.103
  152DOPC   H7X18243   4.214   1.420  16.052
  152DOPC   H7Y18244   4.241   1.296  16.179
  152DOPC   C3818245   4.142   1.221  16.001
  152DOPC   H8X18246   4.054   1.252  15.941
  152DOPC   H8Y18247   4.111   1.129  16.056
  152DOPC   C3918248   4.261   1.190  15.915
  152DOPC   H9X18249   4.355   1.170  15.969
  152DOPC  C31018250   4.261   1.179  15.781
  152DOPC  H10X18251   4.353   1.153  15.728
  152DOPC  C31118252   4.139   1.195  15.694
  152DOPC  H11X18253   4.167   1.208  15.587
  152DOPC  H11Y18254   4.082   1.286  15.722
  152DOPC  C31218255   4.048   1.072  15.711
  152DOPC  H12X18256   3.950   1.094  15.664
  152DOPC  H12Y18257   4.026   1.059  15.819
  152DOPC  C31318258   4.106   0.940  15.659
  152DOPC  H13X18259   4.196   0.913  15.718
  152DOPC  H13Y18260   4.031   0.859  15.675
  152DOPC  C31418261   4.143   0.943  15.510
  152DOPC  H14X18262   4.221   1.020  15.494
  152DOPC  H14Y18263   4.187   0.846  15.478
  152DOPC  C31518264   4.022   0.976  15.421
  152DOPC  H15X18265   4.049   1.061  15.355
  152DOPC  H15Y18266   3.937   1.007  15.486
  152DOPC  C31618267   3.963   0.860  15.341
  152DOPC  H16X18268   4.037   0.821  15.268
  152DOPC  H16Y18269   3.942   0.778  15.413
  152DOPC  C31718270   3.830   0.896  15.272
  152DOPC  H17X18271   3.798   0.809  15.212
  152DOPC  H17Y18272   3.755   0.912  15.351
  152DOPC  C31818273   3.830   1.021  15.182
  152DOPC  H18X18274   3.727   1.061  15.171
  152DOPC  H18Y18275   3.894   1.102  15.223
  152DOPC  H18Z18276   3.868   0.998  15.080
  153DOPC     N18277   5.314   6.390  17.063
  153DOPC   C1218278   5.447   6.437  17.001
  153DOPC  H12A18279   5.515   6.467  17.079
  153DOPC  H12B18280   5.428   6.524  16.940
  153DOPC   C1318281   5.330   6.246  17.104
  153DOPC  H13A18282   5.237   6.199  17.133
  153DOPC  H13B18283   5.366   6.190  17.019
  153DOPC  H13C18284   5.404   6.234  17.181
  153DOPC   C1418285   5.211   6.395  16.954
  153DOPC  H14A18286   5.195   6.496  16.920
  153DOPC  H14B18287   5.250   6.339  16.870
  153DOPC  H14C18288   5.117   6.350  16.984
  153DOPC   C1518289   5.277   6.478  17.178
  153DOPC  H15A18290   5.345   6.467  17.260
  153DOPC  H15B18291   5.176   6.462  17.213
  153DOPC  H15C18292   5.282   6.583  17.150
  153DOPC   C1118293   5.523   6.337  16.910
  153DOPC  H11A18294   5.598   6.393  16.851
  153DOPC  H11B18295   5.579   6.266  16.975
  153DOPC     P18296   5.459   6.121  16.781
  153DOPC   O1318297   5.436   6.040  16.904
  153DOPC   O1418298   5.590   6.109  16.717
  153DOPC   O1218299   5.433   6.271  16.821
  153DOPC   O1118300   5.341   6.099  16.679
  153DOPC    C118301   5.353   6.005  16.572
  153DOPC    HA18302   5.251   5.989  16.529
  153DOPC    HB18303   5.389   5.907  16.608
  153DOPC    C218304   5.443   6.052  16.453
  153DOPC    HS18305   5.547   6.060  16.491
  153DOPC   O2118306   5.399   6.179  16.401
  153DOPC   C2118307   5.483   6.237  16.317
  153DOPC   O2218308   5.598   6.204  16.296
  153DOPC   C2218309   5.408   6.352  16.248
  153DOPC   H2R18310   5.397   6.432  16.324
  153DOPC   H2S18311   5.307   6.315  16.221
  153DOPC    C318312   5.442   5.942  16.343
  153DOPC    HX18313   5.472   5.847  16.391
  153DOPC    HY18314   5.521   5.966  16.269
  153DOPC   O3118315   5.311   5.924  16.284
  153DOPC   C3118316   5.293   5.994  16.174
  153DOPC   O3218317   5.374   6.067  16.120
  153DOPC   C3218318   5.156   5.967  16.116
  153DOPC   H2X18319   5.144   5.857  16.107
  153DOPC   H2Y18320   5.078   6.010  16.182
  153DOPC   C2318321   5.475   6.409  16.120
  153DOPC   H3R18322   5.461   6.336  16.037
  153DOPC   H3S18323   5.584   6.421  16.134
  153DOPC   C2418324   5.412   6.545  16.083
  153DOPC   H4R18325   5.433   6.617  16.165
  153DOPC   H4S18326   5.302   6.534  16.081
  153DOPC   C2518327   5.461   6.606  15.951
  153DOPC   H5R18328   5.570   6.625  15.956
  153DOPC   H5S18329   5.410   6.703  15.936
  153DOPC   C2618330   5.431   6.517  15.829
  153DOPC   H6R18331   5.501   6.431  15.833
  153DOPC   H6S18332   5.454   6.573  15.735
  153DOPC   C2718333   5.286   6.468  15.824
  153DOPC   H7R18334   5.218   6.555  15.810
  153DOPC   H7S18335   5.257   6.418  15.919
  153DOPC   C2818336   5.261   6.366  15.712
  153DOPC   H8R18337   5.283   6.417  15.616
  153DOPC   H8S18338   5.153   6.340  15.710
  153DOPC   C2918339   5.346   6.243  15.737
  153DOPC   H9R18340   5.328   6.189  15.831
  153DOPC  C21018341   5.443   6.201  15.655
  153DOPC  H10R18342   5.500   6.110  15.679
  153DOPC  C21118343   5.478   6.271  15.527
  153DOPC  H11R18344   5.580   6.241  15.493
  153DOPC  H11S18345   5.483   6.381  15.543
  153DOPC  C21218346   5.373   6.244  15.418
  153DOPC  H12R18347   5.404   6.296  15.325
  153DOPC  H12S18348   5.274   6.285  15.447
  153DOPC  C21318349   5.357   6.096  15.388
  153DOPC  H13R18350   5.287   6.083  15.302
  153DOPC  H13S18351   5.313   6.042  15.475
  153DOPC  C21418352   5.491   6.035  15.351
  153DOPC  H14R18353   5.561   6.033  15.437
  153DOPC  H14S18354   5.536   6.096  15.271
  153DOPC  C21518355   5.473   5.893  15.302
  153DOPC  H15R18356   5.381   5.892  15.239
  153DOPC  H15S18357   5.459   5.826  15.389
  153DOPC  C21618358   5.595   5.856  15.219
  153DOPC  H16R18359   5.678   5.881  15.288
  153DOPC  H16S18360   5.599   5.923  15.130
  153DOPC  C21718361   5.610   5.711  15.171
  153DOPC  H17R18362   5.712   5.696  15.128
  153DOPC  H17S18363   5.542   5.691  15.086
  153DOPC  C21818364   5.590   5.609  15.281
  153DOPC  H18R18365   5.581   5.507  15.237
  153DOPC  H18S18366   5.499   5.627  15.342
  153DOPC  H18T18367   5.680   5.612  15.345
  153DOPC   C3318368   5.155   6.031  15.977
  153DOPC   H3X18369   5.238   5.987  15.918
  153DOPC   H3Y18370   5.173   6.140  15.983
  153DOPC   C3418371   5.028   6.008  15.897
  153DOPC   H4X18372   4.943   6.065  15.940
  153DOPC   H4Y18373   5.001   5.900  15.898
  153DOPC   C3518374   5.055   6.055  15.755
  153DOPC   H5X18375   5.155   6.018  15.723
  153DOPC   H5Y18376   5.060   6.166  15.756
  153DOPC   C3618377   4.955   6.011  15.650
  153DOPC   H6X18378   4.959   5.900  15.638
  153DOPC   H6Y18379   4.851   6.035  15.680
  153DOPC   C3718380   4.990   6.080  15.518
  153DOPC   H7X18381   4.923   6.167  15.501
  153DOPC   H7Y18382   5.094   6.120  15.525
  153DOPC   C3818383   4.987   5.986  15.399
  153DOPC   H8X18384   5.048   5.896  15.425
  153DOPC   H8Y18385   5.038   6.031  15.311
  153DOPC   C3918386   4.847   5.945  15.368
  153DOPC   H9X18387   4.783   5.924  15.456
  153DOPC  C31018388   4.797   5.926  15.246
  153DOPC  H10X18389   4.695   5.887  15.237
  153DOPC  C31118390   4.873   5.940  15.117
  153DOPC  H11X18391   4.839   5.858  15.050
  153DOPC  H11Y18392   4.979   5.919  15.141
  153DOPC  C31218393   4.878   6.064  15.024
  153DOPC  H12X18394   4.862   6.158  15.081
  153DOPC  H12Y18395   4.797   6.056  14.948
  153DOPC  C31318396   5.016   6.058  14.958
  153DOPC  H13X18397   5.094   6.061  15.037
  153DOPC  H13Y18398   5.025   5.956  14.916
  153DOPC  C31418399   5.048   6.151  14.840
  153DOPC  H14X18400   5.113   6.095  14.770
  153DOPC  H14Y18401   4.955   6.177  14.786
  153DOPC  C31518402   5.125   6.278  14.879
  153DOPC  H15X18403   5.051   6.346  14.926
  153DOPC  H15Y18404   5.163   6.327  14.787
  153DOPC  C31618405   5.246   6.256  14.973
  153DOPC  H16X18406   5.216   6.208  15.069
  153DOPC  H16Y18407   5.318   6.184  14.929
  153DOPC  C31718408   5.317   6.385  15.012
  153DOPC  H17X18409   5.350   6.376  15.118
  153DOPC  H17Y18410   5.410   6.397  14.952
  153DOPC  C31818411   5.235   6.512  14.998
  153DOPC  H18X18412   5.139   6.507  15.054
  153DOPC  H18Y18413   5.297   6.594  15.039
  153DOPC  H18Z18414   5.212   6.534  14.891
  154DOPC     N18415   6.920   3.775  17.049
  154DOPC   C1218416   6.855   3.892  16.975
  154DOPC  H12A18417   6.932   3.964  16.950
  154DOPC  H12B18418   6.786   3.939  17.043
  154DOPC   C1318419   6.978   3.825  17.177
  154DOPC  H13A18420   7.012   3.743  17.238
  154DOPC  H13B18421   7.058   3.896  17.160
  154DOPC  H13C18422   6.901   3.875  17.235
  154DOPC   C1418423   7.027   3.710  16.964
  154DOPC  H14A18424   7.111   3.776  16.945
  154DOPC  H14B18425   7.067   3.621  17.010
  154DOPC  H14C18426   6.989   3.681  16.868
  154DOPC   C1518427   6.817   3.671  17.081
  154DOPC  H15A18428   6.736   3.713  17.140
  154DOPC  H15B18429   6.859   3.586  17.132
  154DOPC  H15C18430   6.770   3.639  16.989
  154DOPC   C1118431   6.771   3.860  16.850
  154DOPC  H11A18432   6.750   3.954  16.795
  154DOPC  H11B18433   6.828   3.792  16.783
  154DOPC     P18434   6.545   3.745  16.791
  154DOPC   O1318435   6.493   3.857  16.710
  154DOPC   O1418436   6.449   3.666  16.872
  154DOPC   O1218437   6.650   3.802  16.894
  154DOPC   O1118438   6.636   3.650  16.702
  154DOPC    C118439   6.704   3.538  16.760
  154DOPC    HA18440   6.640   3.487  16.836
  154DOPC    HB18441   6.796   3.569  16.814
  154DOPC    C218442   6.736   3.430  16.654
  154DOPC    HS18443   6.779   3.342  16.708
  154DOPC   O2118444   6.828   3.469  16.551
  154DOPC   C2118445   6.900   3.578  16.559
  154DOPC   O2218446   6.954   3.624  16.657
  154DOPC   C2218447   6.901   3.642  16.420
  154DOPC   H2R18448   6.956   3.738  16.427
  154DOPC   H2S18449   6.795   3.664  16.394
  154DOPC    C318450   6.604   3.390  16.582
  154DOPC    HX18451   6.520   3.410  16.651
  154DOPC    HY18452   6.607   3.280  16.564
  154DOPC   O3118453   6.584   3.466  16.460
  154DOPC   C3118454   6.520   3.405  16.363
  154DOPC   O3218455   6.480   3.290  16.365
  154DOPC   C3218456   6.498   3.505  16.249
  154DOPC   H2X18457   6.481   3.604  16.296
  154DOPC   H2Y18458   6.591   3.510  16.188
  154DOPC   C2318459   6.962   3.550  16.312
  154DOPC   H3R18460   6.898   3.460  16.298
  154DOPC   H3S18461   7.063   3.515  16.345
  154DOPC   C2418462   6.979   3.621  16.177
  154DOPC   H4R18463   7.018   3.548  16.103
  154DOPC   H4S18464   7.053   3.704  16.188
  154DOPC   C2518465   6.851   3.680  16.118
  154DOPC   H5R18466   6.807   3.757  16.185
  154DOPC   H5S18467   6.777   3.598  16.106
  154DOPC   C2618468   6.880   3.742  15.981
  154DOPC   H6R18469   6.950   3.676  15.925
  154DOPC   H6S18470   6.930   3.841  15.994
  154DOPC   C2718471   6.753   3.758  15.898
  154DOPC   H7R18472   6.684   3.825  15.953
  154DOPC   H7S18473   6.702   3.659  15.890
  154DOPC   C2818474   6.780   3.815  15.758
  154DOPC   H8R18475   6.837   3.910  15.769
  154DOPC   H8S18476   6.682   3.843  15.714
  154DOPC   C2918477   6.849   3.722  15.662
  154DOPC   H9R18478   6.956   3.738  15.646
  154DOPC  C21018479   6.784   3.624  15.598
  154DOPC  H10R18480   6.837   3.562  15.524
  154DOPC  C21118481   6.637   3.595  15.615
  154DOPC  H11R18482   6.577   3.687  15.596
  154DOPC  H11S18483   6.614   3.563  15.719
  154DOPC  C21218484   6.586   3.484  15.521
  154DOPC  H12R18485   6.615   3.510  15.416
  154DOPC  H12S18486   6.475   3.480  15.526
  154DOPC  C21318487   6.642   3.346  15.557
  154DOPC  H13R18488   6.615   3.322  15.663
  154DOPC  H13S18489   6.753   3.351  15.552
  154DOPC  C21418490   6.598   3.230  15.466
  154DOPC  H14R18491   6.491   3.205  15.486
  154DOPC  H14S18492   6.658   3.142  15.494
  154DOPC  C21518493   6.615   3.257  15.316
  154DOPC  H15R18494   6.640   3.161  15.266
  154DOPC  H15S18495   6.701   3.326  15.299
  154DOPC  C21618496   6.488   3.312  15.251
  154DOPC  H16R18497   6.464   3.412  15.293
  154DOPC  H16S18498   6.404   3.244  15.276
  154DOPC  C21718499   6.497   3.324  15.099
  154DOPC  H17R18500   6.519   3.223  15.058
  154DOPC  H17S18501   6.582   3.390  15.072
  154DOPC  C21818502   6.368   3.378  15.037
  154DOPC  H18R18503   6.283   3.311  15.062
  154DOPC  H18S18504   6.377   3.384  14.927
  154DOPC  H18T18505   6.345   3.479  15.076
  154DOPC   C3318506   6.377   3.467  16.161
  154DOPC   H3X18507   6.307   3.406  16.221
  154DOPC   H3Y18508   6.408   3.404  16.075
  154DOPC   C3418509   6.296   3.589  16.116
  154DOPC   H4X18510   6.301   3.670  16.192
  154DOPC   H4Y18511   6.189   3.560  16.110
  154DOPC   C3518512   6.333   3.644  15.977
  154DOPC   H5X18513   6.351   3.560  15.907
  154DOPC   H5Y18514   6.426   3.704  15.985
  154DOPC   C3618515   6.217   3.729  15.925
  154DOPC   H6X18516   6.126   3.667  15.914
  154DOPC   H6Y18517   6.195   3.806  16.002
  154DOPC   C3718518   6.245   3.798  15.792
  154DOPC   H7X18519   6.351   3.832  15.792
  154DOPC   H7Y18520   6.236   3.725  15.709
  154DOPC   C3818521   6.151   3.918  15.768
  154DOPC   H8X18522   6.133   3.967  15.866
  154DOPC   H8Y18523   6.052   3.879  15.735
  154DOPC   C3918524   6.204   4.021  15.673
  154DOPC   H9X18525   6.251   4.109  15.720
  154DOPC  C31018526   6.207   4.016  15.539
  154DOPC  H10X18527   6.252   4.100  15.484
  154DOPC  C31118528   6.158   3.902  15.454
  154DOPC  H11X18529   6.112   3.941  15.361
  154DOPC  H11Y18530   6.080   3.844  15.507
  154DOPC  C31218531   6.273   3.808  15.419
  154DOPC  H12X18532   6.233   3.727  15.355
  154DOPC  H12Y18533   6.313   3.760  15.511
  154DOPC  C31318534   6.391   3.872  15.345
  154DOPC  H13X18535   6.353   3.927  15.256
  154DOPC  H13Y18536   6.444   3.943  15.411
  154DOPC  C31418537   6.486   3.762  15.300
  154DOPC  H14X18538   6.534   3.717  15.389
  154DOPC  H14Y18539   6.425   3.683  15.251
  154DOPC  C31518540   6.596   3.803  15.202
  154DOPC  H15X18541   6.679   3.853  15.257
  154DOPC  H15Y18542   6.556   3.874  15.127
  154DOPC  C31618543   6.647   3.677  15.130
  154DOPC  H16X18544   6.614   3.587  15.186
  154DOPC  H16Y18545   6.596   3.671  15.031
  154DOPC  C31718546   6.798   3.667  15.114
  154DOPC  H17X18547   6.839   3.764  15.079
  154DOPC  H17Y18548   6.841   3.647  15.215
  154DOPC  C31818549   6.838   3.555  15.017
  154DOPC  H18X18550   6.807   3.581  14.913
  154DOPC  H18Y18551   6.948   3.540  15.015
  154DOPC  H18Z18552   6.790   3.459  15.045
  155DOPC     N18553   1.834   1.757  16.803
  155DOPC   C1218554   1.940   1.708  16.902
  155DOPC  H12A18555   1.998   1.791  16.938
  155DOPC  H12B18556   2.008   1.641  16.851
  155DOPC   C1318557   1.724   1.826  16.878
  155DOPC  H13A18558   1.679   1.758  16.949
  155DOPC  H13B18559   1.763   1.909  16.936
  155DOPC  H13C18560   1.648   1.864  16.811
  155DOPC   C1418561   1.782   1.637  16.730
  155DOPC  H14A18562   1.746   1.566  16.803
  155DOPC  H14B18563   1.702   1.662  16.661
  155DOPC  H14C18564   1.861   1.586  16.677
  155DOPC   C1518565   1.891   1.855  16.705
  155DOPC  H15A18566   1.971   1.809  16.648
  155DOPC  H15B18567   1.931   1.941  16.757
  155DOPC  H15C18568   1.816   1.889  16.637
  155DOPC   C1118569   1.888   1.630  17.026
  155DOPC  H11A18570   1.975   1.613  17.092
  155DOPC  H11B18571   1.818   1.694  17.085
  155DOPC     P18572   1.912   1.378  16.972
  155DOPC   O1318573   1.828   1.271  16.914
  155DOPC   O1418574   1.979   1.352  17.101
  155DOPC   O1218575   1.821   1.508  16.990
  155DOPC   O1118576   2.018   1.430  16.865
  155DOPC    C118577   2.066   1.342  16.762
  155DOPC    HA18578   1.986   1.321  16.688
  155DOPC    HB18579   2.101   1.245  16.804
  155DOPC    C218580   2.186   1.406  16.686
  155DOPC    HS18581   2.264   1.426  16.762
  155DOPC   O2118582   2.141   1.529  16.627
  155DOPC   C2118583   2.237   1.612  16.592
  155DOPC   O2218584   2.357   1.595  16.606
  155DOPC   C2218585   2.174   1.746  16.553
  155DOPC   H2R18586   2.182   1.811  16.643
  155DOPC   H2S18587   2.067   1.729  16.529
  155DOPC    C318588   2.248   1.308  16.581
  155DOPC    HX18589   2.278   1.216  16.637
  155DOPC    HY18590   2.343   1.350  16.541
  155DOPC   O3118591   2.154   1.268  16.479
  155DOPC   C3118592   2.165   1.336  16.365
  155DOPC   O3218593   2.242   1.428  16.343
  155DOPC   C3218594   2.065   1.281  16.263
  155DOPC   H2X18595   2.113   1.292  16.163
  155DOPC   H2Y18596   2.046   1.174  16.282
  155DOPC   C2318597   2.240   1.817  16.433
  155DOPC   H3R18598   2.347   1.787  16.423
  155DOPC   H3S18599   2.238   1.927  16.447
  155DOPC   C2418600   2.165   1.785  16.304
  155DOPC   H4R18601   2.059   1.818  16.312
  155DOPC   H4S18602   2.167   1.675  16.289
  155DOPC   C2518603   2.227   1.850  16.181
  155DOPC   H5R18604   2.328   1.803  16.171
  155DOPC   H5S18605   2.239   1.959  16.198
  155DOPC   C2618606   2.152   1.826  16.049
  155DOPC   H6R18607   2.175   1.910  15.981
  155DOPC   H6S18608   2.042   1.824  16.067
  155DOPC   C2718609   2.198   1.696  15.980
  155DOPC   H7R18610   2.192   1.613  16.053
  155DOPC   H7S18611   2.306   1.709  15.955
  155DOPC   C2818612   2.122   1.654  15.853
  155DOPC   H8R18613   2.019   1.622  15.881
  155DOPC   H8S18614   2.172   1.563  15.812
  155DOPC   C2918615   2.104   1.759  15.747
  155DOPC   H9R18616   2.098   1.862  15.785
  155DOPC  C21018617   2.093   1.738  15.615
  155DOPC  H10R18618   2.081   1.825  15.549
  155DOPC  C21118619   2.094   1.606  15.544
  155DOPC  H11R18620   1.999   1.597  15.487
  155DOPC  H11S18621   2.097   1.520  15.615
  155DOPC  C21218622   2.209   1.588  15.444
  155DOPC  H12R18623   2.216   1.481  15.417
  155DOPC  H12S18624   2.304   1.616  15.495
  155DOPC  C21318625   2.193   1.670  15.315
  155DOPC  H13R18626   2.289   1.671  15.259
  155DOPC  H13S18627   2.173   1.775  15.345
  155DOPC  C21418628   2.080   1.624  15.221
  155DOPC  H14R18629   2.042   1.715  15.170
  155DOPC  H14S18630   1.995   1.582  15.279
  155DOPC  C21518631   2.121   1.526  15.110
  155DOPC  H15R18632   2.208   1.570  15.056
  155DOPC  H15S18633   2.037   1.521  15.037
  155DOPC  C21618634   2.151   1.383  15.158
  155DOPC  H16R18635   2.094   1.366  15.251
  155DOPC  H16S18636   2.258   1.369  15.185
  155DOPC  C21718637   2.119   1.270  15.059
  155DOPC  H17R18638   2.012   1.275  15.031
  155DOPC  H17S18639   2.136   1.174  15.113
  155DOPC  C21818640   2.200   1.265  14.930
  155DOPC  H18R18641   2.180   1.354  14.867
  155DOPC  H18S18642   2.169   1.174  14.875
  155DOPC  H18T18643   2.309   1.255  14.951
  155DOPC   C3318644   1.933   1.362  16.265
  155DOPC   H3X18645   1.872   1.333  16.354
  155DOPC   H3Y18646   1.875   1.336  16.174
  155DOPC   C3418647   1.959   1.512  16.268
  155DOPC   H4X18648   2.043   1.533  16.198
  155DOPC   H4Y18649   1.992   1.543  16.369
  155DOPC   C3518650   1.842   1.600  16.224
  155DOPC   H5X18651   1.872   1.705  16.245
  155DOPC   H5Y18652   1.750   1.578  16.281
  155DOPC   C3618653   1.817   1.590  16.073
  155DOPC   H6X18654   1.913   1.561  16.024
  155DOPC   H6Y18655   1.745   1.508  16.051
  155DOPC   C3718656   1.765   1.723  16.019
  155DOPC   H7X18657   1.666   1.731  16.069
  155DOPC   H7Y18658   1.828   1.807  16.055
  155DOPC   C3818659   1.744   1.741  15.868
  155DOPC   H8X18660   1.842   1.733  15.817
  155DOPC   H8Y18661   1.707   1.843  15.848
  155DOPC   C3918662   1.644   1.642  15.816
  155DOPC   H9X18663   1.539   1.660  15.843
  155DOPC  C31018664   1.674   1.534  15.743
  155DOPC  H10X18665   1.591   1.465  15.722
  155DOPC  C31118666   1.811   1.490  15.700
  155DOPC  H11X18667   1.861   1.435  15.783
  155DOPC  H11Y18668   1.874   1.579  15.678
  155DOPC  C31218669   1.811   1.401  15.575
  155DOPC  H12X18670   1.867   1.452  15.494
  155DOPC  H12Y18671   1.710   1.387  15.533
  155DOPC  C31318672   1.875   1.263  15.600
  155DOPC  H13X18673   1.985   1.274  15.610
  155DOPC  H13Y18674   1.837   1.220  15.695
  155DOPC  C31418675   1.842   1.169  15.485
  155DOPC  H14X18676   1.865   1.064  15.513
  155DOPC  H14Y18677   1.733   1.174  15.463
  155DOPC  C31518678   1.921   1.207  15.360
  155DOPC  H15X18679   2.025   1.169  15.372
  155DOPC  H15Y18680   1.927   1.317  15.350
  155DOPC  C31618681   1.859   1.149  15.234
  155DOPC  H16X18682   1.938   1.129  15.158
  155DOPC  H16Y18683   1.821   1.049  15.263
  155DOPC  C31718684   1.749   1.235  15.167
  155DOPC  H17X18685   1.728   1.189  15.068
  155DOPC  H17Y18686   1.656   1.226  15.228
  155DOPC  C31818687   1.772   1.384  15.142
  155DOPC  H18X18688   1.682   1.428  15.094
  155DOPC  H18Y18689   1.790   1.438  15.238
  155DOPC  H18Z18690   1.858   1.402  15.074
  156DOPC     N18691   6.103   5.647  16.969
  156DOPC   C1218692   6.210   5.722  16.890
  156DOPC  H12A18693   6.181   5.723  16.786
  156DOPC  H12B18694   6.303   5.669  16.896
  156DOPC   C1318695   6.113   5.499  16.944
  156DOPC  H13A18696   6.037   5.444  16.998
  156DOPC  H13B18697   6.100   5.475  16.840
  156DOPC  H13C18698   6.210   5.460  16.974
  156DOPC   C1418699   5.968   5.695  16.925
  156DOPC  H14A18700   5.967   5.803  16.927
  156DOPC  H14B18701   5.947   5.664  16.824
  156DOPC  H14C18702   5.889   5.657  16.988
  156DOPC   C1518703   6.120   5.679  17.115
  156DOPC  H15A18704   6.042   5.637  17.175
  156DOPC  H15B18705   6.118   5.786  17.126
  156DOPC  H15C18706   6.216   5.645  17.151
  156DOPC   C1118707   6.237   5.869  16.931
  156DOPC  H11A18708   6.290   5.872  17.029
  156DOPC  H11B18709   6.306   5.914  16.857
  156DOPC     P18710   6.082   6.065  16.854
  156DOPC   O1318711   6.172   6.173  16.900
  156DOPC   O1418712   5.937   6.088  16.867
  156DOPC   O1218713   6.115   5.941  16.945
  156DOPC   O1118714   6.122   6.011  16.710
  156DOPC    C118715   6.027   5.947  16.623
  156DOPC    HA18716   5.982   6.021  16.554
  156DOPC    HB18717   5.944   5.901  16.681
  156DOPC    C218718   6.091   5.833  16.538
  156DOPC    HS18719   6.171   5.787  16.600
  156DOPC   O2118720   6.148   5.886  16.416
  156DOPC   C2118721   6.225   5.799  16.351
  156DOPC   O2218722   6.257   5.689  16.393
  156DOPC   C2218723   6.286   5.864  16.227
  156DOPC   H2R18724   6.395   5.850  16.242
  156DOPC   H2S18725   6.262   5.972  16.222
  156DOPC    C318726   5.986   5.723  16.506
  156DOPC    HX18727   5.952   5.681  16.603
  156DOPC    HY18728   6.034   5.638  16.453
  156DOPC   O3118729   5.871   5.776  16.437
  156DOPC   C3118730   5.874   5.763  16.304
  156DOPC   O3218731   5.959   5.703  16.241
  156DOPC   C3218732   5.751   5.831  16.243
  156DOPC   H2X18733   5.675   5.834  16.324
  156DOPC   H2Y18734   5.781   5.935  16.217
  156DOPC   C2318735   6.262   5.792  16.093
  156DOPC   H3R18736   6.258   5.682  16.110
  156DOPC   H3S18737   6.350   5.810  16.028
  156DOPC   C2418738   6.138   5.839  16.018
  156DOPC   H4R18739   6.157   5.938  15.971
  156DOPC   H4S18740   6.054   5.852  16.089
  156DOPC   C2518741   6.100   5.735  15.913
  156DOPC   H5R18742   6.001   5.760  15.869
  156DOPC   H5S18743   6.090   5.635  15.960
  156DOPC   C2618744   6.204   5.730  15.801
  156DOPC   H6R18745   6.306   5.708  15.839
  156DOPC   H6S18746   6.207   5.832  15.756
  156DOPC   C2718747   6.169   5.625  15.696
  156DOPC   H7R18748   6.058   5.626  15.684
  156DOPC   H7S18749   6.196   5.524  15.734
  156DOPC   C2818750   6.235   5.648  15.559
  156DOPC   H8R18751   6.202   5.568  15.490
  156DOPC   H8S18752   6.345   5.637  15.570
  156DOPC   C2918753   6.200   5.784  15.505
  156DOPC   H9R18754   6.277   5.861  15.517
  156DOPC  C21018755   6.084   5.818  15.447
  156DOPC  H10R18756   6.068   5.921  15.412
  156DOPC  C21118757   5.966   5.728  15.424
  156DOPC  H11R18758   5.873   5.788  15.415
  156DOPC  H11S18759   5.949   5.665  15.514
  156DOPC  C21218760   5.982   5.634  15.303
  156DOPC  H12R18761   5.890   5.572  15.309
  156DOPC  H12S18762   6.067   5.565  15.317
  156DOPC  C21318763   5.988   5.695  15.162
  156DOPC  H13R18764   5.932   5.628  15.092
  156DOPC  H13S18765   6.093   5.698  15.128
  156DOPC  C21418766   5.935   5.838  15.150
  156DOPC  H14R18767   6.010   5.907  15.193
  156DOPC  H14S18768   5.847   5.845  15.218
  156DOPC  C21518769   5.889   5.882  15.011
  156DOPC  H15R18770   5.815   5.809  14.974
  156DOPC  H15S18771   5.975   5.881  14.939
  156DOPC  C21618772   5.825   6.022  15.015
  156DOPC  H16R18773   5.902   6.101  15.008
  156DOPC  H16S18774   5.777   6.034  15.114
  156DOPC  C21718775   5.717   6.043  14.908
  156DOPC  H17R18776   5.638   6.109  14.949
  156DOPC  H17S18777   5.668   5.946  14.884
  156DOPC  C21818778   5.771   6.105  14.780
  156DOPC  H18R18779   5.847   6.038  14.735
  156DOPC  H18S18780   5.816   6.204  14.800
  156DOPC  H18T18781   5.690   6.117  14.705
  156DOPC   C3318782   5.692   5.757  16.120
  156DOPC   H3X18783   5.630   5.673  16.157
  156DOPC   H3Y18784   5.774   5.716  16.057
  156DOPC   C3418785   5.597   5.836  16.029
  156DOPC   H4X18786   5.502   5.856  16.084
  156DOPC   H4Y18787   5.571   5.770  15.944
  156DOPC   C3518788   5.652   5.966  15.971
  156DOPC   H5X18789   5.676   6.037  16.052
  156DOPC   H5Y18790   5.572   6.013  15.909
  156DOPC   C3618791   5.775   5.941  15.884
  156DOPC   H6X18792   5.855   5.897  15.947
  156DOPC   H6Y18793   5.750   5.867  15.804
  156DOPC   C3718794   5.829   6.069  15.820
  156DOPC   H7X18795   5.751   6.114  15.755
  156DOPC   H7Y18796   5.852   6.140  15.902
  156DOPC   C3818797   5.955   6.041  15.736
  156DOPC   H8X18798   5.927   5.977  15.650
  156DOPC   H8Y18799   6.026   5.980  15.797
  156DOPC   C3918800   6.022   6.170  15.696
  156DOPC   H9X18801   6.086   6.215  15.773
  156DOPC  C31018802   6.009   6.232  15.578
  156DOPC  H10X18803   6.062   6.327  15.561
  156DOPC  C31118804   5.924   6.185  15.462
  156DOPC  H11X18805   5.825   6.235  15.466
  156DOPC  H11Y18806   5.904   6.076  15.468
  156DOPC  C31218807   5.990   6.214  15.325
  156DOPC  H12X18808   5.982   6.321  15.299
  156DOPC  H12Y18809   5.930   6.158  15.250
  156DOPC  C31318810   6.138   6.172  15.317
  156DOPC  H13X18811   6.203   6.258  15.341
  156DOPC  H13Y18812   6.157   6.095  15.394
  156DOPC  C31418813   6.177   6.113  15.181
  156DOPC  H14X18814   6.085   6.077  15.129
  156DOPC  H14Y18815   6.217   6.192  15.114
  156DOPC  C31518816   6.276   5.997  15.191
  156DOPC  H15X18817   6.246   5.930  15.275
  156DOPC  H15Y18818   6.378   6.035  15.214
  156DOPC  C31618819   6.278   5.911  15.064
  156DOPC  H16X18820   6.175   5.877  15.041
  156DOPC  H16Y18821   6.310   5.976  14.980
  156DOPC  C31718822   6.371   5.788  15.069
  156DOPC  H17X18823   6.352   5.736  14.973
  156DOPC  H17Y18824   6.476   5.824  15.070
  156DOPC  C31818825   6.354   5.682  15.178
  156DOPC  H18X18826   6.332   5.727  15.277
  156DOPC  H18Y18827   6.272   5.611  15.152
  156DOPC  H18Z18828   6.447   5.621  15.187
  157DOPC     N18829   6.006   1.797  16.927
  157DOPC   C1218830   6.072   1.720  16.814
  157DOPC  H12A18831   6.156   1.776  16.776
  157DOPC  H12B18832   6.001   1.711  16.733
  157DOPC   C1318833   6.081   1.774  17.054
  157DOPC  H13A18834   6.184   1.806  17.045
  157DOPC  H13B18835   6.034   1.827  17.135
  157DOPC  H13C18836   6.078   1.668  17.075
  157DOPC   C1418837   5.866   1.745  16.949
  157DOPC  H14A18838   5.870   1.637  16.960
  157DOPC  H14B18839   5.821   1.786  17.038
  157DOPC  H14C18840   5.800   1.766  16.865
  157DOPC   C1518841   5.999   1.944  16.899
  157DOPC  H15A18842   5.937   1.965  16.813
  157DOPC  H15B18843   6.097   1.985  16.881
  157DOPC  H15C18844   5.956   1.996  16.983
  157DOPC   C1118845   6.121   1.575  16.844
  157DOPC  H11A18846   6.151   1.531  16.746
  157DOPC  H11B18847   6.211   1.578  16.908
  157DOPC     P18848   6.026   1.338  16.900
  157DOPC   O1318849   5.917   1.283  16.983
  157DOPC   O1418850   6.163   1.296  16.935
  157DOPC   O1218851   6.019   1.497  16.907
  157DOPC   O1118852   6.000   1.311  16.746
  157DOPC    C118853   5.891   1.380  16.682
  157DOPC    HA18854   5.914   1.489  16.674
  157DOPC    HB18855   5.797   1.368  16.740
  157DOPC    C218856   5.862   1.330  16.537
  157DOPC    HS18857   5.856   1.219  16.541
  157DOPC   O2118858   5.970   1.369  16.450
  157DOPC   C2118859   5.959   1.331  16.323
  157DOPC   O2218860   5.872   1.261  16.275
  157DOPC   C2218861   6.076   1.391  16.246
  157DOPC   H2R18862   6.167   1.340  16.284
  157DOPC   H2S18863   6.083   1.499  16.270
  157DOPC    C318864   5.725   1.386  16.487
  157DOPC    HX18865   5.649   1.372  16.566
  157DOPC    HY18866   5.690   1.325  16.401
  157DOPC   O3118867   5.736   1.524  16.443
  157DOPC   C3118868   5.719   1.616  16.536
  157DOPC   O3218869   5.676   1.599  16.648
  157DOPC   C3218870   5.768   1.750  16.482
  157DOPC   H2X18871   5.793   1.742  16.374
  157DOPC   H2Y18872   5.684   1.822  16.494
  157DOPC   C2318873   6.066   1.371  16.093
  157DOPC   H3R18874   6.050   1.265  16.065
  157DOPC   H3S18875   6.163   1.403  16.049
  157DOPC   C2418876   5.960   1.461  16.028
  157DOPC   H4R18877   5.947   1.552  16.090
  157DOPC   H4S18878   5.863   1.407  16.025
  157DOPC   C2518879   6.002   1.506  15.887
  157DOPC   H5R18880   5.993   1.421  15.816
  157DOPC   H5S18881   6.109   1.537  15.889
  157DOPC   C2618882   5.920   1.626  15.841
  157DOPC   H6R18883   5.961   1.665  15.745
  157DOPC   H6S18884   5.931   1.707  15.916
  157DOPC   C2718885   5.772   1.594  15.823
  157DOPC   H7R18886   5.715   1.689  15.820
  157DOPC   H7S18887   5.734   1.537  15.911
  157DOPC   C2818888   5.745   1.515  15.694
  157DOPC   H8R18889   5.809   1.424  15.693
  157DOPC   H8S18890   5.777   1.578  15.608
  157DOPC   C2918891   5.601   1.476  15.683
  157DOPC   H9R18892   5.544   1.471  15.777
  157DOPC  C21018893   5.540   1.441  15.569
  157DOPC  H10R18894   5.434   1.413  15.571
  157DOPC  C21118895   5.608   1.435  15.434
  157DOPC  H11R18896   5.688   1.358  15.438
  157DOPC  H11S18897   5.658   1.531  15.411
  157DOPC  C21218898   5.506   1.403  15.323
  157DOPC  H12R18899   5.479   1.500  15.276
  157DOPC  H12S18900   5.412   1.363  15.367
  157DOPC  C21318901   5.542   1.305  15.210
  157DOPC  H13R18902   5.478   1.327  15.122
  157DOPC  H13S18903   5.512   1.204  15.244
  157DOPC  C21418904   5.687   1.298  15.162
  157DOPC  H14R18905   5.758   1.312  15.247
  157DOPC  H14S18906   5.708   1.377  15.087
  157DOPC  C21518907   5.711   1.159  15.101
  157DOPC  H15R18908   5.654   1.147  15.007
  157DOPC  H15S18909   5.674   1.083  15.173
  157DOPC  C21618910   5.858   1.128  15.078
  157DOPC  H16R18911   5.920   1.169  15.161
  157DOPC  H16S18912   5.888   1.182  14.985
  157DOPC  C21718913   5.882   0.977  15.069
  157DOPC  H17R18914   5.808   0.932  14.999
  157DOPC  H17S18915   5.862   0.934  15.169
  157DOPC  C21818916   6.022   0.934  15.024
  157DOPC  H18R18917   6.051   0.839  15.074
  157DOPC  H18S18918   6.100   1.009  15.050
  157DOPC  H18T18919   6.026   0.919  14.914
  157DOPC   C3318920   5.883   1.810  16.564
  157DOPC   H3X18921   5.979   1.760  16.536
  157DOPC   H3Y18922   5.862   1.791  16.672
  157DOPC   C3418923   5.895   1.963  16.550
  157DOPC   H4X18924   5.986   1.997  16.602
  157DOPC   H4Y18925   5.807   2.010  16.598
  157DOPC   C3518926   5.901   2.013  16.405
  157DOPC   H5X18927   5.926   2.121  16.407
  157DOPC   H5Y18928   5.801   2.004  16.358
  157DOPC   C3618929   6.003   1.940  16.316
  157DOPC   H6X18930   6.097   1.923  16.374
  157DOPC   H6Y18931   5.963   1.840  16.288
  157DOPC   C3718932   6.041   2.016  16.188
  157DOPC   H7X18933   6.116   2.094  16.217
  157DOPC   H7Y18934   6.093   1.948  16.118
  157DOPC   C3818935   5.924   2.087  16.117
  157DOPC   H8X18936   5.969   2.160  16.045
  157DOPC   H8Y18937   5.867   2.150  16.188
  157DOPC   C3918938   5.832   1.990  16.048
  157DOPC   H9X18939   5.782   1.918  16.114
  157DOPC  C31018940   5.808   1.984  15.915
  157DOPC  H10X18941   5.737   1.908  15.879
  157DOPC  C31118942   5.868   2.072  15.808
  157DOPC  H11X18943   5.950   2.136  15.845
  157DOPC  H11Y18944   5.789   2.140  15.769
  157DOPC  C31218945   5.924   1.991  15.689
  157DOPC  H12X18946   6.007   1.925  15.723
  157DOPC  H12Y18947   5.967   2.063  15.616
  157DOPC  C31318948   5.816   1.909  15.619
  157DOPC  H13X18949   5.793   1.819  15.681
  157DOPC  H13Y18950   5.724   1.970  15.613
  157DOPC  C31418951   5.852   1.861  15.478
  157DOPC  H14X18952   5.777   1.786  15.446
  157DOPC  H14Y18953   5.846   1.948  15.409
  157DOPC  C31518954   5.990   1.797  15.465
  157DOPC  H15X18955   6.001   1.711  15.534
  157DOPC  H15Y18956   6.068   1.872  15.491
  157DOPC  C31618957   6.011   1.751  15.321
  157DOPC  H16X18958   5.943   1.665  15.300
  157DOPC  H16Y18959   5.980   1.834  15.255
  157DOPC  C31718960   6.155   1.715  15.288
  157DOPC  H17X18961   6.223   1.763  15.362
  157DOPC  H17Y18962   6.169   1.605  15.297
  157DOPC  C31818963   6.193   1.763  15.148
  157DOPC  H18X18964   6.115   1.731  15.076
  157DOPC  H18Y18965   6.199   1.874  15.145
  157DOPC  H18Z18966   6.290   1.721  15.116
  158DOPC     N18967   4.174   7.095  16.936
  158DOPC   C1218968   4.075   7.099  16.820
  158DOPC  H12A18969   3.999   7.024  16.834
  158DOPC  H12B18970   4.127   7.074  16.728
  158DOPC   C1318971   4.246   6.964  16.941
  158DOPC  H13A18972   4.177   6.881  16.949
  158DOPC  H13B18973   4.306   6.950  16.852
  158DOPC  H13C18974   4.313   6.961  17.025
  158DOPC   C1418975   4.097   7.115  17.063
  158DOPC  H14A18976   4.161   7.121  17.149
  158DOPC  H14B18977   4.039   7.206  17.054
  158DOPC  H14C18978   4.024   7.036  17.075
  158DOPC   C1518979   4.276   7.205  16.921
  158DOPC  H15A18980   4.228   7.301  16.923
  158DOPC  H15B18981   4.329   7.196  16.827
  158DOPC  H15C18982   4.351   7.200  16.998
  158DOPC   C1118983   3.998   7.231  16.798
  158DOPC  H11A18984   4.069   7.316  16.789
  158DOPC  H11B18985   3.947   7.224  16.700
  158DOPC     P18986   3.767   7.180  16.906
  158DOPC   O1318987   3.699   7.204  17.036
  158DOPC   O1418988   3.797   7.040  16.871
  158DOPC   O1218989   3.905   7.259  16.904
  158DOPC   O1118990   3.680   7.249  16.792
  158DOPC    C118991   3.716   7.373  16.729
  158DOPC    HA18992   3.822   7.402  16.745
  158DOPC    HB18993   3.655   7.455  16.772
  158DOPC    C218994   3.694   7.371  16.575
  158DOPC    HS18995   3.584   7.377  16.560
  158DOPC   O2118996   3.755   7.256  16.512
  158DOPC   C2118997   3.674   7.193  16.426
  158DOPC   O2218998   3.553   7.199  16.429
  158DOPC   C2218999   3.755   7.129  16.312
  158DOPC   H2R19000   3.847   7.189  16.296
  158DOPC   H2S19001   3.693   7.138  16.220
  158DOPC    C319002   3.755   7.500  16.512
  158DOPC    HX19003   3.707   7.587  16.562
  158DOPC    HY19004   3.727   7.506  16.405
  158DOPC   O3119005   3.898   7.508  16.534
  158DOPC   C3119006   3.972   7.454  16.437
  158DOPC   O3219007   3.928   7.405  16.334
  158DOPC   C3219008   4.120   7.468  16.470
  158DOPC   H2X19009   4.158   7.555  16.412
  158DOPC   H2Y19010   4.134   7.488  16.578
  158DOPC   C2319011   3.796   6.982  16.333
  158DOPC   H3R19012   3.706   6.916  16.331
  158DOPC   H3S19013   3.842   6.973  16.434
  158DOPC   C2419014   3.900   6.934  16.230
  158DOPC   H4R19015   3.955   6.850  16.278
  158DOPC   H4S19016   3.974   7.014  16.208
  158DOPC   C2519017   3.842   6.878  16.099
  158DOPC   H5R19018   3.745   6.828  16.119
  158DOPC   H5S19019   3.912   6.800  16.061
  158DOPC   C2619020   3.825   6.980  15.985
  158DOPC   H6R19021   3.924   7.027  15.964
  158DOPC   H6S19022   3.755   7.060  16.015
  158DOPC   C2719023   3.772   6.912  15.857
  158DOPC   H7R19024   3.671   6.871  15.880
  158DOPC   H7S19025   3.837   6.826  15.830
  158DOPC   C2819026   3.759   7.005  15.735
  158DOPC   H8R19027   3.697   7.093  15.763
  158DOPC   H8S19028   3.703   6.950  15.656
  158DOPC   C2919029   3.892   7.050  15.680
  158DOPC   H9R19030   3.980   7.022  15.740
  158DOPC  C21019031   3.909   7.117  15.565
  158DOPC  H10R19032   4.011   7.148  15.534
  158DOPC  C21119033   3.800   7.160  15.470
  158DOPC  H11R19034   3.710   7.095  15.480
  158DOPC  H11S19035   3.834   7.150  15.365
  158DOPC  C21219036   3.757   7.305  15.495
  158DOPC  H12R19037   3.839   7.375  15.469
  158DOPC  H12S19038   3.736   7.319  15.603
  158DOPC  C21319039   3.629   7.342  15.418
  158DOPC  H13R19040   3.596   7.442  15.452
  158DOPC  H13S19041   3.549   7.271  15.447
  158DOPC  C21419042   3.642   7.341  15.264
  158DOPC  H14R19043   3.551   7.390  15.224
  158DOPC  H14S19044   3.643   7.237  15.227
  158DOPC  C21519045   3.766   7.413  15.208
  158DOPC  H15R19046   3.853   7.343  15.209
  158DOPC  H15S19047   3.796   7.497  15.275
  158DOPC  C21619048   3.744   7.470  15.067
  158DOPC  H16R19049   3.651   7.530  15.068
  158DOPC  H16S19050   3.731   7.387  14.995
  158DOPC  C21719051   3.856   7.563  15.021
  158DOPC  H17R19052   3.951   7.504  15.016
  158DOPC  H17S19053   3.869   7.642  15.097
  158DOPC  C21819054   3.830   7.630  14.885
  158DOPC  H18R19055   3.920   7.684  14.849
  158DOPC  H18S19056   3.748   7.703  14.894
  158DOPC  H18T19057   3.802   7.554  14.809
  158DOPC   C3319058   4.198   7.342  16.427
  158DOPC   H3X19059   4.174   7.318  16.321
  158DOPC   H3Y19060   4.168   7.255  16.489
  158DOPC   C3419061   4.350   7.361  16.437
  158DOPC   H4X19062   4.376   7.403  16.536
  158DOPC   H4Y19063   4.383   7.436  16.361
  158DOPC   C3519064   4.429   7.230  16.417
  158DOPC   H5X19065   4.405   7.162  16.501
  158DOPC   H5Y19066   4.537   7.254  16.422
  158DOPC   C3619067   4.399   7.157  16.285
  158DOPC   H6X19068   4.455   7.062  16.284
  158DOPC   H6Y19069   4.291   7.131  16.278
  158DOPC   C3719070   4.440   7.238  16.161
  158DOPC   H7X19071   4.384   7.334  16.155
  158DOPC   H7Y19072   4.547   7.264  16.172
  158DOPC   C3819073   4.423   7.159  16.030
  158DOPC   H8X19074   4.457   7.054  16.048
  158DOPC   H8Y19075   4.492   7.203  15.955
  158DOPC   C3919076   4.283   7.160  15.976
  158DOPC   H9X19077   4.204   7.187  16.048
  158DOPC  C31019078   4.250   7.130  15.849
  158DOPC  H10X19079   4.145   7.138  15.818
  158DOPC  C31119080   4.347   7.091  15.741
  158DOPC  H11X19081   4.303   7.011  15.678
  158DOPC  H11Y19082   4.441   7.048  15.784
  158DOPC  C31219083   4.388   7.208  15.649
  158DOPC  H12X19084   4.463   7.170  15.577
  158DOPC  H12Y19085   4.436   7.289  15.708
  158DOPC  C31319086   4.269   7.266  15.570
  158DOPC  H13X19087   4.205   7.180  15.539
  158DOPC  H13Y19088   4.209   7.330  15.638
  158DOPC  C31419089   4.308   7.345  15.445
  158DOPC  H14X19090   4.224   7.411  15.415
  158DOPC  H14Y19091   4.394   7.411  15.471
  158DOPC  C31519092   4.347   7.258  15.324
  158DOPC  H15X19093   4.424   7.185  15.357
  158DOPC  H15Y19094   4.393   7.322  15.246
  158DOPC  C31619095   4.230   7.180  15.260
  158DOPC  H16X19096   4.273   7.103  15.193
  158DOPC  H16Y19097   4.171   7.127  15.337
  158DOPC  C31719098   4.137   7.268  15.175
  158DOPC  H17X19099   4.087   7.343  15.240
  158DOPC  H17Y19100   4.199   7.323  15.101
  158DOPC  C31819101   4.031   7.186  15.101
  158DOPC  H18X19102   4.079   7.113  15.032
  158DOPC  H18Y19103   3.967   7.131  15.172
  158DOPC  H18Z19104   3.966   7.253  15.040
  159DOPC     N19105   6.657   2.035  17.107
  159DOPC   C1219106   6.771   1.990  17.016
  159DOPC  H12A19107   6.741   1.903  16.959
  159DOPC  H12B19108   6.856   1.959  17.075
  159DOPC   C1319109   6.628   1.931  17.210
  159DOPC  H13A19110   6.546   1.961  17.273
  159DOPC  H13B19111   6.602   1.837  17.163
  159DOPC  H13C19112   6.714   1.912  17.272
  159DOPC   C1419113   6.533   2.058  17.025
  159DOPC  H14A19114   6.505   1.969  16.971
  159DOPC  H14B19115   6.450   2.094  17.084
  159DOPC  H14C19116   6.556   2.128  16.947
  159DOPC   C1519117   6.692   2.165  17.171
  159DOPC  H15A19118   6.780   2.156  17.234
  159DOPC  H15B19119   6.611   2.203  17.231
  159DOPC  H15C19120   6.714   2.238  17.094
  159DOPC   C1119121   6.820   2.090  16.908
  159DOPC  H11A19122   6.858   2.183  16.956
  159DOPC  H11B19123   6.907   2.047  16.854
  159DOPC     P19124   6.664   2.014  16.714
  159DOPC   O1319125   6.517   2.007  16.728
  159DOPC   O1419126   6.738   1.888  16.741
  159DOPC   O1219127   6.714   2.123  16.819
  159DOPC   O1119128   6.706   2.080  16.576
  159DOPC    C119129   6.775   2.206  16.579
  159DOPC    HA19130   6.857   2.206  16.654
  159DOPC    HB19131   6.704   2.288  16.604
  159DOPC    C219132   6.848   2.244  16.447
  159DOPC    HS19133   6.914   2.329  16.474
  159DOPC   O2119134   6.751   2.285  16.348
  159DOPC   C2119135   6.809   2.354  16.249
  159DOPC   O2219136   6.922   2.399  16.252
  159DOPC   C2219137   6.712   2.367  16.132
  159DOPC   H2R19138   6.625   2.429  16.164
  159DOPC   H2S19139   6.676   2.265  16.108
  159DOPC    C319140   6.939   2.129  16.395
  159DOPC    HX19141   7.015   2.112  16.475
  159DOPC    HY19142   6.996   2.162  16.305
  159DOPC   O3119143   6.871   2.004  16.373
  159DOPC   C3119144   6.816   1.988  16.254
  159DOPC   O3219145   6.820   2.068  16.162
  159DOPC   C3219146   6.758   1.847  16.245
  159DOPC   H2X19147   6.806   1.783  16.322
  159DOPC   H2Y19148   6.649   1.853  16.266
  159DOPC   C2319149   6.781   2.429  16.008
  159DOPC   H3R19150   6.876   2.376  15.987
  159DOPC   H3S19151   6.806   2.535  16.029
  159DOPC   C2419152   6.694   2.422  15.882
  159DOPC   H4R19153   6.746   2.479  15.802
  159DOPC   H4S19154   6.596   2.471  15.900
  159DOPC   C2519155   6.671   2.278  15.833
  159DOPC   H5R19156   6.610   2.223  15.908
  159DOPC   H5S19157   6.769   2.226  15.826
  159DOPC   C2619158   6.598   2.272  15.698
  159DOPC   H6R19159   6.512   2.341  15.700
  159DOPC   H6S19160   6.558   2.169  15.683
  159DOPC   C2719161   6.689   2.306  15.578
  159DOPC   H7R19162   6.747   2.398  15.600
  159DOPC   H7S19163   6.625   2.326  15.490
  159DOPC   C2819164   6.784   2.189  15.545
  159DOPC   H8R19165   6.720   2.106  15.506
  159DOPC   H8S19166   6.830   2.154  15.639
  159DOPC   C2919167   6.890   2.221  15.443
  159DOPC   H9R19168   6.872   2.309  15.380
  159DOPC  C21019169   7.005   2.154  15.429
  159DOPC  H10R19170   7.073   2.182  15.348
  159DOPC  C21119171   7.049   2.038  15.514
  159DOPC  H11R19172   7.006   2.043  15.616
  159DOPC  H11S19173   7.159   2.044  15.527
  159DOPC  C21219174   7.013   1.902  15.453
  159DOPC  H12R19175   6.906   1.899  15.425
  159DOPC  H12S19176   7.030   1.823  15.530
  159DOPC  C21319177   7.097   1.867  15.331
  159DOPC  H13R19178   7.204   1.887  15.354
  159DOPC  H13S19179   7.066   1.933  15.248
  159DOPC  C21419180   7.082   1.719  15.292
  159DOPC  H14R19181   6.981   1.702  15.248
  159DOPC  H14S19182   7.090   1.656  15.383
  159DOPC  C21519183   7.191   1.675  15.193
  159DOPC  H15R19184   7.184   1.565  15.175
  159DOPC  H15S19185   7.289   1.692  15.242
  159DOPC  C21619186   7.189   1.755  15.063
  159DOPC  H16R19187   7.283   1.741  15.006
  159DOPC  H16S19188   7.182   1.861  15.095
  159DOPC  C21719189   7.071   1.740  14.968
  159DOPC  H17R19190   7.028   1.842  14.952
  159DOPC  H17S19191   6.992   1.678  15.015
  159DOPC  C21819192   7.114   1.687  14.831
  159DOPC  H18R19193   7.153   1.583  14.838
  159DOPC  H18S19194   7.196   1.749  14.790
  159DOPC  H18T19195   7.029   1.690  14.759
  159DOPC   C3319196   6.783   1.788  16.104
  159DOPC   H3X19197   6.733   1.852  16.028
  159DOPC   H3Y19198   6.738   1.688  16.096
  159DOPC   C3419199   6.934   1.779  16.073
  159DOPC   H4X19200   6.986   1.737  16.162
  159DOPC   H4Y19201   6.973   1.882  16.056
  159DOPC   C3519202   6.972   1.694  15.952
  159DOPC   H5X19203   7.001   1.593  15.988
  159DOPC   H5Y19204   7.066   1.731  15.905
  159DOPC   C3619205   6.870   1.691  15.839
  159DOPC   H6X19206   6.904   1.620  15.761
  159DOPC   H6Y19207   6.770   1.656  15.874
  159DOPC   C3719208   6.861   1.829  15.774
  159DOPC   H7X19209   6.836   1.908  15.848
  159DOPC   H7Y19210   6.963   1.851  15.735
  159DOPC   C3819211   6.767   1.834  15.655
  159DOPC   H8X19212   6.800   1.753  15.587
  159DOPC   H8Y19213   6.786   1.930  15.602
  159DOPC   C3919214   6.621   1.827  15.688
  159DOPC   H9X19215   6.587   1.891  15.770
  159DOPC  C31019216   6.533   1.749  15.623
  159DOPC  H10X19217   6.427   1.750  15.652
  159DOPC  C31119218   6.569   1.658  15.509
  159DOPC  H11X19219   6.479   1.599  15.480
  159DOPC  H11Y19220   6.645   1.584  15.544
  159DOPC  C31219221   6.626   1.724  15.380
  159DOPC  H12X19222   6.665   1.644  15.314
  159DOPC  H12Y19223   6.711   1.791  15.402
  159DOPC  C31319224   6.521   1.802  15.302
  159DOPC  H13X19225   6.439   1.731  15.277
  159DOPC  H13Y19226   6.478   1.883  15.365
  159DOPC  C31419227   6.576   1.860  15.171
  159DOPC  H14X19228   6.638   1.783  15.120
  159DOPC  H14Y19229   6.491   1.884  15.104
  159DOPC  C31519230   6.660   1.989  15.188
  159DOPC  H15X19231   6.702   2.012  15.088
  159DOPC  H15Y19232   6.745   1.972  15.257
  159DOPC  C31619233   6.575   2.107  15.239
  159DOPC  H16X19234   6.472   2.096  15.200
  159DOPC  H16Y19235   6.565   2.098  15.349
  159DOPC  C31719236   6.625   2.250  15.206
  159DOPC  H17X19237   6.544   2.321  15.233
  159DOPC  H17Y19238   6.709   2.272  15.276
  159DOPC  C31819239   6.677   2.284  15.065
  159DOPC  H18X19240   6.601   2.341  15.009
  159DOPC  H18Y19241   6.768   2.346  15.071
  159DOPC  H18Z19242   6.703   2.193  15.006
  160DOPC     N19243   1.871   6.893  16.949
  160DOPC   C1219244   1.815   6.757  16.992
  160DOPC  H12A19245   1.776   6.709  16.903
  160DOPC  H12B19246   1.734   6.772  17.062
  160DOPC   C1319247   1.981   6.872  16.849
  160DOPC  H13A19248   2.058   6.808  16.891
  160DOPC  H13B19249   1.943   6.817  16.764
  160DOPC  H13C19250   2.023   6.965  16.813
  160DOPC   C1419251   1.923   6.966  17.069
  160DOPC  H14A19252   1.997   6.906  17.120
  160DOPC  H14B19253   1.966   7.061  17.041
  160DOPC  H14C19254   1.843   6.984  17.140
  160DOPC   C1519255   1.765   6.975  16.884
  160DOPC  H15A19256   1.806   7.070  16.853
  160DOPC  H15B19257   1.684   6.998  16.951
  160DOPC  H15C19258   1.727   6.926  16.796
  160DOPC   C1119259   1.913   6.654  17.055
  160DOPC  H11A19260   1.968   6.701  17.139
  160DOPC  H11B19261   1.854   6.571  17.099
  160DOPC     P19262   1.956   6.511  16.842
  160DOPC   O1319263   1.867   6.408  16.900
  160DOPC   O1419264   2.074   6.465  16.767
  160DOPC   O1219265   2.007   6.604  16.960
  160DOPC   O1119266   1.870   6.616  16.757
  160DOPC    C119267   1.800   6.572  16.641
  160DOPC    HA19268   1.710   6.513  16.671
  160DOPC    HB19269   1.865   6.508  16.579
  160DOPC    C219270   1.751   6.686  16.547
  160DOPC    HS19271   1.736   6.641  16.446
  160DOPC   O2119272   1.844   6.797  16.546
  160DOPC   C2119273   1.933   6.783  16.450
  160DOPC   O2219274   1.951   6.683  16.383
  160DOPC   C2219275   2.001   6.919  16.431
  160DOPC   H2R19276   2.057   6.938  16.525
  160DOPC   H2S19277   1.922   6.997  16.419
  160DOPC    C319278   1.613   6.747  16.584
  160DOPC    HX19279   1.619   6.775  16.691
  160DOPC    HY19280   1.534   6.670  16.574
  160DOPC   O3119281   1.582   6.866  16.507
  160DOPC   C3119282   1.560   6.844  16.376
  160DOPC   O3219283   1.552   6.734  16.325
  160DOPC   C3219284   1.545   6.978  16.304
  160DOPC   H2X19285   1.447   7.020  16.334
  160DOPC   H2Y19286   1.626   7.046  16.338
  160DOPC   C2319287   2.097   6.923  16.311
  160DOPC   H3R19288   2.144   6.823  16.300
  160DOPC   H3S19289   2.181   6.993  16.332
  160DOPC   C2419290   2.032   6.961  16.178
  160DOPC   H4R19291   2.111   6.963  16.100
  160DOPC   H4S19292   1.986   7.063  16.181
  160DOPC   C2519293   1.926   6.860  16.136
  160DOPC   H5R19294   1.835   6.869  16.199
  160DOPC   H5S19295   1.966   6.758  16.152
  160DOPC   C2619296   1.889   6.869  15.989
  160DOPC   H6R19297   1.983   6.872  15.930
  160DOPC   H6S19298   1.834   6.963  15.969
  160DOPC   C2719299   1.806   6.746  15.947
  160DOPC   H7R19300   1.722   6.733  16.019
  160DOPC   H7S19301   1.869   6.655  15.954
  160DOPC   C2819302   1.748   6.760  15.807
  160DOPC   H8R19303   1.677   6.845  15.808
  160DOPC   H8S19304   1.689   6.670  15.782
  160DOPC   C2919305   1.860   6.786  15.709
  160DOPC   H9R19306   1.911   6.883  15.722
  160DOPC  C21019307   1.899   6.708  15.607
  160DOPC  H10R19308   1.982   6.742  15.544
  160DOPC  C21119309   1.839   6.578  15.566
  160DOPC  H11R19310   1.764   6.540  15.639
  160DOPC  H11S19311   1.918   6.500  15.558
  160DOPC  C21219312   1.771   6.595  15.429
  160DOPC  H12R19313   1.747   6.495  15.386
  160DOPC  H12S19314   1.842   6.643  15.359
  160DOPC  C21319315   1.641   6.677  15.432
  160DOPC  H13R19316   1.666   6.781  15.465
  160DOPC  H13S19317   1.570   6.635  15.507
  160DOPC  C21419318   1.574   6.683  15.295
  160DOPC  H14R19319   1.494   6.606  15.289
  160DOPC  H14S19320   1.650   6.660  15.217
  160DOPC  C21519321   1.516   6.820  15.260
  160DOPC  H15R19322   1.600   6.893  15.271
  160DOPC  H15S19323   1.435   6.846  15.331
  160DOPC  C21619324   1.468   6.831  15.116
  160DOPC  H16R19325   1.407   6.742  15.089
  160DOPC  H16S19326   1.556   6.821  15.049
  160DOPC  C21719327   1.389   6.959  15.085
  160DOPC  H17R19328   1.281   6.939  15.099
  160DOPC  H17S19329   1.405   6.983  14.977
  160DOPC  C21819330   1.426   7.086  15.162
  160DOPC  H18R19331   1.364   7.171  15.128
  160DOPC  H18S19332   1.533   7.111  15.145
  160DOPC  H18T19333   1.410   7.072  15.272
  160DOPC   C3319334   1.550   6.969  16.149
  160DOPC   H3X19335   1.483   6.889  16.112
  160DOPC   H3Y19336   1.652   6.943  16.115
  160DOPC   C3419337   1.509   7.103  16.086
  160DOPC   H4X19338   1.577   7.181  16.126
  160DOPC   H4Y19339   1.407   7.131  16.118
  160DOPC   C3519340   1.518   7.108  15.933
  160DOPC   H5X19341   1.625   7.091  15.908
  160DOPC   H5Y19342   1.490   7.210  15.900
  160DOPC   C3619343   1.430   7.009  15.854
  160DOPC   H6X19344   1.462   6.904  15.871
  160DOPC   H6Y19345   1.326   7.019  15.894
  160DOPC   C3719346   1.418   7.037  15.703
  160DOPC   H7X19347   1.325   6.988  15.668
  160DOPC   H7Y19348   1.404   7.146  15.685
  160DOPC   C3819349   1.531   6.983  15.613
  160DOPC   H8X19350   1.498   6.994  15.508
  160DOPC   H8Y19351   1.540   6.874  15.631
  160DOPC   C3919352   1.664   7.051  15.636
  160DOPC   H9X19353   1.701   7.045  15.739
  160DOPC  C31019354   1.746   7.107  15.547
  160DOPC  H10X19355   1.841   7.152  15.581
  160DOPC  C31119356   1.725   7.116  15.399
  160DOPC  H11X19357   1.699   7.220  15.372
  160DOPC  H11Y19358   1.638   7.056  15.368
  160DOPC  C31219359   1.849   7.072  15.320
  160DOPC  H12X19360   1.924   7.153  15.312
  160DOPC  H12Y19361   1.814   7.050  15.217
  160DOPC  C31319362   1.921   6.949  15.378
  160DOPC  H13X19363   1.966   6.973  15.476
  160DOPC  H13Y19364   1.843   6.871  15.393
  160DOPC  C31419365   2.029   6.889  15.288
  160DOPC  H14X19366   2.116   6.958  15.281
  160DOPC  H14Y19367   2.065   6.794  15.333
  160DOPC  C31519368   1.974   6.862  15.147
  160DOPC  H15X19369   1.967   6.959  15.095
  160DOPC  H15Y19370   1.872   6.819  15.155
  160DOPC  C31619371   2.061   6.770  15.061
  160DOPC  H16X19372   2.026   6.777  14.956
  160DOPC  H16Y19373   2.164   6.811  15.065
  160DOPC  C31719374   2.062   6.622  15.103
  160DOPC  H17X19375   2.134   6.570  15.037
  160DOPC  H17Y19376   2.099   6.613  15.207
  160DOPC  C31819377   1.927   6.552  15.091
  160DOPC  H18X19378   1.936   6.444  15.116
  160DOPC  H18Y19379   1.851   6.597  15.158
  160DOPC  H18Z19380   1.887   6.560  14.987
  161DOPC     N19381   3.835   0.284  17.077
  161DOPC   C1219382   3.789   0.348  16.946
  161DOPC  H12A19383   3.847   0.438  16.930
  161DOPC  H12B19384   3.685   0.379  16.955
  161DOPC   C1319385   3.985   0.287  17.081
  161DOPC  H13A19386   4.021   0.388  17.076
  161DOPC  H13B19387   4.027   0.240  17.169
  161DOPC  H13C19388   4.025   0.239  16.993
  161DOPC   C1419389   3.788   0.143  17.084
  161DOPC  H14A19390   3.831   0.088  17.001
  161DOPC  H14B19391   3.818   0.096  17.177
  161DOPC  H14C19392   3.680   0.136  17.077
  161DOPC   C1519393   3.785   0.364  17.194
  161DOPC  H15A19394   3.677   0.372  17.195
  161DOPC  H15B19395   3.825   0.465  17.189
  161DOPC  H15C19396   3.817   0.322  17.287
  161DOPC   C1119397   3.804   0.265  16.816
  161DOPC  H11A19398   3.742   0.173  16.821
  161DOPC  H11B19399   3.764   0.324  16.730
  161DOPC     P19400   4.045   0.341  16.749
  161DOPC   O1319401   4.166   0.316  16.830
  161DOPC   O1419402   3.980   0.472  16.771
  161DOPC   O1219403   3.940   0.229  16.793
  161DOPC   O1119404   4.068   0.310  16.595
  161DOPC    C119405   3.998   0.200  16.534
  161DOPC    HA19406   3.890   0.224  16.527
  161DOPC    HB19407   4.010   0.107  16.594
  161DOPC    C219408   4.045   0.161  16.389
  161DOPC    HS19409   4.137   0.100  16.399
  161DOPC   O2119410   4.070   0.276  16.306
  161DOPC   C2119411   4.113   0.244  16.185
  161DOPC   O2219412   4.186   0.151  16.157
  161DOPC   C2219413   4.043   0.330  16.080
  161DOPC   H2R19414   3.987   0.262  16.013
  161DOPC   H2S19415   4.122   0.381  16.021
  161DOPC    C319416   3.932   0.077  16.321
  161DOPC    HX19417   3.862   0.151  16.279
  161DOPC    HY19418   3.877   0.022  16.400
  161DOPC   O3119419   3.983  -0.016  16.223
  161DOPC   C3119420   3.894  -0.047  16.129
  161DOPC   O3219421   3.778  -0.009  16.131
  161DOPC   C3219422   3.953  -0.134  16.019
  161DOPC   H2X19423   4.050  -0.175  16.054
  161DOPC   H2Y19424   3.883  -0.219  16.003
  161DOPC   C2319425   3.947   0.433  16.141
  161DOPC   H3R19426   3.997   0.485  16.226
  161DOPC   H3S19427   3.857   0.383  16.183
  161DOPC   C2419428   3.905   0.542  16.043
  161DOPC   H4R19429   3.995   0.593  16.002
  161DOPC   H4S19430   3.846   0.615  16.102
  161DOPC   C2519431   3.820   0.493  15.926
  161DOPC   H5R19432   3.755   0.411  15.961
  161DOPC   H5S19433   3.884   0.449  15.846
  161DOPC   C2619434   3.730   0.606  15.873
  161DOPC   H6R19435   3.708   0.677  15.956
  161DOPC   H6S19436   3.632   0.564  15.844
  161DOPC   C2719437   3.787   0.683  15.752
  161DOPC   H7R19438   3.884   0.730  15.780
  161DOPC   H7S19439   3.717   0.764  15.724
  161DOPC   C2819440   3.810   0.593  15.630
  161DOPC   H8R19441   3.892   0.522  15.652
  161DOPC   H8S19442   3.842   0.655  15.543
  161DOPC   C2919443   3.686   0.514  15.602
  161DOPC   H9R19444   3.665   0.437  15.678
  161DOPC  C21019445   3.605   0.528  15.498
  161DOPC  H10R19446   3.512   0.468  15.495
  161DOPC  C21119447   3.624   0.626  15.387
  161DOPC  H11R19448   3.723   0.608  15.339
  161DOPC  H11S19449   3.627   0.730  15.426
  161DOPC  C21219450   3.515   0.614  15.279
  161DOPC  H12R19451   3.448   0.703  15.288
  161DOPC  H12S19452   3.451   0.525  15.293
  161DOPC  C21319453   3.572   0.608  15.137
  161DOPC  H13R19454   3.643   0.692  15.121
  161DOPC  H13S19455   3.487   0.622  15.067
  161DOPC  C21419456   3.641   0.475  15.104
  161DOPC  H14R19457   3.569   0.391  15.119
  161DOPC  H14S19458   3.726   0.459  15.174
  161DOPC  C21519459   3.695   0.468  14.960
  161DOPC  H15R19460   3.759   0.379  14.951
  161DOPC  H15S19461   3.757   0.559  14.944
  161DOPC  C21619462   3.587   0.463  14.851
  161DOPC  H16R19463   3.627   0.505  14.756
  161DOPC  H16S19464   3.503   0.528  14.882
  161DOPC  C21719465   3.533   0.322  14.822
  161DOPC  H17R19466   3.429   0.334  14.785
  161DOPC  H17S19467   3.528   0.264  14.917
  161DOPC  C21819468   3.612   0.243  14.717
  161DOPC  H18R19469   3.553   0.156  14.681
  161DOPC  H18S19470   3.707   0.205  14.760
  161DOPC  H18T19471   3.636   0.308  14.630
  161DOPC   C3319472   3.973  -0.056  15.887
  161DOPC   H3X19473   4.010  -0.126  15.809
  161DOPC   H3Y19474   4.052   0.020  15.904
  161DOPC   C3419475   3.845   0.013  15.834
  161DOPC   H4X19476   3.813   0.091  15.906
  161DOPC   H4Y19477   3.763  -0.062  15.827
  161DOPC   C3519478   3.861   0.083  15.698
  161DOPC   H5X19479   3.769   0.140  15.675
  161DOPC   H5Y19480   3.874   0.006  15.618
  161DOPC   C3619481   3.981   0.178  15.694
  161DOPC   H6X19482   3.973   0.253  15.776
  161DOPC   H6Y19483   4.071   0.115  15.710
  161DOPC   C3719484   4.003   0.249  15.560
  161DOPC   H7X19485   4.007   0.171  15.481
  161DOPC   H7Y19486   3.918   0.316  15.536
  161DOPC   C3819487   4.138   0.325  15.557
  161DOPC   H8X19488   4.174   0.322  15.452
  161DOPC   H8Y19489   4.214   0.270  15.616
  161DOPC   C3919490   4.134   0.465  15.611
  161DOPC   H9X19491   4.123   0.474  15.720
  161DOPC  C31019492   4.141   0.576  15.535
  161DOPC  H10X19493   4.134   0.674  15.584
  161DOPC  C31119494   4.154   0.576  15.385
  161DOPC  H11X19495   4.240   0.511  15.358
  161DOPC  H11Y19496   4.181   0.677  15.348
  161DOPC  C31219497   4.031   0.524  15.307
  161DOPC  H12X19498   3.948   0.598  15.308
  161DOPC  H12Y19499   3.991   0.432  15.355
  161DOPC  C31319500   4.064   0.488  15.162
  161DOPC  H13X19501   4.138   0.405  15.166
  161DOPC  H13Y19502   3.973   0.449  15.111
  161DOPC  C31419503   4.125   0.603  15.080
  161DOPC  H14X19504   4.049   0.685  15.073
  161DOPC  H14Y19505   4.214   0.642  15.134
  161DOPC  C31519506   4.170   0.563  14.939
  161DOPC  H15X19507   4.228   0.469  14.947
  161DOPC  H15Y19508   4.238   0.640  14.898
  161DOPC  C31619509   4.052   0.546  14.842
  161DOPC  H16X19510   3.960   0.532  14.903
  161DOPC  H16Y19511   4.036   0.640  14.785
  161DOPC  C31719512   4.066   0.426  14.749
  161DOPC  H17X19513   4.060   0.459  14.643
  161DOPC  H17Y19514   4.165   0.378  14.762
  161DOPC  C31819515   3.955   0.324  14.776
  161DOPC  H18X19516   3.945   0.306  14.885
  161DOPC  H18Y19517   3.859   0.363  14.737
  161DOPC  H18Z19518   3.977   0.225  14.730
  162DOPC     N19519   1.285   6.481  16.890
  162DOPC   C1219520   1.308   6.359  16.803
  162DOPC  H12A19521   1.408   6.322  16.819
  162DOPC  H12B19522   1.299   6.389  16.700
  162DOPC   C1319523   1.142   6.524  16.887
  162DOPC  H13A19524   1.111   6.556  16.788
  162DOPC  H13B19525   1.079   6.442  16.917
  162DOPC  H13C19526   1.126   6.606  16.956
  162DOPC   C1419527   1.373   6.595  16.847
  162DOPC  H14A19528   1.346   6.630  16.749
  162DOPC  H14B19529   1.362   6.676  16.917
  162DOPC  H14C19530   1.477   6.564  16.848
  162DOPC   C1519531   1.320   6.444  17.030
  162DOPC  H15A19532   1.304   6.525  17.100
  162DOPC  H15B19533   1.422   6.410  17.038
  162DOPC  H15C19534   1.259   6.360  17.061
  162DOPC   C1119535   1.217   6.234  16.821
  162DOPC  H11A19536   1.113   6.260  16.794
  162DOPC  H11B19537   1.249   6.154  16.750
  162DOPC     P19538   1.336   6.099  17.018
  162DOPC   O1319539   1.320   5.958  16.977
  162DOPC   O1419540   1.335   6.128  17.163
  162DOPC   O1219541   1.220   6.186  16.955
  162DOPC   O1119542   1.470   6.161  16.955
  162DOPC    C119543   1.575   6.072  16.909
  162DOPC    HA19544   1.531   5.979  16.867
  162DOPC    HB19545   1.639   6.041  16.993
  162DOPC    C219546   1.664   6.133  16.795
  162DOPC    HS19547   1.737   6.200  16.845
  162DOPC   O2119548   1.575   6.219  16.720
  162DOPC   C2119549   1.610   6.276  16.606
  162DOPC   O2219550   1.724   6.298  16.571
  162DOPC   C2219551   1.480   6.304  16.524
  162DOPC   H2R19552   1.390   6.307  16.590
  162DOPC   H2S19553   1.460   6.213  16.463
  162DOPC    C319554   1.756   6.020  16.720
  162DOPC    HX19555   1.790   5.954  16.803
  162DOPC    HY19556   1.845   6.074  16.682
  162DOPC   O3119557   1.700   5.933  16.616
  162DOPC   C3119558   1.760   5.818  16.571
  162DOPC   O3219559   1.878   5.797  16.591
  162DOPC   C3219560   1.666   5.704  16.499
  162DOPC   H2X19561   1.749   5.636  16.469
  162DOPC   H2Y19562   1.611   5.648  16.578
  162DOPC   C2319563   1.474   6.416  16.417
  162DOPC   H3R19564   1.569   6.418  16.359
  162DOPC   H3S19565   1.461   6.515  16.465
  162DOPC   C2419566   1.358   6.393  16.317
  162DOPC   H4R19567   1.261   6.398  16.371
  162DOPC   H4S19568   1.366   6.292  16.272
  162DOPC   C2519569   1.359   6.497  16.205
  162DOPC   H5R19570   1.446   6.480  16.139
  162DOPC   H5S19571   1.373   6.597  16.251
  162DOPC   C2619572   1.231   6.508  16.120
  162DOPC   H6R19573   1.249   6.589  16.046
  162DOPC   H6S19574   1.147   6.540  16.185
  162DOPC   C2719575   1.187   6.384  16.040
  162DOPC   H7R19576   1.096   6.409  15.981
  162DOPC   H7S19577   1.158   6.305  16.112
  162DOPC   C2819578   1.293   6.327  15.943
  162DOPC   H8R19579   1.252   6.234  15.899
  162DOPC   H8S19580   1.383   6.299  16.002
  162DOPC   C2919581   1.331   6.420  15.830
  162DOPC   H9R19582   1.268   6.509  15.817
  162DOPC  C21019583   1.436   6.401  15.747
  162DOPC  H10R19584   1.456   6.475  15.668
  162DOPC  C21119585   1.530   6.284  15.753
  162DOPC  H11R19586   1.498   6.208  15.828
  162DOPC  H11S19587   1.631   6.319  15.785
  162DOPC  C21219588   1.546   6.209  15.619
  162DOPC  H12R19589   1.448   6.176  15.579
  162DOPC  H12S19590   1.606   6.117  15.638
  162DOPC  C21319591   1.621   6.292  15.514
  162DOPC  H13R19592   1.697   6.352  15.567
  162DOPC  H13S19593   1.551   6.362  15.464
  162DOPC  C21419594   1.697   6.209  15.409
  162DOPC  H14R19595   1.774   6.147  15.459
  162DOPC  H14S19596   1.751   6.281  15.343
  162DOPC  C21519597   1.608   6.120  15.320
  162DOPC  H15R19598   1.518   6.179  15.293
  162DOPC  H15S19599   1.574   6.031  15.377
  162DOPC  C21619600   1.683   6.079  15.193
  162DOPC  H16R19601   1.753   5.996  15.216
  162DOPC  H16S19602   1.744   6.164  15.157
  162DOPC  C21719603   1.595   6.034  15.075
  162DOPC  H17R19604   1.514   6.109  15.058
  162DOPC  H17S19605   1.546   5.937  15.101
  162DOPC  C21819606   1.676   6.019  14.946
  162DOPC  H18R19607   1.733   6.112  14.926
  162DOPC  H18S19608   1.611   5.999  14.859
  162DOPC  H18T19609   1.749   5.936  14.956
  162DOPC   C3319610   1.577   5.693  16.363
  162DOPC   H3X19611   1.582   5.584  16.339
  162DOPC   H3Y19612   1.627   5.748  16.281
  162DOPC   C3419613   1.423   5.720  16.354
  162DOPC   H4X19614   1.381   5.747  16.454
  162DOPC   H4Y19615   1.371   5.623  16.339
  162DOPC   C3519616   1.361   5.817  16.248
  162DOPC   H5X19617   1.326   5.757  16.161
  162DOPC   H5Y19618   1.439   5.881  16.201
  162DOPC   C3619619   1.244   5.903  16.307
  162DOPC   H6X19620   1.213   5.858  16.404
  162DOPC   H6Y19621   1.281   6.006  16.330
  162DOPC   C3719622   1.112   5.929  16.230
  162DOPC   H7X19623   1.055   5.836  16.211
  162DOPC   H7Y19624   1.048   5.991  16.296
  162DOPC   C3819625   1.132   6.005  16.098
  162DOPC   H8X19626   1.206   5.948  16.038
  162DOPC   H8Y19627   1.178   6.103  16.121
  162DOPC   C3919628   1.000   6.024  16.026
  162DOPC   H9X19629   0.915   6.053  16.089
  162DOPC  C31019630   0.979   6.008  15.894
  162DOPC  H10X19631   0.879   6.026  15.853
  162DOPC  C31119632   1.082   5.967  15.792
  162DOPC  H11X19633   1.177   5.931  15.839
  162DOPC  H11Y19634   1.110   6.055  15.730
  162DOPC  C31219635   1.034   5.854  15.700
  162DOPC  H12X19636   0.942   5.885  15.645
  162DOPC  H12Y19637   1.007   5.765  15.762
  162DOPC  C31319638   1.143   5.816  15.599
  162DOPC  H13X19639   1.243   5.828  15.646
  162DOPC  H13Y19640   1.131   5.710  15.568
  162DOPC  C31419641   1.135   5.904  15.474
  162DOPC  H14X19642   1.051   5.866  15.412
  162DOPC  H14Y19643   1.111   6.008  15.505
  162DOPC  C31519644   1.264   5.908  15.392
  162DOPC  H15X19645   1.284   5.808  15.348
  162DOPC  H15Y19646   1.350   5.934  15.458
  162DOPC  C31619647   1.255   6.012  15.279
  162DOPC  H16X19648   1.256   6.113  15.325
  162DOPC  H16Y19649   1.345   6.004  15.214
  162DOPC  C31719650   1.129   5.999  15.192
  162DOPC  H17X19651   1.038   6.005  15.254
  162DOPC  H17Y19652   1.125   6.088  15.125
  162DOPC  C31819653   1.125   5.873  15.105
  162DOPC  H18X19654   1.035   5.874  15.039
  162DOPC  H18Y19655   1.215   5.867  15.041
  162DOPC  H18Z19656   1.120   5.782  15.169
  163DOPC     N19657   0.247   2.795  16.904
  163DOPC   C1219658   0.336   2.713  16.811
  163DOPC  H12A19659   0.280   2.682  16.724
  163DOPC  H12B19660   0.367   2.623  16.862
  163DOPC   C1319661   0.123   2.720  16.940
  163DOPC  H13A19662   0.062   2.776  17.009
  163DOPC  H13B19663   0.066   2.698  16.851
  163DOPC  H13C19664   0.150   2.627  16.988
  163DOPC   C1419665   0.212   2.925  16.838
  163DOPC  H14A19666   0.302   2.972  16.803
  163DOPC  H14B19667   0.148   2.910  16.752
  163DOPC  H14C19668   0.163   2.993  16.906
  163DOPC   C1519669   0.321   2.827  17.030
  163DOPC  H15A19670   0.265   2.885  17.102
  163DOPC  H15B19671   0.411   2.882  17.005
  163DOPC  H15C19672   0.361   2.738  17.077
  163DOPC   C1119673   0.468   2.776  16.760
  163DOPC  H11A19674   0.514   2.708  16.684
  163DOPC  H11B19675   0.446   2.870  16.705
  163DOPC     P19676   0.627   2.684  16.949
  163DOPC   O1319677   0.568   2.689  17.085
  163DOPC   O1419678   0.774   2.692  16.938
  163DOPC   O1219679   0.560   2.802  16.865
  163DOPC   O1119680   0.570   2.554  16.879
  163DOPC    C119681   0.657   2.446  16.843
  163DOPC    HA19682   0.633   2.358  16.907
  163DOPC    HB19683   0.765   2.468  16.858
  163DOPC    C219684   0.640   2.405  16.695
  163DOPC    HS19685   0.699   2.312  16.681
  163DOPC   O2119686   0.688   2.514  16.613
  163DOPC   C2119687   0.762   2.477  16.511
  163DOPC   O2219688   0.796   2.364  16.484
  163DOPC   C2219689   0.796   2.599  16.427
  163DOPC   H2R19690   0.902   2.586  16.396
  163DOPC   H2S19691   0.784   2.693  16.485
  163DOPC    C319692   0.492   2.375  16.661
  163DOPC    HX19693   0.430   2.459  16.698
  163DOPC    HY19694   0.463   2.286  16.720
  163DOPC   O3119695   0.472   2.347  16.520
  163DOPC   C3119696   0.423   2.447  16.448
  163DOPC   O3219697   0.383   2.553  16.493
  163DOPC   C3219698   0.421   2.407  16.300
  163DOPC   H2X19699   0.526   2.390  16.269
  163DOPC   H2Y19700   0.367   2.310  16.290
  163DOPC   C2319701   0.712   2.599  16.300
  163DOPC   H3R19702   0.606   2.622  16.325
  163DOPC   H3S19703   0.717   2.498  16.255
  163DOPC   C2419704   0.759   2.697  16.192
  163DOPC   H4R19705   0.866   2.679  16.167
  163DOPC   H4S19706   0.749   2.802  16.227
  163DOPC   C2519707   0.669   2.669  16.072
  163DOPC   H5R19708   0.565   2.695  16.099
  163DOPC   H5S19709   0.674   2.560  16.055
  163DOPC   C2619710   0.704   2.734  15.940
  163DOPC   H6R19711   0.809   2.708  15.914
  163DOPC   H6S19712   0.695   2.845  15.943
  163DOPC   C2719713   0.606   2.681  15.835
  163DOPC   H7R19714   0.512   2.739  15.836
  163DOPC   H7S19715   0.578   2.577  15.863
  163DOPC   C2819716   0.669   2.671  15.697
  163DOPC   H8R19717   0.648   2.568  15.660
  163DOPC   H8S19718   0.780   2.674  15.708
  163DOPC   C2919719   0.627   2.773  15.595
  163DOPC   H9R19720   0.714   2.810  15.539
  163DOPC  C21019721   0.506   2.823  15.563
  163DOPC  H10R19722   0.507   2.905  15.489
  163DOPC  C21119723   0.366   2.799  15.613
  163DOPC  H11R19724   0.344   2.854  15.707
  163DOPC  H11S19725   0.348   2.692  15.639
  163DOPC  C21219726   0.267   2.849  15.504
  163DOPC  H12R19727   0.321   2.861  15.407
  163DOPC  H12S19728   0.232   2.951  15.530
  163DOPC  C21319729   0.147   2.758  15.476
  163DOPC  H13R19730   0.070   2.773  15.555
  163DOPC  H13S19731   0.177   2.651  15.480
  163DOPC  C21419732   0.083   2.781  15.337
  163DOPC  H14R19733   0.034   2.880  15.335
  163DOPC  H14S19734   0.004   2.704  15.322
  163DOPC  C21519735   0.180   2.774  15.216
  163DOPC  H15R19736   0.238   2.868  15.209
  163DOPC  H15S19737   0.118   2.768  15.124
  163DOPC  C21619738   0.279   2.657  15.218
  163DOPC  H16R19739   0.226   2.564  15.247
  163DOPC  H16S19740   0.356   2.677  15.296
  163DOPC  C21719741   0.349   2.637  15.082
  163DOPC  H17R19742   0.437   2.704  15.075
  163DOPC  H17S19743   0.275   2.670  15.006
  163DOPC  C21819744   0.386   2.494  15.043
  163DOPC  H18R19745   0.349   2.423  15.120
  163DOPC  H18S19746   0.496   2.481  15.031
  163DOPC  H18T19747   0.339   2.467  14.947
  163DOPC   C3319748   0.355   2.515  16.210
  163DOPC   H3X19749   0.399   2.613  16.236
  163DOPC   H3Y19750   0.246   2.522  16.230
  163DOPC   C3419751   0.378   2.494  16.060
  163DOPC   H4X19752   0.484   2.470  16.040
  163DOPC   H4Y19753   0.356   2.591  16.010
  163DOPC   C3519754   0.289   2.388  15.992
  163DOPC   H5X19755   0.274   2.423  15.887
  163DOPC   H5Y19756   0.189   2.384  16.041
  163DOPC   C3619757   0.353   2.249  15.985
  163DOPC   H6X19758   0.452   2.258  15.935
  163DOPC   H6Y19759   0.373   2.212  16.088
  163DOPC   C3719760   0.268   2.145  15.911
  163DOPC   H7X19761   0.321   2.047  15.913
  163DOPC   H7Y19762   0.174   2.132  15.969
  163DOPC   C3819763   0.230   2.181  15.765
  163DOPC   H8X19764   0.189   2.284  15.758
  163DOPC   H8Y19765   0.145   2.113  15.739
  163DOPC   C3919766   0.342   2.157  15.666
  163DOPC   H9X19767   0.398   2.065  15.687
  163DOPC  C31019768   0.381   2.229  15.558
  163DOPC  H10X19769   0.464   2.189  15.498
  163DOPC  C31119770   0.327   2.357  15.501
  163DOPC  H11X19771   0.234   2.385  15.554
  163DOPC  H11Y19772   0.299   2.343  15.394
  163DOPC  C31219773   0.421   2.478  15.511
  163DOPC  H12X19774   0.454   2.491  15.617
  163DOPC  H12Y19775   0.355   2.564  15.488
  163DOPC  C31319776   0.540   2.504  15.415
  163DOPC  H13X19777   0.524   2.601  15.364
  163DOPC  H13Y19778   0.634   2.521  15.471
  163DOPC  C31419779   0.576   2.402  15.308
  163DOPC  H14X19780   0.611   2.309  15.358
  163DOPC  H14Y19781   0.487   2.372  15.250
  163DOPC  C31519782   0.685   2.465  15.218
  163DOPC  H15X19783   0.760   2.516  15.282
  163DOPC  H15Y19784   0.639   2.546  15.158
  163DOPC  C31619785   0.762   2.369  15.126
  163DOPC  H16X19786   0.805   2.429  15.043
  163DOPC  H16Y19787   0.849   2.328  15.181
  163DOPC  C31719788   0.682   2.251  15.071
  163DOPC  H17X19789   0.620   2.206  15.151
  163DOPC  H17Y19790   0.613   2.287  14.991
  163DOPC  C31819791   0.773   2.141  15.016
  163DOPC  H18X19792   0.821   2.085  15.099
  163DOPC  H18Y19793   0.715   2.069  14.954
  163DOPC  H18Z19794   0.854   2.184  14.954
  164DOPC     N19795   1.158   1.321  17.017
  164DOPC   C1219796   1.246   1.309  16.893
  164DOPC  H12A19797   1.334   1.370  16.905
  164DOPC  H12B19798   1.191   1.345  16.807
  164DOPC   C1319799   1.236   1.282  17.139
  164DOPC  H13A19800   1.324   1.343  17.151
  164DOPC  H13B19801   1.175   1.294  17.228
  164DOPC  H13C19802   1.267   1.179  17.132
  164DOPC   C1419803   1.040   1.229  17.006
  164DOPC  H14A19804   0.978   1.256  16.922
  164DOPC  H14B19805   1.076   1.129  16.984
  164DOPC  H14C19806   0.983   1.228  17.098
  164DOPC   C1519807   1.106   1.459  17.035
  164DOPC  H15A19808   1.047   1.492  16.951
  164DOPC  H15B19809   1.186   1.530  17.054
  164DOPC  H15C19810   1.043   1.466  17.122
  164DOPC   C1119811   1.292   1.167  16.852
  164DOPC  H11A19812   1.365   1.175  16.768
  164DOPC  H11B19813   1.343   1.118  16.937
  164DOPC     P19814   1.184   0.937  16.788
  164DOPC   O1319815   1.049   0.894  16.747
  164DOPC   O1419816   1.238   0.879  16.912
  164DOPC   O1219817   1.178   1.094  16.808
  164DOPC   O1119818   1.288   0.922  16.670
  164DOPC    C119819   1.425   0.890  16.696
  164DOPC    HA19820   1.432   0.785  16.733
  164DOPC    HB19821   1.468   0.957  16.772
  164DOPC    C219822   1.514   0.902  16.568
  164DOPC    HS19823   1.616   0.871  16.599
  164DOPC   O2119824   1.515   1.040  16.525
  164DOPC   C2119825   1.607   1.064  16.434
  164DOPC   O2219826   1.704   0.994  16.411
  164DOPC   C2219827   1.573   1.193  16.361
  164DOPC   H2R19828   1.627   1.276  16.411
  164DOPC   H2S19829   1.464   1.209  16.367
  164DOPC    C319830   1.469   0.807  16.452
  164DOPC    HX19831   1.471   0.705  16.497
  164DOPC    HY19832   1.545   0.805  16.371
  164DOPC   O3119833   1.335   0.835  16.405
  164DOPC   C3119834   1.325   0.899  16.289
  164DOPC   O3219835   1.416   0.917  16.211
  164DOPC   C3219836   1.182   0.949  16.270
  164DOPC   H2X19837   1.116   0.861  16.253
  164DOPC   H2Y19838   1.152   0.995  16.367
  164DOPC   C2319839   1.615   1.181  16.214
  164DOPC   H3R19840   1.574   1.089  16.168
  164DOPC   H3S19841   1.726   1.173  16.205
  164DOPC   C2419842   1.565   1.299  16.132
  164DOPC   H4R19843   1.613   1.392  16.171
  164DOPC   H4S19844   1.455   1.311  16.143
  164DOPC   C2519845   1.598   1.281  15.984
  164DOPC   H5R19846   1.700   1.237  15.975
  164DOPC   H5S19847   1.601   1.381  15.936
  164DOPC   C2619848   1.497   1.195  15.907
  164DOPC   H6R19849   1.409   1.258  15.882
  164DOPC   H6S19850   1.460   1.112  15.971
  164DOPC   C2719851   1.558   1.134  15.779
  164DOPC   H7R19852   1.593   1.031  15.802
  164DOPC   H7S19853   1.648   1.194  15.754
  164DOPC   C2819854   1.465   1.133  15.657
  164DOPC   H8R19855   1.369   1.083  15.683
  164DOPC   H8S19856   1.514   1.074  15.576
  164DOPC   C2919857   1.446   1.275  15.612
  164DOPC   H9R19858   1.541   1.331  15.610
  164DOPC  C21019859   1.340   1.335  15.557
  164DOPC  H10R19860   1.347   1.440  15.526
  164DOPC  C21119861   1.211   1.267  15.523
  164DOPC  H11R19862   1.124   1.313  15.575
  164DOPC  H11S19863   1.213   1.159  15.548
  164DOPC  C21219864   1.196   1.282  15.370
  164DOPC  H12R19865   1.164   1.384  15.343
  164DOPC  H12S19866   1.114   1.213  15.343
  164DOPC  C21319867   1.324   1.247  15.289
  164DOPC  H13R19868   1.385   1.177  15.348
  164DOPC  H13S19869   1.387   1.337  15.270
  164DOPC  C21419870   1.290   1.174  15.160
  164DOPC  H14R19871   1.185   1.140  15.174
  164DOPC  H14S19872   1.351   1.082  15.152
  164DOPC  C21519873   1.290   1.252  15.030
  164DOPC  H15R19874   1.393   1.281  15.000
  164DOPC  H15S19875   1.236   1.348  15.048
  164DOPC  C21619876   1.221   1.179  14.912
  164DOPC  H16R19877   1.299   1.138  14.844
  164DOPC  H16S19878   1.167   1.258  14.856
  164DOPC  C21719879   1.123   1.062  14.933
  164DOPC  H17R19880   1.074   1.062  15.033
  164DOPC  H17S19881   1.177   0.966  14.926
  164DOPC  C21819882   1.010   1.067  14.829
  164DOPC  H18R19883   1.048   1.040  14.728
  164DOPC  H18S19884   0.966   1.168  14.823
  164DOPC  H18T19885   0.928   0.997  14.856
  164DOPC   C3319886   1.164   1.054  16.157
  164DOPC   H3X19887   1.258   1.112  16.139
  164DOPC   H3Y19888   1.089   1.127  16.193
  164DOPC   C3419889   1.112   0.997  16.023
  164DOPC   H4X19890   1.026   0.931  16.047
  164DOPC   H4Y19891   1.190   0.934  15.977
  164DOPC   C3519892   1.063   1.103  15.921
  164DOPC   H5X19893   1.145   1.129  15.851
  164DOPC   H5Y19894   1.038   1.195  15.979
  164DOPC   C3619895   0.935   1.064  15.842
  164DOPC   H6X19896   0.870   1.006  15.911
  164DOPC   H6Y19897   0.881   1.156  15.811
  164DOPC   C3719898   0.957   0.975  15.719
  164DOPC   H7X19899   1.012   1.040  15.647
  164DOPC   H7Y19900   1.030   0.897  15.751
  164DOPC   C3819901   0.832   0.913  15.647
  164DOPC   H8X19902   0.835   0.961  15.546
  164DOPC   H8Y19903   0.749   0.968  15.695
  164DOPC   C3919904   0.774   0.770  15.617
  164DOPC   H9X19905   0.669   0.774  15.650
  164DOPC  C31019906   0.812   0.639  15.585
  164DOPC  H10X19907   0.725   0.572  15.579
  164DOPC  C31119908   0.934   0.558  15.529
  164DOPC  H11X19909   0.913   0.455  15.564
  164DOPC  H11Y19910   1.025   0.582  15.589
  164DOPC  C31219911   0.975   0.537  15.379
  164DOPC  H12X19912   0.927   0.618  15.320
  164DOPC  H12Y19913   0.918   0.447  15.349
  164DOPC  C31319914   1.122   0.511  15.318
  164DOPC  H13X19915   1.126   0.400  15.306
  164DOPC  H13Y19916   1.117   0.557  15.217
  164DOPC  C31419917   1.268   0.550  15.367
  164DOPC  H14X19918   1.291   0.485  15.453
  164DOPC  H14Y19919   1.277   0.656  15.401
  164DOPC  C31519920   1.394   0.548  15.272
  164DOPC  H15X19921   1.414   0.446  15.235
  164DOPC  H15Y19922   1.480   0.573  15.339
  164DOPC  C31619923   1.406   0.654  15.158
  164DOPC  H16X19924   1.311   0.656  15.100
  164DOPC  H16Y19925   1.414   0.754  15.206
  164DOPC  C31719926   1.527   0.644  15.059
  164DOPC  H17X19927   1.498   0.609  14.957
  164DOPC  H17Y19928   1.562   0.744  15.028
  164DOPC  C31819929   1.646   0.557  15.097
  164DOPC  H18X19930   1.664   0.559  15.206
  164DOPC  H18Y19931   1.630   0.451  15.065
  164DOPC  H18Z19932   1.736   0.594  15.044
  165DOPC     N19933   6.121   0.753  17.083
  165DOPC   C1219934   6.110   0.627  16.999
  165DOPC  H12A19935   6.009   0.588  17.006
  165DOPC  H12B19936   6.177   0.551  17.035
  165DOPC   C1319937   6.212   0.851  17.016
  165DOPC  H13A19938   6.310   0.808  17.002
  165DOPC  H13B19939   6.172   0.869  16.918
  165DOPC  H13C19940   6.216   0.945  17.069
  165DOPC   C1419941   6.171   0.720  17.220
  165DOPC  H14A19942   6.269   0.675  17.214
  165DOPC  H14B19943   6.176   0.809  17.281
  165DOPC  H14C19944   6.104   0.649  17.268
  165DOPC   C1519945   5.986   0.819  17.089
  165DOPC  H15A19946   5.954   0.840  16.988
  165DOPC  H15B19947   5.991   0.914  17.141
  165DOPC  H15C19948   5.912   0.757  17.136
  165DOPC   C1119949   6.140   0.643  16.848
  165DOPC  H11A19950   6.249   0.660  16.834
  165DOPC  H11B19951   6.119   0.546  16.798
  165DOPC     P19952   5.945   0.726  16.699
  165DOPC   O1319953   5.880   0.855  16.670
  165DOPC   O1419954   5.863   0.622  16.766
  165DOPC   O1219955   6.069   0.753  16.792
  165DOPC   O1119956   6.014   0.667  16.570
  165DOPC    C119957   6.150   0.691  16.532
  165DOPC    HA19958   6.176   0.619  16.452
  165DOPC    HB19959   6.222   0.671  16.615
  165DOPC    C219960   6.176   0.833  16.476
  165DOPC    HS19961   6.156   0.907  16.556
  165DOPC   O2119962   6.086   0.848  16.367
  165DOPC   C2119963   6.046   0.969  16.338
  165DOPC   O2219964   6.089   1.073  16.386
  165DOPC   C2219965   5.935   0.958  16.234
  165DOPC   H2R19966   5.944   1.045  16.165
  165DOPC   H2S19967   5.839   0.964  16.288
  165DOPC    C319968   6.324   0.848  16.428
  165DOPC    HX19969   6.342   0.765  16.355
  165DOPC    HY19970   6.393   0.830  16.513
  165DOPC   O3119971   6.352   0.972  16.360
  165DOPC   C3119972   6.391   1.072  16.436
  165DOPC   O3219973   6.405   1.069  16.557
  165DOPC   C3219974   6.434   1.192  16.351
  165DOPC   H2X19975   6.359   1.273  16.365
  165DOPC   H2Y19976   6.530   1.228  16.394
  165DOPC   C2319977   5.940   0.826  16.152
  165DOPC   H3R19978   5.847   0.819  16.092
  165DOPC   H3S19979   5.942   0.737  16.219
  165DOPC   C2419980   6.062   0.822  16.058
  165DOPC   H4R19981   6.155   0.820  16.118
  165DOPC   H4S19982   6.062   0.917  16.000
  165DOPC   C2519983   6.063   0.704  15.960
  165DOPC   H5R19984   6.075   0.610  16.018
  165DOPC   H5S19985   6.153   0.714  15.896
  165DOPC   C2619986   5.938   0.691  15.869
  165DOPC   H6R19987   5.857   0.645  15.929
  165DOPC   H6S19988   5.963   0.620  15.787
  165DOPC   C2719989   5.882   0.822  15.806
  165DOPC   H7R19990   5.854   0.889  15.890
  165DOPC   H7S19991   5.790   0.799  15.747
  165DOPC   C2819992   5.985   0.892  15.715
  165DOPC   H8R19993   6.004   0.826  15.628
  165DOPC   H8S19994   6.071   0.884  15.785
  165DOPC   C2919995   5.988   1.039  15.676
  165DOPC   H9R19996   5.988   1.108  15.762
  165DOPC  C21019997   6.009   1.093  15.554
  165DOPC  H10R19998   6.011   1.203  15.546
  165DOPC  C21119999   6.033   1.021  15.424
  165DOPC  H11R20000   5.941   1.030  15.362
  165DOPC  H11S20001   6.050   0.912  15.438
  165DOPC  C21220002   6.151   1.079  15.342
  165DOPC  H12R20003   6.178   1.181  15.373
  165DOPC  H12S20004   6.116   1.087  15.236
  165DOPC  C21320005   6.275   0.989  15.342
  165DOPC  H13R20006   6.247   0.883  15.323
  165DOPC  H13S20007   6.322   0.996  15.442
  165DOPC  C21420008   6.381   1.032  15.239
  165DOPC  H14R20009   6.414   1.134  15.268
  165DOPC  H14S20010   6.333   1.043  15.140
  165DOPC  C21520011   6.503   0.939  15.235
  165DOPC  H15R20012   6.480   0.846  15.179
  165DOPC  H15S20013   6.529   0.910  15.340
  165DOPC  C21620014   6.627   1.008  15.176
  165DOPC  H16R20015   6.644   1.100  15.237
  165DOPC  H16S20016   6.610   1.042  15.072
  165DOPC  C21720017   6.756   0.926  15.182
  165DOPC  H17R20018   6.747   0.841  15.111
  165DOPC  H17S20019   6.768   0.885  15.284
  165DOPC  C21820020   6.881   1.008  15.146
  165DOPC  H18R20021   6.972   0.944  15.146
  165DOPC  H18S20022   6.896   1.090  15.218
  165DOPC  H18T20023   6.870   1.051  15.044
  165DOPC   C3320024   6.455   1.163  16.200
  165DOPC   H3X20025   6.477   1.056  16.178
  165DOPC   H3Y20026   6.543   1.221  16.165
  165DOPC   C3420027   6.341   1.215  16.113
  165DOPC   H4X20028   6.333   1.323  16.138
  165DOPC   H4Y20029   6.246   1.165  16.141
  165DOPC   C3520030   6.365   1.205  15.962
  165DOPC   H5X20031   6.473   1.218  15.939
  165DOPC   H5Y20032   6.310   1.287  15.911
  165DOPC   C3620033   6.313   1.072  15.905
  165DOPC   H6X20034   6.373   0.989  15.948
  165DOPC   H6Y20035   6.209   1.057  15.942
  165DOPC   C3720036   6.307   1.066  15.752
  165DOPC   H7X20037   6.391   1.117  15.699
  165DOPC   H7Y20038   6.220   1.130  15.723
  165DOPC   C3820039   6.290   0.923  15.696
  165DOPC   H8X20040   6.211   0.928  15.618
  165DOPC   H8Y20041   6.256   0.864  15.784
  165DOPC   C3920042   6.394   0.837  15.634
  165DOPC   H9X20043   6.480   0.890  15.590
  165DOPC  C31020044   6.376   0.707  15.608
  165DOPC  H10X20045   6.461   0.648  15.572
  165DOPC  C31120046   6.253   0.626  15.633
  165DOPC  H11X20047   6.162   0.689  15.632
  165DOPC  H11Y20048   6.258   0.573  15.731
  165DOPC  C31220049   6.243   0.524  15.519
  165DOPC  H12X20050   6.328   0.453  15.526
  165DOPC  H12Y20051   6.253   0.573  15.420
  165DOPC  C31320052   6.113   0.445  15.523
  165DOPC  H13X20053   6.126   0.356  15.458
  165DOPC  H13Y20054   6.095   0.408  15.626
  165DOPC  C31420055   5.990   0.523  15.473
  165DOPC  H14X20056   5.903   0.455  15.482
  165DOPC  H14Y20057   5.971   0.612  15.536
  165DOPC  C31520058   6.001   0.567  15.326
  165DOPC  H15X20059   6.048   0.484  15.269
  165DOPC  H15Y20060   6.069   0.654  15.315
  165DOPC  C31620061   5.865   0.597  15.262
  165DOPC  H16X20062   5.785   0.555  15.328
  165DOPC  H16Y20063   5.849   0.707  15.257
  165DOPC  C31720064   5.847   0.533  15.124
  165DOPC  H17X20065   5.869   0.425  15.131
  165DOPC  H17Y20066   5.741   0.543  15.094
  165DOPC  C31820067   5.933   0.595  15.014
  165DOPC  H18X20068   5.899   0.698  14.993
  165DOPC  H18Y20069   6.040   0.598  15.043
  165DOPC  H18Z20070   5.924   0.537  14.919
  166DOPC     N20071   7.314   2.622  16.851
  166DOPC   C1220072   7.345   2.542  16.977
  166DOPC  H12A20073   7.260   2.478  16.997
  166DOPC  H12B20074   7.356   2.610  17.061
  166DOPC   C1320075   7.198   2.714  16.875
  166DOPC  H13A20076   7.110   2.657  16.899
  166DOPC  H13B20077   7.218   2.782  16.956
  166DOPC  H13C20078   7.176   2.771  16.786
  166DOPC   C1420079   7.277   2.525  16.741
  166DOPC  H14A20080   7.253   2.575  16.648
  166DOPC  H14B20081   7.360   2.458  16.723
  166DOPC  H14C20082   7.196   2.461  16.771
  166DOPC   C1520083   7.433   2.699  16.804
  166DOPC  H15A20084   7.510   2.630  16.772
  166DOPC  H15B20085   7.474   2.761  16.883
  166DOPC  H15C20086   7.410   2.761  16.719
  166DOPC   C1120087   7.467   2.447  16.975
  166DOPC  H11A20088   7.557   2.500  16.940
  166DOPC  H11B20089   7.491   2.410  17.077
  166DOPC     P20090   7.337   2.224  16.922
  166DOPC   O1320091   7.206   2.290  16.940
  166DOPC   O1420092   7.384   2.137  17.032
  166DOPC   O1220093   7.443   2.337  16.891
  166DOPC   O1120094   7.340   2.144  16.785
  166DOPC    C120095   7.460   2.144  16.707
  166DOPC    HA20096   7.535   2.076  16.753
  166DOPC    HB20097   7.508   2.244  16.698
  166DOPC    C220098   7.435   2.092  16.562
  166DOPC    HS20099   7.530   2.097  16.504
  166DOPC   O2120100   7.332   2.166  16.492
  166DOPC   C2120101   7.361   2.293  16.463
  166DOPC   O2220102   7.459   2.354  16.501
  166DOPC   C2220103   7.252   2.359  16.378
  166DOPC   H2R20104   7.254   2.468  16.401
  166DOPC   H2S20105   7.153   2.318  16.410
  166DOPC    C320106   7.399   1.941  16.575
  166DOPC    HX20107   7.328   1.928  16.659
  166DOPC    HY20108   7.492   1.886  16.602
  166DOPC   O3120109   7.350   1.890  16.451
  166DOPC   C3120110   7.218   1.896  16.439
  166DOPC   O3220111   7.138   1.899  16.530
  166DOPC   C3220112   7.184   1.902  16.291
  166DOPC   H2X20113   7.164   1.800  16.253
  166DOPC   H2Y20114   7.090   1.961  16.280
  166DOPC   C2320115   7.268   2.343  16.225
  166DOPC   H3R20116   7.182   2.392  16.175
  166DOPC   H3S20117   7.260   2.235  16.199
  166DOPC   C2420118   7.397   2.400  16.165
  166DOPC   H4R20119   7.485   2.371  16.227
  166DOPC   H4S20120   7.391   2.511  16.165
  166DOPC   C2520121   7.427   2.353  16.021
  166DOPC   H5R20122   7.458   2.247  16.022
  166DOPC   H5S20123   7.514   2.411  15.982
  166DOPC   C2620124   7.311   2.369  15.922
  166DOPC   H6R20125   7.270   2.472  15.927
  166DOPC   H6S20126   7.229   2.298  15.948
  166DOPC   C2720127   7.355   2.340  15.778
  166DOPC   H7R20128   7.407   2.242  15.778
  166DOPC   H7S20129   7.429   2.417  15.747
  166DOPC   C2820130   7.240   2.336  15.676
  166DOPC   H8R20131   7.189   2.435  15.672
  166DOPC   H8S20132   7.165   2.262  15.710
  166DOPC   C2920133   7.295   2.294  15.543
  166DOPC   H9R20134   7.364   2.209  15.548
  166DOPC  C21020135   7.271   2.348  15.422
  166DOPC  H10R20136   7.318   2.300  15.335
  166DOPC  C21120137   7.183   2.465  15.390
  166DOPC  H11R20138   7.207   2.551  15.457
  166DOPC  H11S20139   7.076   2.438  15.409
  166DOPC  C21220140   7.196   2.512  15.244
  166DOPC  H12R20141   7.130   2.599  15.224
  166DOPC  H12S20142   7.163   2.430  15.176
  166DOPC  C21320143   7.340   2.552  15.210
  166DOPC  H13R20144   7.400   2.462  15.235
  166DOPC  H13S20145   7.374   2.635  15.276
  166DOPC  C21420146   7.364   2.588  15.063
  166DOPC  H14R20147   7.317   2.686  15.038
  166DOPC  H14S20148   7.315   2.511  15.000
  166DOPC  C21520149   7.515   2.592  15.027
  166DOPC  H15R20150   7.560   2.687  15.064
  166DOPC  H15S20151   7.526   2.589  14.917
  166DOPC  C21620152   7.590   2.474  15.090
  166DOPC  H16R20153   7.531   2.381  15.071
  166DOPC  H16S20154   7.597   2.488  15.200
  166DOPC  C21720155   7.732   2.449  15.042
  166DOPC  H17R20156   7.792   2.537  15.073
  166DOPC  H17S20157   7.738   2.446  14.931
  166DOPC  C21820158   7.788   2.320  15.101
  166DOPC  H18R20159   7.809   2.333  15.210
  166DOPC  H18S20160   7.880   2.288  15.049
  166DOPC  H18T20161   7.713   2.238  15.090
  166DOPC   C3320162   7.296   1.971  16.211
  166DOPC   H3X20163   7.383   1.902  16.199
  166DOPC   H3Y20164   7.334   2.059  16.266
  166DOPC   C3420165   7.245   2.016  16.075
  166DOPC   H4X20166   7.308   2.099  16.036
  166DOPC   H4Y20167   7.140   2.052  16.080
  166DOPC   C3520168   7.259   1.901  15.977
  166DOPC   H5X20169   7.204   1.813  16.016
  166DOPC   H5Y20170   7.366   1.873  15.978
  166DOPC   C3620171   7.213   1.941  15.837
  166DOPC   H6X20172   7.102   1.954  15.837
  166DOPC   H6Y20173   7.254   2.041  15.811
  166DOPC   C3720174   7.258   1.840  15.730
  166DOPC   H7X20175   7.203   1.744  15.741
  166DOPC   H7Y20176   7.234   1.879  15.629
  166DOPC   C3820177   7.408   1.812  15.736
  166DOPC   H8X20178   7.437   1.752  15.647
  166DOPC   H8Y20179   7.429   1.749  15.825
  166DOPC   C3920180   7.488   1.939  15.749
  166DOPC   H9X20181   7.515   1.969  15.851
  166DOPC  C31020182   7.525   2.016  15.647
  166DOPC  H10X20183   7.583   2.108  15.666
  166DOPC  C31120184   7.491   1.986  15.504
  166DOPC  H11X20185   7.388   2.019  15.478
  166DOPC  H11Y20186   7.496   1.877  15.483
  166DOPC  C31220187   7.592   2.059  15.417
  166DOPC  H12X20188   7.696   2.023  15.437
  166DOPC  H12Y20189   7.591   2.168  15.438
  166DOPC  C31320190   7.562   2.040  15.270
  166DOPC  H13X20191   7.468   2.098  15.253
  166DOPC  H13Y20192   7.642   2.090  15.211
  166DOPC  C31420193   7.541   1.896  15.221
  166DOPC  H14X20194   7.623   1.829  15.257
  166DOPC  H14Y20195   7.447   1.857  15.264
  166DOPC  C31520196   7.534   1.884  15.067
  166DOPC  H15X20197   7.476   1.793  15.041
  166DOPC  H15Y20198   7.636   1.867  15.026
  166DOPC  C31620199   7.475   2.008  14.998
  166DOPC  H16X20200   7.542   2.094  15.017
  166DOPC  H16Y20201   7.474   1.992  14.888
  166DOPC  C31720202   7.333   2.044  15.045
  166DOPC  H17X20203   7.260   2.003  14.972
  166DOPC  H17Y20204   7.318   1.991  15.142
  166DOPC  C31820205   7.299   2.190  15.075
  166DOPC  H18X20206   7.383   2.241  15.128
  166DOPC  H18Y20207   7.277   2.247  14.982
  166DOPC  H18Z20208   7.209   2.195  15.140
  167DOPC     N20209   6.513   1.210  16.871
  167DOPC   C1220210   6.639   1.195  16.788
  167DOPC  H12A20211   6.704   1.278  16.808
  167DOPC  H12B20212   6.612   1.197  16.683
  167DOPC   C1320213   6.435   1.330  16.829
  167DOPC  H13A20214   6.492   1.421  16.837
  167DOPC  H13B20215   6.397   1.318  16.729
  167DOPC  H13C20216   6.347   1.338  16.892
  167DOPC   C1420217   6.550   1.222  17.015
  167DOPC  H14A20218   6.463   1.236  17.077
  167DOPC  H14B20219   6.605   1.134  17.045
  167DOPC  H14C20220   6.617   1.305  17.031
  167DOPC   C1520221   6.420   1.094  16.854
  167DOPC  H15A20222   6.399   1.077  16.749
  167DOPC  H15B20223   6.326   1.115  16.902
  167DOPC  H15C20224   6.465   1.004  16.895
  167DOPC   C1120225   6.725   1.069  16.812
  167DOPC  H11A20226   6.664   0.979  16.788
  167DOPC  H11B20227   6.807   1.068  16.737
  167DOPC     P20228   6.902   1.142  16.983
  167DOPC   O1320229   6.956   1.091  17.110
  167DOPC   O1420230   6.871   1.287  16.968
  167DOPC   O1220231   6.773   1.059  16.946
  167DOPC   O1120232   6.998   1.086  16.872
  167DOPC    C120233   7.106   1.159  16.815
  167DOPC    HA20234   7.203   1.115  16.847
  167DOPC    HB20235   7.106   1.266  16.845
  167DOPC    C220236   7.100   1.153  16.660
  167DOPC    HS20237   7.179   1.221  16.622
  167DOPC   O2120238   6.971   1.193  16.614
  167DOPC   C2120239   6.955   1.320  16.589
  167DOPC   O2220240   7.024   1.413  16.627
  167DOPC   C2220241   6.842   1.325  16.488
  167DOPC   H2R20242   6.746   1.301  16.539
  167DOPC   H2S20243   6.864   1.244  16.416
  167DOPC    C320244   7.129   1.012  16.600
  167DOPC    HX20245   7.191   0.952  16.670
  167DOPC    HY20246   7.193   1.032  16.511
  167DOPC   O3120247   7.010   0.944  16.552
  167DOPC   C3120248   6.957   0.855  16.633
  167DOPC   O3220249   7.009   0.810  16.734
  167DOPC   C3220250   6.815   0.817  16.589
  167DOPC   H2X20251   6.824   0.728  16.523
  167DOPC   H2Y20252   6.764   0.785  16.682
  167DOPC   C2320253   6.833   1.458  16.412
  167DOPC   H3R20254   6.933   1.489  16.377
  167DOPC   H3S20255   6.796   1.539  16.480
  167DOPC   C2420256   6.740   1.447  16.290
  167DOPC   H4R20257   6.752   1.539  16.230
  167DOPC   H4S20258   6.635   1.443  16.325
  167DOPC   C2520259   6.766   1.325  16.199
  167DOPC   H5R20260   6.700   1.335  16.110
  167DOPC   H5S20261   6.735   1.232  16.253
  167DOPC   C2620262   6.909   1.305  16.149
  167DOPC   H6R20263   6.934   1.196  16.147
  167DOPC   H6S20264   6.982   1.354  16.217
  167DOPC   C2720265   6.925   1.362  16.009
  167DOPC   H7R20266   7.033   1.385  15.992
  167DOPC   H7S20267   6.865   1.455  16.005
  167DOPC   C2820268   6.877   1.272  15.897
  167DOPC   H8R20269   6.768   1.254  15.909
  167DOPC   H8S20270   6.926   1.172  15.907
  167DOPC   C2920271   6.903   1.336  15.763
  167DOPC   H9R20272   6.838   1.422  15.739
  167DOPC  C21020273   6.989   1.293  15.670
  167DOPC  H10R20274   6.996   1.346  15.573
  167DOPC  C21120275   7.079   1.174  15.684
  167DOPC  H11R20276   7.102   1.159  15.791
  167DOPC  H11S20277   7.174   1.211  15.639
  167DOPC  C21220278   7.043   1.034  15.612
  167DOPC  H12R20279   6.961   1.041  15.687
  167DOPC  H12S20280   7.147   1.008  15.641
  167DOPC  C21320281   7.026   0.877  15.645
  167DOPC  H13R20282   6.928   0.844  15.605
  167DOPC  H13S20283   7.019   0.862  15.755
  167DOPC  C21420284   7.135   0.777  15.597
  167DOPC  H14R20285   7.145   0.699  15.675
  167DOPC  H14S20286   7.234   0.826  15.596
  167DOPC  C21520287   7.115   0.697  15.466
  167DOPC  H15R20288   7.074   0.597  15.491
  167DOPC  H15S20289   7.216   0.676  15.423
  167DOPC  C21620290   7.026   0.757  15.358
  167DOPC  H16R20291   7.080   0.837  15.302
  167DOPC  H16S20292   6.936   0.804  15.403
  167DOPC  C21720293   6.979   0.651  15.258
  167DOPC  H17R20294   6.910   0.699  15.187
  167DOPC  H17S20295   6.922   0.573  15.313
  167DOPC  C21820296   7.093   0.584  15.181
  167DOPC  H18R20297   7.051   0.511  15.109
  167DOPC  H18S20298   7.162   0.530  15.249
  167DOPC  H18T20299   7.151   0.660  15.123
  167DOPC   C3320300   6.731   0.927  16.521
  167DOPC   H3X20301   6.786   1.023  16.514
  167DOPC   H3Y20302   6.639   0.946  16.582
  167DOPC   C3420303   6.683   0.888  16.382
  167DOPC   H4X20304   6.618   0.968  16.341
  167DOPC   H4Y20305   6.623   0.795  16.388
  167DOPC   C3520306   6.800   0.870  16.286
  167DOPC   H5X20307   6.859   0.781  16.316
  167DOPC   H5Y20308   6.866   0.959  16.289
  167DOPC   C3620309   6.749   0.851  16.144
  167DOPC   H6X20310   6.689   0.939  16.113
  167DOPC   H6Y20311   6.836   0.843  16.075
  167DOPC   C3720312   6.664   0.724  16.130
  167DOPC   H7X20313   6.716   0.643  16.185
  167DOPC   H7Y20314   6.564   0.737  16.176
  167DOPC   C3820315   6.651   0.683  15.983
  167DOPC   H8X20316   6.605   0.582  15.972
  167DOPC   H8Y20317   6.754   0.677  15.942
  167DOPC   C3920318   6.567   0.787  15.918
  167DOPC   H9X20319   6.459   0.771  15.932
  167DOPC  C31020320   6.603   0.894  15.845
  167DOPC  H10X20321   6.521   0.960  15.813
  167DOPC  C31120322   6.733   0.951  15.797
  167DOPC  H11X20323   6.814   0.875  15.798
  167DOPC  H11Y20324   6.766   1.033  15.865
  167DOPC  C31220325   6.708   1.010  15.655
  167DOPC  H12X20326   6.657   0.935  15.591
  167DOPC  H12Y20327   6.799   1.030  15.595
  167DOPC  C31320328   6.637   1.145  15.661
  167DOPC  H13X20329   6.568   1.148  15.748
  167DOPC  H13Y20330   6.710   1.225  15.686
  167DOPC  C31420331   6.572   1.192  15.531
  167DOPC  H14X20332   6.526   1.107  15.477
  167DOPC  H14Y20333   6.490   1.263  15.557
  167DOPC  C31520334   6.670   1.268  15.440
  167DOPC  H15X20335   6.739   1.194  15.394
  167DOPC  H15Y20336   6.732   1.338  15.499
  167DOPC  C31620337   6.594   1.349  15.333
  167DOPC  H16X20338   6.494   1.302  15.319
  167DOPC  H16Y20339   6.571   1.451  15.371
  167DOPC  C31720340   6.662   1.359  15.197
  167DOPC  H17X20341   6.721   1.454  15.192
  167DOPC  H17Y20342   6.735   1.276  15.188
  167DOPC  C31820343   6.564   1.351  15.080
  167DOPC  H18X20344   6.608   1.292  14.997
  167DOPC  H18Y20345   6.470   1.299  15.110
  167DOPC  H18Z20346   6.538   1.452  15.042
  168DOPC     N20347   2.096   7.526  16.974
  168DOPC   C1220348   2.060   7.581  16.835
  168DOPC  H12A20349   2.035   7.498  16.771
  168DOPC  H12B20350   2.147   7.629  16.792
  168DOPC   C1320351   2.240   7.488  16.981
  168DOPC  H13A20352   2.262   7.442  17.076
  168DOPC  H13B20353   2.266   7.420  16.902
  168DOPC  H13C20354   2.304   7.575  16.971
  168DOPC   C1420355   2.009   7.408  17.002
  168DOPC  H14A20356   2.021   7.332  16.926
  168DOPC  H14B20357   2.026   7.367  17.100
  168DOPC  H14C20358   1.905   7.439  16.997
  168DOPC   C1520359   2.065   7.631  17.076
  168DOPC  H15A20360   2.124   7.720  17.061
  168DOPC  H15B20361   2.082   7.597  17.177
  168DOPC  H15C20362   1.961   7.659  17.067
  168DOPC   C1120363   1.940   7.679  16.826
  168DOPC  H11A20364   1.969   7.777  16.871
  168DOPC  H11B20365   1.919   7.701  16.719
  168DOPC     P20366   1.727   7.527  16.825
  168DOPC   O1320367   1.640   7.594  16.727
  168DOPC   O1420368   1.663   7.450  16.935
  168DOPC   O1220369   1.825   7.631  16.893
  168DOPC   O1120370   1.829   7.431  16.750
  168DOPC    C120371   1.794   7.295  16.727
  168DOPC    HA20372   1.686   7.274  16.739
  168DOPC    HB20373   1.849   7.233  16.802
  168DOPC    C220374   1.832   7.243  16.585
  168DOPC    HS20375   1.817   7.133  16.583
  168DOPC   O2120376   1.965   7.277  16.547
  168DOPC   C2120377   2.060   7.207  16.598
  168DOPC   O2220378   2.051   7.130  16.694
  168DOPC   C2220379   2.182   7.222  16.508
  168DOPC   H2R20380   2.235   7.125  16.517
  168DOPC   H2S20381   2.245   7.304  16.548
  168DOPC    C320382   1.745   7.302  16.472
  168DOPC    HX20383   1.638   7.282  16.493
  168DOPC    HY20384   1.774   7.244  16.382
  168DOPC   O3120385   1.769   7.443  16.458
  168DOPC   C3120386   1.746   7.487  16.336
  168DOPC   O3220387   1.706   7.417  16.244
  168DOPC   C3220388   1.777   7.635  16.324
  168DOPC   H2X20389   1.820   7.673  16.419
  168DOPC   H2Y20390   1.852   7.645  16.243
  168DOPC   C2320391   2.153   7.249  16.358
  168DOPC   H3R20392   2.062   7.196  16.324
  168DOPC   H3S20393   2.239   7.205  16.302
  168DOPC   C2420394   2.143   7.397  16.319
  168DOPC   H4R20395   2.188   7.462  16.397
  168DOPC   H4S20396   2.035   7.423  16.314
  168DOPC   C2520397   2.212   7.426  16.185
  168DOPC   H5R20398   2.231   7.330  16.132
  168DOPC   H5S20399   2.313   7.470  16.203
  168DOPC   C2620400   2.132   7.517  16.091
  168DOPC   H6R20401   2.185   7.614  16.079
  168DOPC   H6S20402   2.033   7.541  16.135
  168DOPC   C2720403   2.109   7.457  15.951
  168DOPC   H7R20404   2.207   7.445  15.900
  168DOPC   H7S20405   2.051   7.530  15.891
  168DOPC   C2820406   2.036   7.321  15.948
  168DOPC   H8R20407   2.101   7.242  15.993
  168DOPC   H8S20408   2.026   7.293  15.841
  168DOPC   C2920409   1.904   7.323  16.019
  168DOPC   H9R20410   1.909   7.328  16.129
  168DOPC  C21020411   1.783   7.326  15.960
  168DOPC  H10R20412   1.692   7.335  16.021
  168DOPC  C21120413   1.761   7.326  15.812
  168DOPC  H11R20414   1.661   7.286  15.786
  168DOPC  H11S20415   1.836   7.262  15.760
  168DOPC  C21220416   1.770   7.468  15.758
  168DOPC  H12R20417   1.860   7.522  15.796
  168DOPC  H12S20418   1.680   7.523  15.795
  168DOPC  C21320419   1.773   7.471  15.606
  168DOPC  H13R20420   1.720   7.561  15.568
  168DOPC  H13S20421   1.717   7.382  15.569
  168DOPC  C21420422   1.916   7.474  15.550
  168DOPC  H14R20423   1.978   7.400  15.606
  168DOPC  H14S20424   1.959   7.574  15.570
  168DOPC  C21520425   1.925   7.442  15.401
  168DOPC  H15R20426   1.949   7.334  15.392
  168DOPC  H15S20427   2.010   7.497  15.356
  168DOPC  C21620428   1.797   7.469  15.320
  168DOPC  H16R20429   1.769   7.576  15.323
  168DOPC  H16S20430   1.710   7.417  15.366
  168DOPC  C21720431   1.808   7.419  15.176
  168DOPC  H17R20432   1.899   7.356  15.164
  168DOPC  H17S20433   1.822   7.507  15.110
  168DOPC  C21820434   1.686   7.337  15.132
  168DOPC  H18R20435   1.703   7.229  15.152
  168DOPC  H18S20436   1.666   7.350  15.024
  168DOPC  H18T20437   1.596   7.367  15.189
  168DOPC   C3320438   1.648   7.713  16.288
  168DOPC   H3X20439   1.579   7.710  16.375
  168DOPC   H3Y20440   1.598   7.664  16.202
  168DOPC   C3420441   1.672   7.859  16.250
  168DOPC   H4X20442   1.714   7.913  16.338
  168DOPC   H4Y20443   1.575   7.907  16.226
  168DOPC   C3520444   1.765   7.878  16.130
  168DOPC   H5X20445   1.867   7.843  16.157
  168DOPC   H5Y20446   1.772   7.986  16.107
  168DOPC   C3620447   1.722   7.807  16.001
  168DOPC   H6X20448   1.705   7.698  16.017
  168DOPC   H6Y20449   1.626   7.851  15.966
  168DOPC   C3720450   1.829   7.825  15.894
  168DOPC   H7X20451   1.870   7.928  15.899
  168DOPC   H7Y20452   1.912   7.754  15.916
  168DOPC   C3820453   1.778   7.802  15.752
  168DOPC   H8X20454   1.710   7.714  15.750
  168DOPC   H8Y20455   1.869   7.773  15.694
  168DOPC   C3920456   1.704   7.917  15.690
  168DOPC   H9X20457   1.602   7.934  15.727
  168DOPC  C31020458   1.754   7.998  15.595
  168DOPC  H10X20459   1.691   8.078  15.554
  168DOPC  C31120460   1.892   7.986  15.536
  168DOPC  H11X20461   1.968   7.987  15.617
  168DOPC  H11Y20462   1.912   8.075  15.472
  168DOPC  C31220463   1.918   7.864  15.447
  168DOPC  H12X20464   1.903   7.767  15.499
  168DOPC  H12Y20465   2.026   7.868  15.420
  168DOPC  C31320466   1.833   7.862  15.321
  168DOPC  H13X20467   1.733   7.818  15.344
  168DOPC  H13Y20468   1.816   7.966  15.284
  168DOPC  C31420469   1.903   7.783  15.211
  168DOPC  H14X20470   1.929   7.681  15.246
  168DOPC  H14Y20471   1.833   7.771  15.126
  168DOPC  C31520472   2.034   7.849  15.168
  168DOPC  H15X20473   2.119   7.796  15.216
  168DOPC  H15Y20474   2.038   7.954  15.203
  168DOPC  C31620475   2.052   7.846  15.017
  168DOPC  H16X20476   2.154   7.880  14.989
  168DOPC  H16Y20477   2.042   7.739  14.988
  168DOPC  C31720478   1.948   7.932  14.942
  168DOPC  H17X20479   1.965   7.923  14.833
  168DOPC  H17Y20480   1.846   7.894  14.962
  168DOPC  C31820481   1.947   8.079  14.981
  168DOPC  H18X20482   2.045   8.126  14.958
  168DOPC  H18Y20483   1.867   8.131  14.923
  168DOPC  H18Z20484   1.924   8.092  15.089
  169DOPC     N20485   0.562   1.110  17.027
  169DOPC   C1220486   0.509   1.252  17.013
  169DOPC  H12A20487   0.513   1.283  16.909
  169DOPC  H12B20488   0.573   1.319  17.069
  169DOPC   C1320489   0.491   1.020  16.931
  169DOPC  H13A20490   0.508   0.916  16.953
  169DOPC  H13B20491   0.385   1.040  16.936
  169DOPC  H13C20492   0.521   1.039  16.829
  169DOPC   C1420493   0.532   1.064  17.166
  169DOPC  H14A20494   0.572   0.966  17.185
  169DOPC  H14B20495   0.570   1.135  17.237
  169DOPC  H14C20496   0.425   1.059  17.177
  169DOPC   C1520497   0.710   1.106  17.003
  169DOPC  H15A20498   0.733   1.134  16.902
  169DOPC  H15B20499   0.750   1.007  17.019
  169DOPC  H15C20500   0.758   1.175  17.071
  169DOPC   C1120501   0.363   1.278  17.057
  169DOPC  H11A20502   0.345   1.244  17.162
  169DOPC  H11B20503   0.347   1.388  17.061
  169DOPC     P20504   0.228   1.293  16.840
  169DOPC   O1320505   0.171   1.422  16.884
  169DOPC   O1420506   0.150   1.206  16.751
  169DOPC   O1220507   0.270   1.211  16.970
  169DOPC   O1120508   0.372   1.316  16.780
  169DOPC    C120509   0.427   1.248  16.668
  169DOPC    HA20510   0.349   1.213  16.596
  169DOPC    HB20511   0.484   1.159  16.701
  169DOPC    C220512   0.522   1.346  16.597
  169DOPC    HS20513   0.546   1.428  16.668
  169DOPC   O2120514   0.457   1.396  16.481
  169DOPC   C2120515   0.371   1.494  16.500
  169DOPC   O2220516   0.344   1.551  16.603
  169DOPC   C2220517   0.327   1.535  16.361
  169DOPC   H2R20518   0.243   1.607  16.369
  169DOPC   H2S20519   0.292   1.444  16.309
  169DOPC    C320520   0.660   1.284  16.557
  169DOPC    HX20521   0.691   1.212  16.635
  169DOPC    HY20522   0.735   1.366  16.559
  169DOPC   O3120523   0.654   1.216  16.430
  169DOPC   C3120524   0.699   1.286  16.326
  169DOPC   O3220525   0.751   1.396  16.332
  169DOPC   C3220526   0.678   1.208  16.198
  169DOPC   H2X20527   0.582   1.153  16.203
  169DOPC   H2Y20528   0.673   1.281  16.114
  169DOPC   C2320529   0.451   1.600  16.296
  169DOPC   H3R20530   0.545   1.551  16.330
  169DOPC   H3S20531   0.456   1.704  16.333
  169DOPC   C2420532   0.462   1.593  16.143
  169DOPC   H4R20533   0.566   1.619  16.115
  169DOPC   H4S20534   0.396   1.667  16.094
  169DOPC   C2520535   0.436   1.454  16.088
  169DOPC   H5R20536   0.333   1.420  16.111
  169DOPC   H5S20537   0.505   1.382  16.139
  169DOPC   C2620538   0.457   1.451  15.937
  169DOPC   H6R20539   0.502   1.355  15.905
  169DOPC   H6S20540   0.524   1.532  15.903
  169DOPC   C2720541   0.318   1.464  15.875
  169DOPC   H7R20542   0.271   1.557  15.914
  169DOPC   H7S20543   0.260   1.380  15.916
  169DOPC   C2820544   0.317   1.461  15.723
  169DOPC   H8R20545   0.214   1.443  15.685
  169DOPC   H8S20546   0.381   1.379  15.684
  169DOPC   C2920547   0.361   1.596  15.678
  169DOPC   H9R20548   0.321   1.679  15.737
  169DOPC  C21020549   0.444   1.625  15.578
  169DOPC  H10R20550   0.456   1.732  15.553
  169DOPC  C21120551   0.513   1.531  15.486
  169DOPC  H11R20552   0.505   1.575  15.384
  169DOPC  H11S20553   0.462   1.432  15.483
  169DOPC  C21220554   0.662   1.510  15.519
  169DOPC  H12R20555   0.671   1.432  15.597
  169DOPC  H12S20556   0.709   1.603  15.559
  169DOPC  C21320557   0.740   1.468  15.394
  169DOPC  H13R20558   0.843   1.436  15.422
  169DOPC  H13S20559   0.750   1.555  15.326
  169DOPC  C21420560   0.664   1.357  15.320
  169DOPC  H14R20561   0.566   1.401  15.292
  169DOPC  H14S20562   0.648   1.270  15.388
  169DOPC  C21520563   0.723   1.312  15.188
  169DOPC  H15R20564   0.723   1.400  15.119
  169DOPC  H15S20565   0.659   1.236  15.139
  169DOPC  C21620566   0.861   1.253  15.201
  169DOPC  H16R20567   0.854   1.143  15.195
  169DOPC  H16S20568   0.907   1.278  15.299
  169DOPC  C21720569   0.949   1.306  15.089
  169DOPC  H17R20570   0.901   1.282  14.991
  169DOPC  H17S20571   1.044   1.250  15.096
  169DOPC  C21820572   0.984   1.455  15.094
  169DOPC  H18R20573   1.039   1.478  15.188
  169DOPC  H18S20574   0.893   1.519  15.089
  169DOPC  H18T20575   1.048   1.480  15.007
  169DOPC   C3320576   0.796   1.116  16.166
  169DOPC   H3X20577   0.889   1.177  16.156
  169DOPC   H3Y20578   0.775   1.073  16.066
  169DOPC   C3420579   0.818   1.001  16.265
  169DOPC   H4X20580   0.839   1.044  16.365
  169DOPC   H4Y20581   0.909   0.944  16.235
  169DOPC   C3520582   0.702   0.901  16.276
  169DOPC   H5X20583   0.605   0.953  16.290
  169DOPC   H5Y20584   0.720   0.844  16.370
  169DOPC   C3620585   0.696   0.796  16.163
  169DOPC   H6X20586   0.796   0.750  16.152
  169DOPC   H6Y20587   0.627   0.715  16.195
  169DOPC   C3720588   0.647   0.843  16.024
  169DOPC   H7X20589   0.731   0.892  15.971
  169DOPC   H7Y20590   0.630   0.751  15.964
  169DOPC   C3820591   0.524   0.937  16.021
  169DOPC   H8X20592   0.560   1.039  15.999
  169DOPC   H8Y20593   0.479   0.939  16.122
  169DOPC   C3920594   0.416   0.895  15.924
  169DOPC   H9X20595   0.389   0.788  15.927
  169DOPC  C31020596   0.357   0.968  15.829
  169DOPC  H10X20597   0.280   0.919  15.768
  169DOPC  C31120598   0.385   1.111  15.794
  169DOPC  H11X20599   0.407   1.170  15.885
  169DOPC  H11Y20600   0.295   1.156  15.747
  169DOPC  C31220601   0.503   1.120  15.695
  169DOPC  H12X20602   0.597   1.109  15.753
  169DOPC  H12Y20603   0.506   1.222  15.649
  169DOPC  C31320604   0.501   1.016  15.582
  169DOPC  H13X20605   0.585   1.036  15.511
  169DOPC  H13Y20606   0.521   0.916  15.627
  169DOPC  C31420607   0.370   1.005  15.504
  169DOPC  H14X20608   0.367   0.907  15.451
  169DOPC  H14Y20609   0.282   1.006  15.573
  169DOPC  C31520610   0.351   1.116  15.401
  169DOPC  H15X20611   0.387   1.213  15.441
  169DOPC  H15Y20612   0.241   1.126  15.383
  169DOPC  C31620613   0.421   1.082  15.269
  169DOPC  H16X20614   0.529   1.066  15.289
  169DOPC  H16Y20615   0.379   0.987  15.230
  169DOPC  C31720616   0.406   1.192  15.164
  169DOPC  H17X20617   0.442   1.288  15.208
  169DOPC  H17Y20618   0.469   1.172  15.074
  169DOPC  C31820619   0.265   1.220  15.122
  169DOPC  H18X20620   0.217   1.135  15.070
  169DOPC  H18Y20621   0.208   1.238  15.216
  169DOPC  H18Z20622   0.259   1.311  15.059
  170DOPC     N20623   6.962   7.049  16.783
  170DOPC   C1220624   6.909   7.002  16.918
  170DOPC  H12A20625   6.905   7.087  16.985
  170DOPC  H12B20626   6.979   6.933  16.962
  170DOPC   C1320627   7.105   7.090  16.796
  170DOPC  H13A20628   7.143   7.129  16.703
  170DOPC  H13B20629   7.118   7.165  16.873
  170DOPC  H13C20630   7.166   7.004  16.821
  170DOPC   C1420631   6.879   7.166  16.738
  170DOPC  H14A20632   6.775   7.137  16.734
  170DOPC  H14B20633   6.883   7.245  16.811
  170DOPC  H14C20634   6.909   7.204  16.642
  170DOPC   C1520635   6.954   6.939  16.682
  170DOPC  H15A20636   6.990   6.971  16.585
  170DOPC  H15B20637   6.852   6.906  16.671
  170DOPC  H15C20638   7.013   6.854  16.713
  170DOPC   C1120639   6.768   6.938  16.921
  170DOPC  H11A20640   6.762   6.854  16.848
  170DOPC  H11B20641   6.751   6.892  17.021
  170DOPC     P20642   6.626   7.138  17.001
  170DOPC   O1320643   6.740   7.230  17.023
  170DOPC   O1420644   6.573   7.061  17.115
  170DOPC   O1220645   6.666   7.034  16.890
  170DOPC   O1120646   6.504   7.211  16.933
  170DOPC    C120647   6.516   7.282  16.810
  170DOPC    HA20648   6.620   7.310  16.784
  170DOPC    HB20649   6.460   7.378  16.821
  170DOPC    C220650   6.452   7.202  16.694
  170DOPC    HS20651   6.353   7.166  16.730
  170DOPC   O2120652   6.540   7.097  16.651
  170DOPC   C2120653   6.495   6.974  16.659
  170DOPC   O2220654   6.392   6.940  16.714
  170DOPC   C2220655   6.597   6.881  16.592
  170DOPC   H2R20656   6.623   6.804  16.668
  170DOPC   H2S20657   6.689   6.939  16.567
  170DOPC    C320658   6.427   7.290  16.571
  170DOPC    HX20659   6.374   7.382  16.605
  170DOPC    HY20660   6.358   7.235  16.503
  170DOPC   O3120661   6.555   7.323  16.512
  170DOPC   C3120662   6.577   7.270  16.392
  170DOPC   O3220663   6.490   7.227  16.318
  170DOPC   C3220664   6.727   7.261  16.364
  170DOPC   H2X20665   6.760   7.162  16.402
  170DOPC   H2Y20666   6.739   7.261  16.253
  170DOPC   C2320667   6.545   6.809  16.465
  170DOPC   H3R20668   6.444   6.767  16.483
  170DOPC   H3S20669   6.612   6.723  16.446
  170DOPC   C2420670   6.546   6.895  16.337
  170DOPC   H4R20671   6.645   6.945  16.326
  170DOPC   H4S20672   6.469   6.975  16.345
  170DOPC   C2520673   6.520   6.811  16.211
  170DOPC   H5R20674   6.420   6.763  16.219
  170DOPC   H5S20675   6.595   6.728  16.208
  170DOPC   C2620676   6.527   6.887  16.078
  170DOPC   H6R20677   6.502   6.815  15.996
  170DOPC   H6S20678   6.630   6.923  16.060
  170DOPC   C2720679   6.430   7.007  16.068
  170DOPC   H7R20680   6.473   7.090  16.127
  170DOPC   H7S20681   6.333   6.979  16.115
  170DOPC   C2820682   6.403   7.056  15.925
  170DOPC   H8R20683   6.346   7.150  15.929
  170DOPC   H8S20684   6.339   6.981  15.873
  170DOPC   C2920685   6.530   7.075  15.846
  170DOPC   H9R20686   6.557   6.990  15.781
  170DOPC  C21020687   6.610   7.182  15.848
  170DOPC  H10R20688   6.700   7.178  15.785
  170DOPC  C21120689   6.595   7.308  15.930
  170DOPC  H11R20690   6.696   7.347  15.955
  170DOPC  H11S20691   6.548   7.286  16.028
  170DOPC  C21220692   6.514   7.422  15.865
  170DOPC  H12R20693   6.538   7.517  15.917
  170DOPC  H12S20694   6.407   7.401  15.883
  170DOPC  C21320695   6.530   7.444  15.712
  170DOPC  H13R20696   6.465   7.531  15.687
  170DOPC  H13S20697   6.487   7.355  15.662
  170DOPC  C21420698   6.676   7.463  15.667
  170DOPC  H14R20699   6.714   7.359  15.676
  170DOPC  H14S20700   6.726   7.530  15.740
  170DOPC  C21520701   6.720   7.505  15.524
  170DOPC  H15R20702   6.769   7.604  15.526
  170DOPC  H15S20703   6.635   7.512  15.453
  170DOPC  C21620704   6.814   7.402  15.460
  170DOPC  H16R20705   6.770   7.304  15.485
  170DOPC  H16S20706   6.916   7.408  15.505
  170DOPC  C21720707   6.824   7.406  15.306
  170DOPC  H17R20708   6.722   7.398  15.263
  170DOPC  H17S20709   6.880   7.315  15.273
  170DOPC  C21820710   6.893   7.529  15.250
  170DOPC  H18R20711   6.908   7.518  15.140
  170DOPC  H18S20712   6.992   7.543  15.297
  170DOPC  H18T20713   6.831   7.619  15.267
  170DOPC   C3320714   6.813   7.373  16.427
  170DOPC   H3X20715   6.787   7.385  16.535
  170DOPC   H3Y20716   6.791   7.470  16.377
  170DOPC   C3420717   6.963   7.345  16.418
  170DOPC   H4X20718   6.988   7.253  16.475
  170DOPC   H4Y20719   7.019   7.430  16.464
  170DOPC   C3520720   7.015   7.326  16.275
  170DOPC   H5X20721   6.973   7.234  16.229
  170DOPC   H5Y20722   7.125   7.311  16.281
  170DOPC   C3620723   6.989   7.445  16.182
  170DOPC   H6X20724   6.885   7.438  16.144
  170DOPC   H6Y20725   6.999   7.541  16.238
  170DOPC   C3720726   7.091   7.446  16.067
  170DOPC   H7X20727   7.186   7.487  16.108
  170DOPC   H7Y20728   7.111   7.341  16.036
  170DOPC   C3820729   7.056   7.531  15.946
  170DOPC   H8X20730   7.142   7.535  15.875
  170DOPC   H8Y20731   7.032   7.635  15.977
  170DOPC   C3920732   6.939   7.461  15.887
  170DOPC   H9X20733   6.841   7.499  15.920
  170DOPC  C31020734   6.944   7.359  15.801
  170DOPC  H10X20735   6.851   7.303  15.784
  170DOPC  C31120736   7.062   7.290  15.740
  170DOPC  H11X20737   7.148   7.295  15.811
  170DOPC  H11Y20738   7.090   7.344  15.647
  170DOPC  C31220739   7.038   7.142  15.705
  170DOPC  H12X20740   7.010   7.087  15.797
  170DOPC  H12Y20741   7.133   7.098  15.668
  170DOPC  C31320742   6.930   7.120  15.597
  170DOPC  H13X20743   6.837   7.173  15.628
  170DOPC  H13Y20744   6.965   7.164  15.501
  170DOPC  C31420745   6.890   6.973  15.576
  170DOPC  H14X20746   6.976   6.920  15.529
  170DOPC  H14Y20747   6.872   6.926  15.675
  170DOPC  C31520748   6.764   6.955  15.490
  170DOPC  H15X20749   6.675   6.988  15.548
  170DOPC  H15Y20750   6.751   6.846  15.468
  170DOPC  C31620751   6.764   7.032  15.356
  170DOPC  H16X20752   6.759   7.141  15.379
  170DOPC  H16Y20753   6.858   7.015  15.300
  170DOPC  C31720754   6.643   7.001  15.266
  170DOPC  H17X20755   6.552   6.987  15.328
  170DOPC  H17Y20756   6.625   7.089  15.201
  170DOPC  C31820757   6.665   6.880  15.176
  170DOPC  H18X20758   6.577   6.863  15.110
  170DOPC  H18Y20759   6.754   6.897  15.112
  170DOPC  H18Z20760   6.683   6.789  15.237
  171DOPC     N20761   3.894   2.878  13.066
  171DOPC   C1220762   3.786   2.956  13.140
  171DOPC  H12A20763   3.833   3.035  13.197
  171DOPC  H12B20764   3.735   2.891  13.210
  171DOPC   C1320765   3.832   2.796  12.956
  171DOPC  H13A20766   3.762   2.723  12.995
  171DOPC  H13B20767   3.778   2.862  12.890
  171DOPC  H13C20768   3.908   2.748  12.896
  171DOPC   C1420769   3.972   2.790  13.158
  171DOPC  H14A20770   3.910   2.713  13.202
  171DOPC  H14B20771   4.053   2.742  13.103
  171DOPC  H14C20772   4.017   2.848  13.237
  171DOPC   C1520773   3.988   2.975  13.000
  171DOPC  H15A20774   4.064   2.925  12.942
  171DOPC  H15B20775   4.037   3.039  13.071
  171DOPC  H15C20776   3.933   3.041  12.935
  171DOPC   C1120777   3.677   3.026  13.054
  171DOPC  H11A20778   3.621   2.952  12.993
  171DOPC  H11B20779   3.601   3.071  13.122
  171DOPC     P20780   3.767   3.269  13.025
  171DOPC   O1320781   3.643   3.349  13.028
  171DOPC   O1420782   3.884   3.323  12.954
  171DOPC   O1220783   3.734   3.124  12.967
  171DOPC   O1120784   3.807   3.232  13.174
  171DOPC    C120785   3.868   3.327  13.260
  171DOPC    HA20786   3.825   3.317  13.362
  171DOPC    HB20787   3.850   3.432  13.228
  171DOPC    C220788   4.021   3.304  13.271
  171DOPC    HS20789   4.064   3.312  13.169
  171DOPC   O2120790   4.046   3.173  13.325
  171DOPC   C2120791   4.171   3.133  13.319
  171DOPC   O2220792   4.263   3.190  13.264
  171DOPC   C2220793   4.188   2.998  13.390
  171DOPC   H2R20794   4.288   3.000  13.438
  171DOPC   H2S20795   4.186   2.918  13.312
  171DOPC    C320796   4.084   3.417  13.358
  171DOPC    HX20797   4.072   3.509  13.297
  171DOPC    HY20798   4.193   3.401  13.373
  171DOPC   O3120799   4.012   3.440  13.482
  171DOPC   C3120800   4.053   3.373  13.588
  171DOPC   O3220801   4.145   3.295  13.593
  171DOPC   C3220802   3.963   3.410  13.706
  171DOPC   H2X20803   4.013   3.377  13.799
  171DOPC   H2Y20804   3.956   3.521  13.708
  171DOPC   C2320805   4.080   2.975  13.498
  171DOPC   H3R20806   3.979   2.967  13.452
  171DOPC   H3S20807   4.079   3.063  13.565
  171DOPC   C2420808   4.106   2.853  13.587
  171DOPC   H4R20809   4.212   2.854  13.622
  171DOPC   H4S20810   4.089   2.759  13.531
  171DOPC   C2520811   4.014   2.860  13.709
  171DOPC   H5R20812   3.908   2.858  13.674
  171DOPC   H5S20813   4.031   2.958  13.759
  171DOPC   C2620814   4.035   2.749  13.812
  171DOPC   H6R20815   4.135   2.761  13.860
  171DOPC   H6S20816   4.034   2.651  13.760
  171DOPC   C2720817   3.925   2.749  13.919
  171DOPC   H7R20818   3.939   2.663  13.987
  171DOPC   H7S20819   3.829   2.733  13.865
  171DOPC   C2820820   3.910   2.880  14.000
  171DOPC   H8R20821   3.819   2.869  14.063
  171DOPC   H8S20822   3.889   2.964  13.930
  171DOPC   C2920823   4.029   2.907  14.090
  171DOPC   H9R20824   4.052   2.825  14.159
  171DOPC  C21020825   4.105   3.018  14.094
  171DOPC  H10R20826   4.187   3.023  14.167
  171DOPC  C21120827   4.092   3.143  14.009
  171DOPC  H11R20828   4.028   3.125  13.919
  171DOPC  H11S20829   4.191   3.173  13.970
  171DOPC  C21220830   4.032   3.263  14.084
  171DOPC  H12R20831   3.926   3.241  14.109
  171DOPC  H12S20832   4.031   3.350  14.016
  171DOPC  C21320833   4.106   3.304  14.213
  171DOPC  H13R20834   4.215   3.307  14.193
  171DOPC  H13S20835   4.087   3.228  14.292
  171DOPC  C21420836   4.060   3.442  14.263
  171DOPC  H14R20837   3.949   3.447  14.265
  171DOPC  H14S20838   4.093   3.518  14.188
  171DOPC  C21520839   4.112   3.481  14.403
  171DOPC  H15R20840   4.134   3.590  14.403
  171DOPC  H15S20841   4.207   3.427  14.425
  171DOPC  C21620842   4.009   3.455  14.512
  171DOPC  H16R20843   3.989   3.346  14.516
  171DOPC  H16S20844   3.916   3.507  14.483
  171DOPC  C21720845   4.050   3.504  14.652
  171DOPC  H17R20846   3.957   3.531  14.707
  171DOPC  H17S20847   4.111   3.597  14.642
  171DOPC  C21820848   4.125   3.399  14.733
  171DOPC  H18R20849   4.063   3.307  14.744
  171DOPC  H18S20850   4.149   3.438  14.835
  171DOPC  H18T20851   4.220   3.371  14.683
  171DOPC   C3320852   3.822   3.348  13.694
  171DOPC   H3X20853   3.817   3.255  13.753
  171DOPC   H3Y20854   3.801   3.320  13.588
  171DOPC   C3420855   3.711   3.446  13.734
  171DOPC   H4X20856   3.612   3.402  13.709
  171DOPC   H4Y20857   3.722   3.538  13.673
  171DOPC   C3520858   3.710   3.485  13.883
  171DOPC   H5X20859   3.635   3.565  13.899
  171DOPC   H5Y20860   3.809   3.526  13.912
  171DOPC   C3620861   3.674   3.366  13.973
  171DOPC   H6X20862   3.573   3.328  13.946
  171DOPC   H6Y20863   3.746   3.284  13.954
  171DOPC   C3720864   3.679   3.398  14.122
  171DOPC   H7X20865   3.779   3.442  14.143
  171DOPC   H7Y20866   3.604   3.476  14.148
  171DOPC   C3820867   3.655   3.271  14.207
  171DOPC   H8X20868   3.670   3.183  14.141
  171DOPC   H8Y20869   3.547   3.269  14.236
  171DOPC   C3920870   3.745   3.257  14.326
  171DOPC   H9X20871   3.841   3.207  14.307
  171DOPC  C31020872   3.720   3.303  14.449
  171DOPC  H10X20873   3.793   3.283  14.530
  171DOPC  C31120874   3.598   3.377  14.493
  171DOPC  H11X20875   3.531   3.406  14.409
  171DOPC  H11Y20876   3.629   3.470  14.545
  171DOPC  C31220877   3.521   3.293  14.594
  171DOPC  H12X20878   3.590   3.270  14.678
  171DOPC  H12Y20879   3.491   3.195  14.551
  171DOPC  C31320880   3.399   3.370  14.646
  171DOPC  H13X20881   3.434   3.471  14.676
  171DOPC  H13Y20882   3.326   3.382  14.563
  171DOPC  C31420883   3.329   3.306  14.766
  171DOPC  H14X20884   3.259   3.381  14.809
  171DOPC  H14Y20885   3.267   3.221  14.732
  171DOPC  C31520886   3.426   3.257  14.875
  171DOPC  H15X20887   3.485   3.172  14.836
  171DOPC  H15Y20888   3.366   3.218  14.960
  171DOPC  C31620889   3.520   3.368  14.926
  171DOPC  H16X20890   3.586   3.405  14.845
  171DOPC  H16Y20891   3.457   3.454  14.959
  171DOPC  C31720892   3.607   3.322  15.043
  171DOPC  H17X20893   3.647   3.412  15.095
  171DOPC  H17Y20894   3.543   3.267  15.116
  171DOPC  C31820895   3.724   3.232  15.003
  171DOPC  H18X20896   3.794   3.286  14.936
  171DOPC  H18Y20897   3.781   3.199  15.094
  171DOPC  H18Z20898   3.688   3.141  14.951
  172DOPC     N20899   3.172   4.414  12.927
  172DOPC   C1220900   3.149   4.390  13.076
  172DOPC  H12A20901   3.178   4.478  13.131
  172DOPC  H12B20902   3.212   4.310  13.110
  172DOPC   C1320903   3.101   4.310  12.844
  172DOPC  H13A20904   3.141   4.212  12.862
  172DOPC  H13B20905   2.996   4.309  12.870
  172DOPC  H13C20906   3.110   4.330  12.738
  172DOPC   C1420907   3.317   4.407  12.891
  172DOPC  H14A20908   3.357   4.308  12.909
  172DOPC  H14B20909   3.331   4.429  12.786
  172DOPC  H14C20910   3.374   4.478  12.948
  172DOPC   C1520911   3.119   4.550  12.891
  172DOPC  H15A20912   3.170   4.627  12.946
  172DOPC  H15B20913   3.015   4.556  12.920
  172DOPC  H15C20914   3.127   4.570  12.785
  172DOPC   C1120915   3.003   4.359  13.121
  172DOPC  H11A20916   2.972   4.261  13.080
  172DOPC  H11B20917   3.003   4.347  13.231
  172DOPC     P20918   2.883   4.584  13.172
  172DOPC   O1320919   2.821   4.536  13.297
  172DOPC   O1420920   2.810   4.685  13.092
  172DOPC   O1220921   2.911   4.459  13.077
  172DOPC   O1120922   3.030   4.637  13.202
  172DOPC    C120923   3.046   4.759  13.276
  172DOPC    HA20924   2.960   4.783  13.343
  172DOPC    HB20925   3.057   4.844  13.205
  172DOPC    C220926   3.173   4.755  13.365
  172DOPC    HS20927   3.252   4.696  13.313
  172DOPC   O2120928   3.142   4.701  13.495
  172DOPC   C2120929   3.159   4.572  13.513
  172DOPC   O2220930   3.204   4.493  13.431
  172DOPC   C2220931   3.120   4.539  13.658
  172DOPC   H2R20932   3.119   4.428  13.670
  172DOPC   H2S20933   3.017   4.578  13.674
  172DOPC    C320934   3.231   4.898  13.387
  172DOPC    HX20935   3.257   4.940  13.287
  172DOPC    HY20936   3.325   4.890  13.445
  172DOPC   O3120937   3.134   4.984  13.449
  172DOPC   C3120938   3.148   4.995  13.581
  172DOPC   O3220939   3.250   4.979  13.644
  172DOPC   C3220940   3.011   5.020  13.641
  172DOPC   H2X20941   3.019   5.097  13.720
  172DOPC   H2Y20942   2.942   5.054  13.562
  172DOPC   C2320943   3.217   4.603  13.760
  172DOPC   H3R20944   3.246   4.705  13.724
  172DOPC   H3S20945   3.310   4.541  13.765
  172DOPC   C2420946   3.163   4.624  13.902
  172DOPC   H4R20947   3.058   4.660  13.892
  172DOPC   H4S20948   3.220   4.706  13.950
  172DOPC   C2520949   3.169   4.501  13.993
  172DOPC   H5R20950   3.115   4.417  13.944
  172DOPC   H5S20951   3.114   4.523  14.087
  172DOPC   C2620952   3.310   4.454  14.035
  172DOPC   H6R20953   3.362   4.413  13.945
  172DOPC   H6S20954   3.298   4.369  14.105
  172DOPC   C2720955   3.403   4.559  14.101
  172DOPC   H7R20956   3.433   4.633  14.024
  172DOPC   H7S20957   3.495   4.507  14.134
  172DOPC   C2820958   3.346   4.637  14.221
  172DOPC   H8R20959   3.268   4.706  14.182
  172DOPC   H8S20960   3.427   4.702  14.261
  172DOPC   C2920961   3.286   4.549  14.328
  172DOPC   H9R20962   3.215   4.474  14.289
  172DOPC  C21020963   3.304   4.556  14.460
  172DOPC  H10R20964   3.248   4.484  14.523
  172DOPC  C21120965   3.388   4.653  14.540
  172DOPC  H11R20966   3.456   4.712  14.475
  172DOPC  H11S20967   3.453   4.596  14.610
  172DOPC  C21220968   3.304   4.752  14.624
  172DOPC  H12R20969   3.259   4.827  14.555
  172DOPC  H12S20970   3.371   4.806  14.693
  172DOPC  C21320971   3.189   4.688  14.703
  172DOPC  H13R20972   3.116   4.648  14.629
  172DOPC  H13S20973   3.135   4.767  14.760
  172DOPC  C21420974   3.227   4.571  14.796
  172DOPC  H14R20975   3.282   4.493  14.739
  172DOPC  H14S20976   3.133   4.523  14.832
  172DOPC  C21520977   3.309   4.612  14.918
  172DOPC  H15R20978   3.396   4.672  14.886
  172DOPC  H15S20979   3.348   4.521  14.969
  172DOPC  C21620980   3.224   4.691  15.018
  172DOPC  H16R20981   3.142   4.627  15.056
  172DOPC  H16S20982   3.180   4.778  14.965
  172DOPC  C21720983   3.305   4.748  15.133
  172DOPC  H17R20984   3.355   4.839  15.093
  172DOPC  H17S20985   3.382   4.675  15.163
  172DOPC  C21820986   3.221   4.788  15.253
  172DOPC  H18R20987   3.195   4.698  15.313
  172DOPC  H18S20988   3.128   4.838  15.218
  172DOPC  H18T20989   3.275   4.859  15.319
  172DOPC   C3320990   2.957   4.889  13.701
  172DOPC   H3X20991   3.016   4.866  13.792
  172DOPC   H3Y20992   2.969   4.803  13.631
  172DOPC   C3420993   2.809   4.904  13.730
  172DOPC   H4X20994   2.751   4.881  13.638
  172DOPC   H4Y20995   2.789   5.010  13.757
  172DOPC   C3520996   2.762   4.816  13.845
  172DOPC   H5X20997   2.788   4.710  13.825
  172DOPC   H5Y20998   2.652   4.825  13.851
  172DOPC   C3620999   2.818   4.859  13.980
  172DOPC   H6X21000   2.929   4.863  13.976
  172DOPC   H6Y21001   2.788   4.964  14.001
  172DOPC   C3721002   2.771   4.766  14.092
  172DOPC   H7X21003   2.742   4.823  14.183
  172DOPC   H7Y21004   2.679   4.713  14.059
  172DOPC   C3821005   2.880   4.665  14.128
  172DOPC   H8X21006   2.912   4.613  14.035
  172DOPC   H8Y21007   2.837   4.586  14.194
  172DOPC   C3921008   2.993   4.742  14.192
  172DOPC   H9X21009   3.060   4.795  14.124
  172DOPC  C31021010   3.016   4.750  14.324
  172DOPC  H10X21011   3.101   4.809  14.360
  172DOPC  C31121012   2.932   4.684  14.428
  172DOPC  H11X21013   2.990   4.600  14.472
  172DOPC  H11Y21014   2.838   4.639  14.389
  172DOPC  C31221015   2.891   4.780  14.539
  172DOPC  H12X21016   2.813   4.851  14.502
  172DOPC  H12Y21017   2.978   4.840  14.572
  172DOPC  C31321018   2.837   4.699  14.657
  172DOPC  H13X21019   2.758   4.632  14.619
  172DOPC  H13Y21020   2.917   4.634  14.698
  172DOPC  C31421021   2.778   4.782  14.771
  172DOPC  H14X21022   2.681   4.822  14.736
  172DOPC  H14Y21023   2.759   4.711  14.855
  172DOPC  C31521024   2.862   4.898  14.826
  172DOPC  H15X21025   2.793   4.982  14.852
  172DOPC  H15Y21026   2.933   4.937  14.750
  172DOPC  C31621027   2.935   4.861  14.955
  172DOPC  H16X21028   2.972   4.757  14.943
  172DOPC  H16Y21029   3.023   4.928  14.967
  172DOPC  C31721030   2.850   4.870  15.081
  172DOPC  H17X21031   2.759   4.807  15.071
  172DOPC  H17Y21032   2.910   4.828  15.164
  172DOPC  C31821033   2.808   5.012  15.121
  172DOPC  H18X21034   2.763   5.013  15.222
  172DOPC  H18Y21035   2.896   5.080  15.122
  172DOPC  H18Z21036   2.733   5.053  15.049
  173DOPC     N21037   2.090   2.997  12.879
  173DOPC   C1221038   2.202   2.968  12.980
  173DOPC  H12A21039   2.297   2.998  12.937
  173DOPC  H12B21040   2.212   2.861  12.992
  173DOPC   C1321041   2.123   2.931  12.749
  173DOPC  H13A21042   2.049   2.955  12.673
  173DOPC  H13B21043   2.220   2.962  12.712
  173DOPC  H13C21044   2.126   2.823  12.759
  173DOPC   C1421045   2.079   3.145  12.859
  173DOPC  H14A21046   2.072   3.192  12.956
  173DOPC  H14B21047   2.171   3.184  12.816
  173DOPC  H14C21048   1.995   3.173  12.798
  173DOPC   C1521049   1.960   2.943  12.931
  173DOPC  H15A21050   1.941   2.982  13.030
  173DOPC  H15B21051   1.963   2.835  12.938
  173DOPC  H15C21052   1.878   2.971  12.867
  173DOPC   C1121053   2.193   3.035  13.120
  173DOPC  H11A21054   2.099   3.003  13.170
  173DOPC  H11B21055   2.278   2.999  13.181
  173DOPC     P21056   2.159   3.278  13.219
  173DOPC   O1321057   2.114   3.402  13.150
  173DOPC   O1421058   2.264   3.293  13.320
  173DOPC   O1221059   2.201   3.177  13.106
  173DOPC   O1121060   2.032   3.209  13.283
  173DOPC    C121061   1.902   3.209  13.224
  173DOPC    HA21062   1.874   3.105  13.195
  173DOPC    HB21063   1.899   3.270  13.131
  173DOPC    C221064   1.791   3.265  13.318
  173DOPC    HS21065   1.712   3.307  13.252
  173DOPC   O2121066   1.849   3.366  13.401
  173DOPC   C2121067   1.765   3.455  13.452
  173DOPC   O2221068   1.654   3.478  13.409
  173DOPC   C2221069   1.837   3.537  13.560
  173DOPC   H2R21070   1.798   3.500  13.657
  173DOPC   H2S21071   1.806   3.643  13.550
  173DOPC    C321072   1.721   3.154  13.405
  173DOPC    HX21073   1.680   3.079  13.334
  173DOPC    HY21074   1.632   3.198  13.455
  173DOPC   O3121075   1.809   3.085  13.497
  173DOPC   C3121076   1.813   3.137  13.620
  173DOPC   O3221077   1.759   3.240  13.654
  173DOPC   C3221078   1.890   3.045  13.716
  173DOPC   H2X21079   1.898   2.944  13.671
  173DOPC   H2Y21080   1.992   3.087  13.728
  173DOPC   C2321081   1.993   3.527  13.562
  173DOPC   H3R21082   2.037   3.628  13.543
  173DOPC   H3S21083   2.036   3.458  13.487
  173DOPC   C2421084   2.042   3.479  13.698
  173DOPC   H4R21085   2.007   3.376  13.717
  173DOPC   H4S21086   1.996   3.545  13.775
  173DOPC   C2521087   2.195   3.484  13.711
  173DOPC   H5R21088   2.226   3.590  13.705
  173DOPC   H5S21089   2.240   3.430  13.625
  173DOPC   C2621090   2.247   3.420  13.841
  173DOPC   H6R21091   2.358   3.423  13.844
  173DOPC   H6S21092   2.217   3.313  13.837
  173DOPC   C2721093   2.192   3.489  13.966
  173DOPC   H7R21094   2.084   3.514  13.951
  173DOPC   H7S21095   2.245   3.585  13.983
  173DOPC   C2821096   2.196   3.412  14.097
  173DOPC   H8R21097   2.146   3.475  14.174
  173DOPC   H8S21098   2.300   3.398  14.131
  173DOPC   C2921099   2.119   3.286  14.076
  173DOPC   H9R21100   2.173   3.205  14.023
  173DOPC  C21021101   1.993   3.264  14.112
  173DOPC  H10R21102   1.951   3.166  14.087
  173DOPC  C21121103   1.896   3.354  14.182
  173DOPC  H11R21104   1.798   3.349  14.130
  173DOPC  H11S21105   1.927   3.461  14.181
  173DOPC  C21221106   1.878   3.304  14.327
  173DOPC  H12R21107   1.779   3.340  14.364
  173DOPC  H12S21108   1.956   3.348  14.393
  173DOPC  C21321109   1.886   3.151  14.338
  173DOPC  H13R21110   1.992   3.118  14.336
  173DOPC  H13S21111   1.834   3.107  14.251
  173DOPC  C21421112   1.817   3.090  14.459
  173DOPC  H14R21113   1.712   3.125  14.455
  173DOPC  H14S21114   1.864   3.126  14.554
  173DOPC  C21521115   1.825   2.937  14.448
  173DOPC  H15R21116   1.932   2.908  14.455
  173DOPC  H15S21117   1.789   2.908  14.347
  173DOPC  C21621118   1.743   2.857  14.550
  173DOPC  H16R21119   1.769   2.749  14.538
  173DOPC  H16S21120   1.635   2.866  14.526
  173DOPC  C21721121   1.767   2.897  14.695
  173DOPC  H17R21122   1.702   2.835  14.760
  173DOPC  H17S21123   1.739   3.003  14.713
  173DOPC  C21821124   1.912   2.884  14.736
  173DOPC  H18R21125   1.974   2.961  14.687
  173DOPC  H18S21126   1.951   2.784  14.709
  173DOPC  H18T21127   1.918   2.897  14.847
  173DOPC   C3321128   1.819   3.038  13.854
  173DOPC   H3X21129   1.718   2.992  13.843
  173DOPC   H3Y21130   1.803   3.143  13.889
  173DOPC   C3421131   1.897   2.966  13.965
  173DOPC   H4X21132   1.855   2.997  14.063
  173DOPC   H4Y21133   2.004   2.998  13.960
  173DOPC   C3521134   1.889   2.814  13.965
  173DOPC   H5X21135   1.906   2.779  13.861
  173DOPC   H5Y21136   1.788   2.781  13.995
  173DOPC   C3621137   1.996   2.749  14.055
  173DOPC   H6X21138   1.992   2.640  14.034
  173DOPC   H6Y21139   2.096   2.787  14.025
  173DOPC   C3721140   1.982   2.768  14.207
  173DOPC   H7X21141   2.005   2.873  14.233
  173DOPC   H7Y21142   1.877   2.745  14.236
  173DOPC   C3821143   2.078   2.672  14.281
  173DOPC   H8X21144   2.181   2.692  14.244
  173DOPC   H8Y21145   2.052   2.569  14.248
  173DOPC   C3921146   2.073   2.673  14.432
  173DOPC   H9X21147   1.989   2.617  14.475
  173DOPC  C31021148   2.158   2.736  14.515
  173DOPC  H10X21149   2.142   2.726  14.624
  173DOPC  C31121150   2.277   2.821  14.478
  173DOPC  H11X21151   2.295   2.821  14.369
  173DOPC  H11Y21152   2.369   2.782  14.526
  173DOPC  C31221153   2.258   2.968  14.522
  173DOPC  H12X21154   2.158   3.004  14.488
  173DOPC  H12Y21155   2.334   3.030  14.470
  173DOPC  C31321156   2.273   2.991  14.673
  173DOPC  H13X21157   2.209   2.920  14.728
  173DOPC  H13Y21158   2.379   2.970  14.701
  173DOPC  C31421159   2.237   3.134  14.716
  173DOPC  H14X21160   2.277   3.207  14.642
  173DOPC  H14Y21161   2.126   3.146  14.712
  173DOPC  C31521162   2.290   3.174  14.856
  173DOPC  H15X21163   2.254   3.276  14.880
  173DOPC  H15Y21164   2.401   3.181  14.856
  173DOPC  C31621165   2.254   3.076  14.968
  173DOPC  H16X21166   2.301   2.977  14.947
  173DOPC  H16Y21167   2.294   3.113  15.064
  173DOPC  C31721168   2.104   3.059  14.977
  173DOPC  H17X21169   2.068   3.027  14.876
  173DOPC  H17Y21170   2.076   2.978  15.047
  173DOPC  C31821171   2.031   3.186  15.014
  173DOPC  H18X21172   2.050   3.215  15.119
  173DOPC  H18Y21173   2.059   3.271  14.948
  173DOPC  H18Z21174   1.923   3.167  14.998
  174DOPC     N21175   4.894   2.453  13.014
  174DOPC   C1221176   4.958   2.343  12.929
  174DOPC  H12A21177   5.056   2.376  12.899
  174DOPC  H12B21178   4.903   2.332  12.837
  174DOPC   C1321179   4.841   2.562  12.926
  174DOPC  H13A21180   4.810   2.649  12.982
  174DOPC  H13B21181   4.919   2.596  12.860
  174DOPC  H13C21182   4.760   2.528  12.863
  174DOPC   C1421183   5.000   2.515  13.101
  174DOPC  H14A21184   5.065   2.438  13.139
  174DOPC  H14B21185   5.062   2.582  13.044
  174DOPC  H14C21186   4.960   2.569  13.185
  174DOPC   C1521187   4.787   2.391  13.099
  174DOPC  H15A21188   4.832   2.309  13.153
  174DOPC  H15B21189   4.709   2.350  13.037
  174DOPC  H15C21190   4.745   2.462  13.169
  174DOPC   C1121191   4.972   2.202  12.993
  174DOPC  H11A21192   4.872   2.157  13.006
  174DOPC  H11B21193   5.025   2.135  12.922
  174DOPC     P21194   5.196   2.206  13.129
  174DOPC   O1321195   5.241   2.345  13.106
  174DOPC   O1421196   5.249   2.104  13.038
  174DOPC   O1221197   5.037   2.207  13.120
  174DOPC   O1121198   5.222   2.170  13.280
  174DOPC    C121199   5.115   2.157  13.375
  174DOPC    HA21200   5.155   2.114  13.469
  174DOPC    HB21201   5.039   2.085  13.337
  174DOPC    C221202   5.047   2.292  13.409
  174DOPC    HS21203   5.032   2.347  13.313
  174DOPC   O2121204   5.131   2.368  13.497
  174DOPC   C2121205   5.100   2.496  13.506
  174DOPC   O2221206   5.016   2.554  13.440
  174DOPC   C2221207   5.184   2.558  13.618
  174DOPC   H2R21208   5.253   2.632  13.573
  174DOPC   H2S21209   5.245   2.478  13.666
  174DOPC    C321210   4.905   2.270  13.469
  174DOPC    HX21211   4.847   2.218  13.390
  174DOPC    HY21212   4.856   2.367  13.489
  174DOPC   O3121213   4.912   2.192  13.591
  174DOPC   C3121214   4.798   2.131  13.621
  174DOPC   O3221215   4.694   2.141  13.558
  174DOPC   C3221216   4.813   2.047  13.748
  174DOPC   H2X21217   4.732   2.077  13.817
  174DOPC   H2Y21218   4.795   1.941  13.718
  174DOPC   C2321219   5.095   2.624  13.726
  174DOPC   H3R21220   5.049   2.717  13.686
  174DOPC   H3S21221   5.161   2.654  13.810
  174DOPC   C2421222   4.985   2.530  13.777
  174DOPC   H4R21223   5.020   2.425  13.777
  174DOPC   H4S21224   4.899   2.537  13.707
  174DOPC   C2521225   4.938   2.565  13.919
  174DOPC   H5R21226   4.834   2.529  13.932
  174DOPC   H5S21227   4.936   2.676  13.930
  174DOPC   C2621228   5.025   2.502  14.029
  174DOPC   H6R21229   5.132   2.520  14.006
  174DOPC   H6S21230   5.008   2.393  14.031
  174DOPC   C2721231   4.993   2.564  14.166
  174DOPC   H7R21232   4.884   2.553  14.184
  174DOPC   H7S21233   5.015   2.673  14.158
  174DOPC   C2821234   5.071   2.508  14.286
  174DOPC   H8R21235   5.067   2.586  14.366
  174DOPC   H8S21236   5.177   2.496  14.259
  174DOPC   C2921237   5.013   2.378  14.337
  174DOPC   H9R21238   5.042   2.290  14.278
  174DOPC  C21021239   4.931   2.360  14.442
  174DOPC  H10R21240   4.897   2.258  14.463
  174DOPC  C21121241   4.874   2.463  14.538
  174DOPC  H11R21242   4.765   2.472  14.523
  174DOPC  H11S21243   4.915   2.565  14.518
  174DOPC  C21221244   4.899   2.431  14.687
  174DOPC  H12R21245   4.846   2.508  14.749
  174DOPC  H12S21246   5.007   2.443  14.707
  174DOPC  C21321247   4.856   2.291  14.737
  174DOPC  H13R21248   4.900   2.277  14.838
  174DOPC  H13S21249   4.900   2.213  14.672
  174DOPC  C21421250   4.705   2.268  14.750
  174DOPC  H14R21251   4.654   2.276  14.652
  174DOPC  H14S21252   4.664   2.348  14.815
  174DOPC  C21521253   4.670   2.132  14.813
  174DOPC  H15R21254   4.580   2.146  14.877
  174DOPC  H15S21255   4.754   2.100  14.879
  174DOPC  C21621256   4.634   2.021  14.713
  174DOPC  H16R21257   4.709   2.021  14.631
  174DOPC  H16S21258   4.537   2.046  14.667
  174DOPC  C21721259   4.624   1.879  14.773
  174DOPC  H17R21260   4.584   1.811  14.695
  174DOPC  H17S21261   4.550   1.882  14.855
  174DOPC  C21821262   4.752   1.816  14.829
  174DOPC  H18R21263   4.731   1.716  14.872
  174DOPC  H18S21264   4.794   1.879  14.911
  174DOPC  H18T21265   4.829   1.804  14.749
  174DOPC   C3321266   4.951   2.059  13.817
  174DOPC   H3X21267   4.973   2.166  13.842
  174DOPC   H3Y21268   5.030   2.025  13.748
  174DOPC   C3421269   4.959   1.976  13.946
  174DOPC   H4X21270   4.921   1.874  13.922
  174DOPC   H4Y21271   4.892   2.017  14.024
  174DOPC   C3521272   5.102   1.963  13.999
  174DOPC   H5X21273   5.172   1.957  13.914
  174DOPC   H5Y21274   5.112   1.868  14.057
  174DOPC   C3621275   5.142   2.079  14.091
  174DOPC   H6X21276   5.113   2.176  14.044
  174DOPC   H6Y21277   5.088   2.070  14.187
  174DOPC   C3721278   5.294   2.080  14.116
  174DOPC   H7X21279   5.325   1.980  14.151
  174DOPC   H7Y21280   5.345   2.100  14.020
  174DOPC   C3821281   5.336   2.185  14.220
  174DOPC   H8X21282   5.284   2.161  14.316
  174DOPC   H8Y21283   5.299   2.285  14.189
  174DOPC   C3921284   5.486   2.186  14.235
  174DOPC   H9X21285   5.540   2.237  14.153
  174DOPC  C31021286   5.557   2.133  14.336
  174DOPC  H10X21287   5.666   2.143  14.337
  174DOPC  C31121288   5.496   2.061  14.453
  174DOPC  H11X21289   5.569   1.996  14.505
  174DOPC  H11Y21290   5.414   1.995  14.417
  174DOPC  C31221291   5.437   2.160  14.555
  174DOPC  H12X21292   5.389   2.245  14.501
  174DOPC  H12Y21293   5.516   2.204  14.619
  174DOPC  C31321294   5.328   2.095  14.640
  174DOPC  H13X21295   5.272   2.023  14.577
  174DOPC  H13Y21296   5.373   2.037  14.723
  174DOPC  C31421297   5.227   2.199  14.691
  174DOPC  H14X21298   5.185   2.256  14.605
  174DOPC  H14Y21299   5.141   2.143  14.734
  174DOPC  C31521300   5.279   2.297  14.796
  174DOPC  H15X21301   5.188   2.335  14.848
  174DOPC  H15Y21302   5.330   2.383  14.747
  174DOPC  C31621303   5.374   2.236  14.899
  174DOPC  H16X21304   5.341   2.132  14.921
  174DOPC  H16Y21305   5.476   2.230  14.857
  174DOPC  C31721306   5.376   2.312  15.032
  174DOPC  H17X21307   5.410   2.417  15.015
  174DOPC  H17Y21308   5.272   2.319  15.071
  174DOPC  C31821309   5.462   2.241  15.135
  174DOPC  H18X21310   5.570   2.249  15.113
  174DOPC  H18Y21311   5.443   2.278  15.238
  174DOPC  H18Z21312   5.434   2.133  15.131
  175DOPC     N21313   3.163   5.687  13.045
  175DOPC   C1221314   3.148   5.837  13.026
  175DOPC  H12A21315   3.085   5.854  12.940
  175DOPC  H12B21316   3.244   5.881  13.004
  175DOPC   C1321317   3.249   5.627  12.938
  175DOPC  H13A21318   3.199   5.632  12.843
  175DOPC  H13B21319   3.345   5.676  12.931
  175DOPC  H13C21320   3.265   5.521  12.957
  175DOPC   C1421321   3.026   5.625  13.036
  175DOPC  H14A21322   3.028   5.519  13.058
  175DOPC  H14B21323   2.959   5.676  13.103
  175DOPC  H14C21324   2.986   5.637  12.936
  175DOPC   C1521325   3.219   5.656  13.181
  175DOPC  H15A21326   3.315   5.702  13.195
  175DOPC  H15B21327   3.227   5.550  13.196
  175DOPC  H15C21328   3.152   5.697  13.255
  175DOPC   C1121329   3.083   5.916  13.141
  175DOPC  H11A21330   3.135   5.897  13.238
  175DOPC  H11B21331   3.094   6.025  13.123
  175DOPC     P21332   2.836   5.956  13.072
  175DOPC   O1321333   2.849   5.915  12.930
  175DOPC   O1421334   2.854   6.100  13.100
  175DOPC   O1221335   2.947   5.877  13.154
  175DOPC   O1121336   2.701   5.901  13.132
  175DOPC    C121337   2.688   5.778  13.205
  175DOPC    HA21338   2.768   5.705  13.181
  175DOPC    HB21339   2.592   5.731  13.178
  175DOPC    C221340   2.685   5.798  13.360
  175DOPC    HS21341   2.608   5.876  13.381
  175DOPC   O2121342   2.815   5.841  13.404
  175DOPC   C2121343   2.819   5.892  13.525
  175DOPC   O2221344   2.723   5.917  13.596
  175DOPC   C2221345   2.966   5.911  13.562
  175DOPC   H2R21346   3.007   5.994  13.501
  175DOPC   H2S21347   3.018   5.817  13.534
  175DOPC    C321348   2.645   5.667  13.434
  175DOPC    HX21349   2.543   5.640  13.398
  175DOPC    HY21350   2.636   5.685  13.543
  175DOPC   O3121351   2.736   5.559  13.401
  175DOPC   C3121352   2.831   5.531  13.490
  175DOPC   O3221353   2.843   5.580  13.600
  175DOPC   C3221354   2.927   5.430  13.426
  175DOPC   H2X21355   2.872   5.377  13.345
  175DOPC   H2Y21356   3.009   5.488  13.378
  175DOPC   C2321357   2.989   5.937  13.712
  175DOPC   H3R21358   3.092   5.904  13.736
  175DOPC   H3S21359   2.920   5.875  13.775
  175DOPC   C2421360   2.978   6.085  13.750
  175DOPC   H4R21361   2.872   6.118  13.745
  175DOPC   H4S21362   3.035   6.145  13.676
  175DOPC   C2521363   3.038   6.114  13.889
  175DOPC   H5R21364   3.051   6.223  13.902
  175DOPC   H5S21365   3.138   6.065  13.890
  175DOPC   C2621366   2.958   6.058  14.007
  175DOPC   H6R21367   3.019   6.065  14.100
  175DOPC   H6S21368   2.937   5.950  13.990
  175DOPC   C2721369   2.828   6.134  14.028
  175DOPC   H7R21370   2.819   6.209  13.946
  175DOPC   H7S21371   2.831   6.191  14.124
  175DOPC   C2821372   2.704   6.044  14.021
  175DOPC   H8R21373   2.710   5.985  13.927
  175DOPC   H8S21374   2.613   6.107  14.011
  175DOPC   C2921375   2.691   5.962  14.145
  175DOPC   H9R21376   2.680   6.019  14.238
  175DOPC  C21021377   2.693   5.828  14.151
  175DOPC  H10R21378   2.679   5.780  14.249
  175DOPC  C21121379   2.708   5.731  14.036
  175DOPC  H11R21380   2.715   5.782  13.937
  175DOPC  H11S21381   2.619   5.666  14.030
  175DOPC  C21221382   2.835   5.646  14.055
  175DOPC  H12R21383   2.925   5.711  14.046
  175DOPC  H12S21384   2.840   5.572  13.973
  175DOPC  C21321385   2.840   5.572  14.190
  175DOPC  H13R21386   2.851   5.647  14.272
  175DOPC  H13S21387   2.930   5.508  14.193
  175DOPC  C21421388   2.715   5.489  14.220
  175DOPC  H14R21389   2.708   5.411  14.141
  175DOPC  H14S21390   2.622   5.550  14.215
  175DOPC  C21521391   2.724   5.423  14.357
  175DOPC  H15R21392   2.826   5.380  14.363
  175DOPC  H15S21393   2.650   5.341  14.362
  175DOPC  C21621394   2.691   5.516  14.474
  175DOPC  H16R21395   2.584   5.501  14.499
  175DOPC  H16S21396   2.702   5.622  14.442
  175DOPC  C21721397   2.774   5.497  14.602
  175DOPC  H17R21398   2.704   5.495  14.689
  175DOPC  H17S21399   2.838   5.587  14.614
  175DOPC  C21821400   2.864   5.373  14.608
  175DOPC  H18R21401   2.960   5.391  14.555
  175DOPC  H18S21402   2.815   5.285  14.561
  175DOPC  H18T21403   2.887   5.346  14.714
  175DOPC   C3321404   2.983   5.323  13.524
  175DOPC   H3X21405   3.021   5.238  13.463
  175DOPC   H3Y21406   2.904   5.286  13.592
  175DOPC   C3421407   3.095   5.371  13.615
  175DOPC   H4X21408   3.120   5.294  13.690
  175DOPC   H4Y21409   3.056   5.458  13.671
  175DOPC   C3521410   3.223   5.405  13.538
  175DOPC   H5X21411   3.201   5.468  13.450
  175DOPC   H5Y21412   3.271   5.311  13.502
  175DOPC   C3621413   3.320   5.481  13.627
  175DOPC   H6X21414   3.338   5.424  13.720
  175DOPC   H6Y21415   3.417   5.493  13.575
  175DOPC   C3721416   3.267   5.621  13.664
  175DOPC   H7X21417   3.253   5.680  13.571
  175DOPC   H7Y21418   3.169   5.617  13.717
  175DOPC   C3821419   3.368   5.686  13.756
  175DOPC   H8X21420   3.466   5.673  13.705
  175DOPC   H8Y21421   3.371   5.628  13.850
  175DOPC   C3921422   3.346   5.832  13.778
  175DOPC   H9X21423   3.330   5.891  13.687
  175DOPC  C31021424   3.345   5.894  13.897
  175DOPC  H10X21425   3.325   6.002  13.896
  175DOPC  C31121426   3.365   5.838  14.035
  175DOPC  H11X21427   3.460   5.877  14.078
  175DOPC  H11Y21428   3.372   5.727  14.035
  175DOPC  C31221429   3.251   5.880  14.129
  175DOPC  H12X21430   3.153   5.848  14.087
  175DOPC  H12Y21431   3.249   5.990  14.138
  175DOPC  C31321432   3.268   5.820  14.269
  175DOPC  H13X21433   3.257   5.710  14.264
  175DOPC  H13Y21434   3.372   5.842  14.303
  175DOPC  C31421435   3.171   5.878  14.372
  175DOPC  H14X21436   3.210   5.852  14.473
  175DOPC  H14Y21437   3.168   5.989  14.363
  175DOPC  C31521438   3.028   5.825  14.360
  175DOPC  H15X21439   3.032   5.714  14.365
  175DOPC  H15Y21440   2.986   5.853  14.261
  175DOPC  C31621441   2.934   5.876  14.470
  175DOPC  H16X21442   2.926   5.987  14.465
  175DOPC  H16Y21443   2.833   5.834  14.452
  175DOPC  C31721444   2.979   5.836  14.612
  175DOPC  H17X21445   3.005   5.728  14.612
  175DOPC  H17Y21446   3.072   5.892  14.638
  175DOPC  C31821447   2.872   5.863  14.717
  175DOPC  H18X21448   2.909   5.835  14.818
  175DOPC  H18Y21449   2.846   5.971  14.718
  175DOPC  H18Z21450   2.780   5.805  14.696
  176DOPC     N21451   2.982   1.853  13.032
  176DOPC   C1221452   2.940   1.782  13.161
  176DOPC  H12A21453   2.832   1.778  13.162
  176DOPC  H12B21454   2.970   1.843  13.245
  176DOPC   C1321455   3.112   1.797  12.981
  176DOPC  H13A21456   3.101   1.691  12.967
  176DOPC  H13B21457   3.140   1.843  12.888
  176DOPC  H13C21458   3.192   1.813  13.052
  176DOPC   C1421459   2.996   1.999  13.059
  176DOPC  H14A21460   2.902   2.043  13.089
  176DOPC  H14B21461   3.067   2.019  13.138
  176DOPC  H14C21462   3.035   2.054  12.974
  176DOPC   C1521463   2.876   1.824  12.930
  176DOPC  H15A21464   2.905   1.850  12.830
  176DOPC  H15B21465   2.782   1.869  12.958
  176DOPC  H15C21466   2.855   1.718  12.930
  176DOPC   C1121467   2.993   1.639  13.185
  176DOPC  H11A21468   3.104   1.640  13.193
  176DOPC  H11B21469   2.957   1.604  13.284
  176DOPC     P21470   2.809   1.489  13.075
  176DOPC   O1321471   2.822   1.351  13.026
  176DOPC   O1421472   2.721   1.582  13.001
  176DOPC   O1221473   2.955   1.550  13.081
  176DOPC   O1121474   2.762   1.488  13.226
  176DOPC    C121475   2.654   1.401  13.263
  176DOPC    HA21476   2.694   1.298  13.274
  176DOPC    HB21477   2.575   1.396  13.185
  176DOPC    C221478   2.581   1.440  13.397
  176DOPC    HS21479   2.478   1.473  13.372
  176DOPC   O2121480   2.649   1.543  13.472
  176DOPC   C2121481   2.644   1.665  13.424
  176DOPC   O2221482   2.590   1.700  13.321
  176DOPC   C2221483   2.712   1.764  13.520
  176DOPC   H2R21484   2.699   1.864  13.474
  176DOPC   H2S21485   2.820   1.742  13.525
  176DOPC    C321486   2.570   1.315  13.488
  176DOPC    HX21487   2.510   1.238  13.436
  176DOPC    HY21488   2.516   1.341  13.581
  176DOPC   O3121489   2.704   1.264  13.510
  176DOPC   C3121490   2.759   1.311  13.621
  176DOPC   O3221491   2.701   1.330  13.726
  176DOPC   C3221492   2.908   1.339  13.598
  176DOPC   H2X21493   2.951   1.337  13.700
  176DOPC   H2Y21494   2.952   1.259  13.534
  176DOPC   C2321495   2.650   1.769  13.662
  176DOPC   H3R21496   2.540   1.754  13.659
  176DOPC   H3S21497   2.667   1.870  13.705
  176DOPC   C2421498   2.711   1.668  13.760
  176DOPC   H4R21499   2.816   1.698  13.785
  176DOPC   H4S21500   2.713   1.567  13.714
  176DOPC   C2521501   2.631   1.657  13.890
  176DOPC   H5R21502   2.536   1.604  13.867
  176DOPC   H5S21503   2.607   1.760  13.924
  176DOPC   C2621504   2.703   1.586  14.004
  176DOPC   H6R21505   2.720   1.663  14.082
  176DOPC   H6S21506   2.802   1.548  13.972
  176DOPC   C2721507   2.622   1.469  14.065
  176DOPC   H7R21508   2.629   1.382  13.996
  176DOPC   H7S21509   2.514   1.498  14.070
  176DOPC   C2821510   2.669   1.428  14.205
  176DOPC   H8R21511   2.775   1.396  14.199
  176DOPC   H8S21512   2.612   1.338  14.238
  176DOPC   C2921513   2.654   1.541  14.304
  176DOPC   H9R21514   2.728   1.621  14.291
  176DOPC  C21021515   2.562   1.558  14.400
  176DOPC  H10R21516   2.568   1.647  14.465
  176DOPC  C21121517   2.447   1.466  14.433
  176DOPC  H11R21518   2.419   1.403  14.345
  176DOPC  H11S21519   2.357   1.526  14.458
  176DOPC  C21221520   2.477   1.375  14.552
  176DOPC  H12R21521   2.381   1.331  14.585
  176DOPC  H12S21522   2.514   1.435  14.638
  176DOPC  C21321523   2.572   1.260  14.521
  176DOPC  H13R21524   2.676   1.299  14.508
  176DOPC  H13S21525   2.546   1.213  14.423
  176DOPC  C21421526   2.566   1.154  14.631
  176DOPC  H14R21527   2.638   1.073  14.603
  176DOPC  H14S21528   2.465   1.108  14.632
  176DOPC  C21521529   2.598   1.210  14.771
  176DOPC  H15R21530   2.604   1.125  14.842
  176DOPC  H15S21531   2.515   1.276  14.804
  176DOPC  C21621532   2.731   1.287  14.770
  176DOPC  H16R21533   2.723   1.375  14.702
  176DOPC  H16S21534   2.804   1.217  14.724
  176DOPC  C21721535   2.788   1.341  14.903
  176DOPC  H17R21536   2.730   1.432  14.926
  176DOPC  H17S21537   2.892   1.375  14.884
  176DOPC  C21821538   2.789   1.247  15.025
  176DOPC  H18R21539   2.693   1.190  15.032
  176DOPC  H18S21540   2.799   1.307  15.118
  176DOPC  H18T21541   2.874   1.176  15.026
  176DOPC   C3321542   2.944   1.478  13.542
  176DOPC   H3X21543   2.896   1.553  13.608
  176DOPC   H3Y21544   2.901   1.490  13.440
  176DOPC   C3421545   3.096   1.501  13.542
  176DOPC   H4X21546   3.142   1.442  13.459
  176DOPC   H4Y21547   3.138   1.463  13.637
  176DOPC   C3521548   3.137   1.649  13.531
  176DOPC   H5X21549   3.086   1.696  13.444
  176DOPC   H5Y21550   3.246   1.656  13.514
  176DOPC   C3621551   3.103   1.725  13.659
  176DOPC   H6X21552   2.996   1.709  13.685
  176DOPC   H6Y21553   3.163   1.685  13.743
  176DOPC   C3721554   3.121   1.876  13.648
  176DOPC   H7X21555   3.226   1.902  13.626
  176DOPC   H7Y21556   3.059   1.914  13.564
  176DOPC   C3821557   3.073   1.943  13.777
  176DOPC   H8X21558   2.968   1.913  13.797
  176DOPC   H8Y21559   3.071   2.052  13.756
  176DOPC   C3921560   3.165   1.914  13.892
  176DOPC   H9X21561   3.269   1.947  13.877
  176DOPC  C31021562   3.133   1.856  14.009
  176DOPC  H10X21563   3.213   1.849  14.085
  176DOPC  C31121564   2.999   1.805  14.054
  176DOPC  H11X21565   2.933   1.781  13.967
  176DOPC  H11Y21566   2.945   1.882  14.112
  176DOPC  C31221567   3.010   1.679  14.142
  176DOPC  H12X21568   3.046   1.594  14.081
  176DOPC  H12Y21569   2.908   1.652  14.178
  176DOPC  C31321570   3.099   1.694  14.267
  176DOPC  H13X21571   3.204   1.708  14.234
  176DOPC  H13Y21572   3.069   1.784  14.325
  176DOPC  C31421573   3.094   1.569  14.356
  176DOPC  H14X21574   3.078   1.482  14.289
  176DOPC  H14Y21575   3.192   1.556  14.406
  176DOPC  C31521576   2.985   1.573  14.464
  176DOPC  H15X21577   2.979   1.473  14.513
  176DOPC  H15Y21578   2.886   1.591  14.418
  176DOPC  C31621579   3.009   1.678  14.572
  176DOPC  H16X21580   3.117   1.703  14.573
  176DOPC  H16Y21581   2.953   1.770  14.544
  176DOPC  C31721582   2.970   1.634  14.714
  176DOPC  H17X21583   2.943   1.725  14.772
  176DOPC  H17Y21584   2.880   1.570  14.709
  176DOPC  C31821585   3.084   1.562  14.786
  176DOPC  H18X21586   3.114   1.471  14.731
  176DOPC  H18Y21587   3.173   1.629  14.794
  176DOPC  H18Z21588   3.053   1.533  14.889
  177DOPC     N21589   4.891   5.972  12.888
  177DOPC   C1221590   4.953   5.918  13.018
  177DOPC  H12A21591   5.044   5.866  12.995
  177DOPC  H12B21592   4.886   5.846  13.061
  177DOPC   C1321593   4.759   6.034  12.921
  177DOPC  H13A21594   4.773   6.102  13.004
  177DOPC  H13B21595   4.714   6.087  12.838
  177DOPC  H13C21596   4.690   5.961  12.960
  177DOPC   C1421597   4.871   5.860  12.791
  177DOPC  H14A21598   4.961   5.802  12.776
  177DOPC  H14B21599   4.794   5.792  12.825
  177DOPC  H14C21600   4.841   5.898  12.694
  177DOPC   C1521601   4.981   6.075  12.828
  177DOPC  H15A21602   5.077   6.034  12.801
  177DOPC  H15B21603   4.999   6.154  12.900
  177DOPC  H15C21604   4.937   6.119  12.740
  177DOPC   C1121605   4.982   6.021  13.131
  177DOPC  H11A21606   5.045   5.973  13.209
  177DOPC  H11B21607   5.042   6.106  13.092
  177DOPC     P21608   4.765   5.974  13.269
  177DOPC   O1321609   4.651   5.942  13.181
  177DOPC   O1421610   4.734   6.031  13.402
  177DOPC   O1221611   4.861   6.072  13.189
  177DOPC   O1121612   4.856   5.844  13.283
  177DOPC    C121613   4.806   5.718  13.329
  177DOPC    HA21614   4.839   5.639  13.258
  177DOPC    HB21615   4.695   5.715  13.332
  177DOPC    C221616   4.863   5.681  13.469
  177DOPC    HS21617   4.823   5.581  13.499
  177DOPC   O2121618   4.828   5.779  13.568
  177DOPC   C2121619   4.702   5.785  13.602
  177DOPC   O2221620   4.612   5.711  13.565
  177DOPC   C2221621   4.684   5.897  13.705
  177DOPC   H2R21622   4.584   5.886  13.752
  177DOPC   H2S21623   4.686   5.993  13.648
  177DOPC    C321624   5.018   5.668  13.466
  177DOPC    HX21625   5.059   5.759  13.417
  177DOPC    HY21626   5.044   5.581  13.402
  177DOPC   O3121627   5.071   5.647  13.599
  177DOPC   C3121628   5.132   5.750  13.656
  177DOPC   O3221629   5.165   5.854  13.601
  177DOPC   C3221630   5.154   5.719  13.804
  177DOPC   H2X21631   5.055   5.715  13.853
  177DOPC   H2Y21632   5.201   5.619  13.811
  177DOPC   C2321633   4.794   5.898  13.813
  177DOPC   H3R21634   4.894   5.889  13.765
  177DOPC   H3S21635   4.782   5.812  13.882
  177DOPC   C2421636   4.797   6.029  13.891
  177DOPC   H4R21637   4.698   6.047  13.939
  177DOPC   H4S21638   4.816   6.112  13.820
  177DOPC   C2521639   4.906   6.029  13.998
  177DOPC   H5R21640   5.002   5.994  13.955
  177DOPC   H5S21641   4.876   5.955  14.076
  177DOPC   C2621642   4.928   6.167  14.060
  177DOPC   H6R21643   4.831   6.220  14.070
  177DOPC   H6S21644   4.989   6.228  13.990
  177DOPC   C2721645   4.998   6.162  14.197
  177DOPC   H7R21646   5.014   6.266  14.232
  177DOPC   H7S21647   5.097   6.115  14.183
  177DOPC   C2821648   4.923   6.082  14.306
  177DOPC   H8R21649   4.975   6.101  14.403
  177DOPC   H8S21650   4.935   5.974  14.285
  177DOPC   C2921651   4.775   6.115  14.312
  177DOPC   H9R21652   4.723   6.102  14.217
  177DOPC  C21021653   4.703   6.155  14.419
  177DOPC  H10R21654   4.596   6.174  14.405
  177DOPC  C21121655   4.753   6.176  14.559
  177DOPC  H11R21656   4.733   6.280  14.592
  177DOPC  H11S21657   4.862   6.159  14.569
  177DOPC  C21221658   4.681   6.079  14.654
  177DOPC  H12R21659   4.571   6.094  14.647
  177DOPC  H12S21660   4.711   6.103  14.759
  177DOPC  C21321661   4.715   5.933  14.625
  177DOPC  H13R21662   4.823   5.915  14.643
  177DOPC  H13S21663   4.695   5.909  14.519
  177DOPC  C21421664   4.631   5.840  14.712
  177DOPC  H14R21665   4.569   5.904  14.779
  177DOPC  H14S21666   4.697   5.779  14.778
  177DOPC  C21521667   4.535   5.751  14.632
  177DOPC  H15R21668   4.478   5.819  14.565
  177DOPC  H15S21669   4.462   5.705  14.702
  177DOPC  C21621670   4.599   5.640  14.546
  177DOPC  H16R21671   4.647   5.685  14.457
  177DOPC  H16S21672   4.518   5.572  14.511
  177DOPC  C21721673   4.704   5.556  14.619
  177DOPC  H17R21674   4.790   5.623  14.640
  177DOPC  H17S21675   4.748   5.478  14.554
  177DOPC  C21821676   4.655   5.495  14.748
  177DOPC  H18R21677   4.640   5.575  14.824
  177DOPC  H18S21678   4.728   5.424  14.793
  177DOPC  H18T21679   4.561   5.438  14.732
  177DOPC   C3321680   5.244   5.823  13.876
  177DOPC   H3X21681   5.198   5.924  13.870
  177DOPC   H3Y21682   5.343   5.828  13.826
  177DOPC   C3421683   5.264   5.784  14.023
  177DOPC   H4X21684   5.310   5.683  14.026
  177DOPC   H4Y21685   5.165   5.777  14.072
  177DOPC   C3521686   5.355   5.881  14.101
  177DOPC   H5X21687   5.308   5.981  14.107
  177DOPC   H5Y21688   5.451   5.891  14.045
  177DOPC   C3621689   5.386   5.828  14.242
  177DOPC   H6X21690   5.422   5.723  14.232
  177DOPC   H6Y21691   5.469   5.887  14.288
  177DOPC   C3721692   5.265   5.832  14.336
  177DOPC   H7X21693   5.267   5.926  14.395
  177DOPC   H7Y21694   5.172   5.834  14.277
  177DOPC   C3821695   5.256   5.709  14.429
  177DOPC   H8X21696   5.230   5.623  14.364
  177DOPC   H8Y21697   5.168   5.725  14.495
  177DOPC   C3921698   5.379   5.672  14.509
  177DOPC   H9X21699   5.412   5.568  14.491
  177DOPC  C31021700   5.450   5.744  14.599
  177DOPC  H10X21701   5.535   5.694  14.647
  177DOPC  C31121702   5.429   5.885  14.647
  177DOPC  H11X21703   5.375   5.946  14.572
  177DOPC  H11Y21704   5.527   5.934  14.662
  177DOPC  C31221705   5.349   5.893  14.779
  177DOPC  H12X21706   5.243   5.871  14.755
  177DOPC  H12Y21707   5.352   5.998  14.817
  177DOPC  C31321708   5.394   5.800  14.893
  177DOPC  H13X21709   5.414   5.698  14.852
  177DOPC  H13Y21710   5.488   5.838  14.938
  177DOPC  C31421711   5.284   5.788  15.000
  177DOPC  H14X21712   5.275   5.886  15.051
  177DOPC  H14Y21713   5.189   5.775  14.943
  177DOPC  C31521714   5.287   5.676  15.105
  177DOPC  H15X21715   5.192   5.678  15.161
  177DOPC  H15Y21716   5.360   5.706  15.184
  177DOPC  C31621717   5.332   5.532  15.072
  177DOPC  H16X21718   5.401   5.536  14.985
  177DOPC  H16Y21719   5.392   5.499  15.158
  177DOPC  C31721720   5.237   5.411  15.049
  177DOPC  H17X21721   5.199   5.414  14.945
  177DOPC  H17Y21722   5.314   5.332  15.060
  177DOPC  C31821723   5.127   5.353  15.139
  177DOPC  H18X21724   5.121   5.243  15.120
  177DOPC  H18Y21725   5.145   5.363  15.248
  177DOPC  H18Z21726   5.026   5.390  15.112
  178DOPC     N21727   2.183   5.761  12.868
  178DOPC   C1221728   2.075   5.787  12.973
  178DOPC  H12A21729   2.084   5.712  13.051
  178DOPC  H12B21730   1.977   5.776  12.930
  178DOPC   C1321731   2.318   5.767  12.933
  178DOPC  H13A21732   2.326   5.858  12.991
  178DOPC  H13B21733   2.332   5.688  13.006
  178DOPC  H13C21734   2.400   5.763  12.862
  178DOPC   C1421735   2.175   5.866  12.762
  178DOPC  H14A21736   2.248   5.849  12.684
  178DOPC  H14B21737   2.077   5.869  12.716
  178DOPC  H14C21738   2.195   5.963  12.805
  178DOPC   C1521739   2.165   5.625  12.808
  178DOPC  H15A21740   2.241   5.607  12.732
  178DOPC  H15B21741   2.069   5.614  12.760
  178DOPC  H15C21742   2.176   5.548  12.883
  178DOPC   C1121743   2.079   5.922  13.051
  178DOPC  H11A21744   2.076   6.007  12.979
  178DOPC  H11B21745   1.988   5.931  13.114
  178DOPC     P21746   2.209   5.837  13.259
  178DOPC   O1321747   2.352   5.807  13.279
  178DOPC   O1421748   2.120   5.721  13.239
  178DOPC   O1221749   2.196   5.932  13.131
  178DOPC   O1121750   2.153   5.928  13.375
  178DOPC    C121751   2.236   5.954  13.489
  178DOPC    HA21752   2.190   6.034  13.551
  178DOPC    HB21753   2.336   5.992  13.458
  178DOPC    C221754   2.255   5.829  13.580
  178DOPC    HS21755   2.279   5.743  13.514
  178DOPC   O2121756   2.132   5.806  13.652
  178DOPC   C2121757   2.116   5.682  13.693
  178DOPC   O2221758   2.198   5.592  13.683
  178DOPC   C2221759   1.976   5.665  13.751
  178DOPC   H2R21760   1.918   5.607  13.676
  178DOPC   H2S21761   1.927   5.764  13.763
  178DOPC    C321762   2.377   5.845  13.675
  178DOPC    HX21763   2.468   5.856  13.612
  178DOPC    HY21764   2.388   5.750  13.732
  178DOPC   O3121765   2.364   5.963  13.757
  178DOPC   C3121766   2.387   5.945  13.886
  178DOPC   O3221767   2.426   5.844  13.940
  178DOPC   C3221768   2.345   6.071  13.960
  178DOPC   H2X21769   2.403   6.075  14.055
  178DOPC   H2Y21770   2.369   6.161  13.899
  178DOPC   C2321771   1.980   5.589  13.885
  178DOPC   H3R21772   2.054   5.507  13.880
  178DOPC   H3S21773   1.881   5.541  13.903
  178DOPC   C2421774   2.013   5.678  14.004
  178DOPC   H4R21775   1.932   5.753  14.020
  178DOPC   H4S21776   2.107   5.734  13.984
  178DOPC   C2521777   2.031   5.594  14.131
  178DOPC   H5R21778   2.103   5.512  14.109
  178DOPC   H5S21779   1.934   5.548  14.156
  178DOPC   C2621780   2.082   5.674  14.251
  178DOPC   H6R21781   2.060   5.618  14.344
  178DOPC   H6S21782   2.024   5.769  14.259
  178DOPC   C2721783   2.234   5.701  14.250
  178DOPC   H7R21784   2.259   5.777  14.173
  178DOPC   H7S21785   2.287   5.607  14.223
  178DOPC   C2821786   2.281   5.748  14.389
  178DOPC   H8R21787   2.246   5.673  14.463
  178DOPC   H8S21788   2.225   5.841  14.412
  178DOPC   C2921789   2.429   5.765  14.410
  178DOPC   H9R21790   2.486   5.671  14.408
  178DOPC  C21021791   2.495   5.881  14.423
  178DOPC  H10R21792   2.604   5.879  14.439
  178DOPC  C21121793   2.436   6.019  14.418
  178DOPC  H11R21794   2.329   6.014  14.386
  178DOPC  H11S21795   2.486   6.078  14.339
  178DOPC  C21221796   2.444   6.100  14.549
  178DOPC  H12R21797   2.400   6.199  14.528
  178DOPC  H12S21798   2.550   6.116  14.578
  178DOPC  C21321799   2.367   6.038  14.666
  178DOPC  H13R21800   2.431   5.965  14.721
  178DOPC  H13S21801   2.280   5.981  14.626
  178DOPC  C21421802   2.314   6.146  14.762
  178DOPC  H14R21803   2.239   6.102  14.832
  178DOPC  H14S21804   2.260   6.222  14.702
  178DOPC  C21521805   2.426   6.214  14.841
  178DOPC  H15R21806   2.501   6.249  14.766
  178DOPC  H15S21807   2.476   6.141  14.907
  178DOPC  C21621808   2.380   6.337  14.919
  178DOPC  H16R21809   2.320   6.401  14.851
  178DOPC  H16S21810   2.470   6.395  14.951
  178DOPC  C21721811   2.298   6.306  15.045
  178DOPC  H17R21812   2.211   6.244  15.014
  178DOPC  H17S21813   2.258   6.401  15.086
  178DOPC  C21821814   2.377   6.235  15.155
  178DOPC  H18R21815   2.475   6.286  15.172
  178DOPC  H18S21816   2.396   6.130  15.126
  178DOPC  H18T21817   2.320   6.236  15.251
  178DOPC   C3321818   2.195   6.062  13.991
  178DOPC   H3X21819   2.174   5.962  14.036
  178DOPC   H3Y21820   2.135   6.069  13.898
  178DOPC   C3421821   2.149   6.168  14.090
  178DOPC   H4X21822   2.135   6.264  14.036
  178DOPC   H4Y21823   2.225   6.184  14.169
  178DOPC   C3521824   2.017   6.124  14.155
  178DOPC   H5X21825   1.953   6.077  14.078
  178DOPC   H5Y21826   1.965   6.215  14.192
  178DOPC   C3621827   2.035   6.028  14.273
  178DOPC   H6X21828   1.940   5.972  14.286
  178DOPC   H6Y21829   2.116   5.955  14.251
  178DOPC   C3721830   2.067   6.102  14.403
  178DOPC   H7X21831   2.173   6.136  14.403
  178DOPC   H7Y21832   2.008   6.196  14.398
  178DOPC   C3821833   2.035   6.025  14.533
  178DOPC   H8X21834   2.078   6.083  14.618
  178DOPC   H8Y21835   2.086   5.926  14.532
  178DOPC   C3921836   1.887   6.011  14.555
  178DOPC   H9X21837   1.839   6.107  14.580
  178DOPC  C31021838   1.812   5.902  14.572
  178DOPC  H10X21839   1.704   5.915  14.589
  178DOPC  C31121840   1.861   5.761  14.574
  178DOPC  H11X21841   1.960   5.749  14.525
  178DOPC  H11Y21842   1.790   5.693  14.523
  178DOPC  C31221843   1.871   5.726  14.723
  178DOPC  H12X21844   1.898   5.618  14.730
  178DOPC  H12Y21845   1.773   5.737  14.774
  178DOPC  C31321846   1.978   5.805  14.801
  178DOPC  H13X21847   2.077   5.786  14.754
  178DOPC  H13Y21848   1.959   5.914  14.798
  178DOPC  C31421849   1.981   5.762  14.948
  178DOPC  H14X21850   1.895   5.805  15.004
  178DOPC  H14Y21851   1.964   5.652  14.951
  178DOPC  C31521852   2.115   5.788  15.017
  178DOPC  H15X21853   2.198   5.753  14.953
  178DOPC  H15Y21854   2.112   5.722  15.107
  178DOPC  C31621855   2.145   5.931  15.066
  178DOPC  H16X21856   2.210   5.922  15.156
  178DOPC  H16Y21857   2.206   5.985  14.989
  178DOPC  C31721858   2.023   6.016  15.103
  178DOPC  H17X21859   1.979   6.061  15.011
  178DOPC  H17Y21860   1.947   5.946  15.144
  178DOPC  C31821861   2.047   6.124  15.209
  178DOPC  H18X21862   1.955   6.139  15.270
  178DOPC  H18Y21863   2.129   6.094  15.278
  178DOPC  H18Z21864   2.073   6.222  15.163
  179DOPC     N21865   5.917   5.194  12.869
  179DOPC   C1221866   5.896   5.120  13.001
  179DOPC  H12A21867   5.949   5.025  12.995
  179DOPC  H12B21868   5.792   5.097  13.014
  179DOPC   C1321869   6.063   5.210  12.847
  179DOPC  H13A21870   6.087   5.270  12.760
  179DOPC  H13B21871   6.107   5.258  12.933
  179DOPC  H13C21872   6.114   5.115  12.839
  179DOPC   C1421873   5.856   5.330  12.877
  179DOPC  H14A21874   5.898   5.382  12.963
  179DOPC  H14B21875   5.879   5.389  12.790
  179DOPC  H14C21876   5.749   5.325  12.892
  179DOPC   C1521877   5.859   5.116  12.755
  179DOPC  H15A21878   5.753   5.099  12.767
  179DOPC  H15B21879   5.905   5.019  12.747
  179DOPC  H15C21880   5.874   5.167  12.661
  179DOPC   C1121881   5.946   5.189  13.130
  179DOPC  H11A21882   5.892   5.285  13.145
  179DOPC  H11B21883   5.922   5.123  13.216
  179DOPC     P21884   6.167   5.267  13.246
  179DOPC   O1321885   6.294   5.320  13.190
  179DOPC   O1421886   6.175   5.159  13.347
  179DOPC   O1221887   6.086   5.211  13.123
  179DOPC   O1121888   6.073   5.384  13.298
  179DOPC    C121889   6.065   5.507  13.225
  179DOPC    HA21890   6.045   5.489  13.117
  179DOPC    HB21891   6.163   5.559  13.233
  179DOPC    C221892   5.957   5.607  13.279
  179DOPC    HS21893   5.994   5.710  13.263
  179DOPC   O2121894   5.930   5.583  13.418
  179DOPC   C2121895   6.024   5.626  13.499
  179DOPC   O2221896   6.115   5.701  13.468
  179DOPC   C2221897   5.996   5.572  13.639
  179DOPC   H2R21898   5.886   5.559  13.650
  179DOPC   H2S21899   6.030   5.648  13.713
  179DOPC    C321900   5.821   5.600  13.202
  179DOPC    HX21901   5.842   5.622  13.095
  179DOPC    HY21902   5.756   5.683  13.239
  179DOPC   O3121903   5.756   5.472  13.212
  179DOPC   C3121904   5.669   5.459  13.312
  179DOPC   O3221905   5.624   5.549  13.380
  179DOPC   C3221906   5.627   5.312  13.324
  179DOPC   H2X21907   5.518   5.306  13.303
  179DOPC   H2Y21908   5.682   5.252  13.248
  179DOPC   C2321909   6.065   5.438  13.665
  179DOPC   H3R21910   6.055   5.371  13.576
  179DOPC   H3S21911   6.018   5.388  13.752
  179DOPC   C2421912   6.211   5.460  13.695
  179DOPC   H4R21913   6.219   5.523  13.787
  179DOPC   H4S21914   6.252   5.517  13.609
  179DOPC   C2521915   6.292   5.332  13.717
  179DOPC   H5R21916   6.400   5.356  13.722
  179DOPC   H5S21917   6.277   5.262  13.631
  179DOPC   C2621918   6.253   5.265  13.848
  179DOPC   H6R21919   6.153   5.220  13.832
  179DOPC   H6S21920   6.241   5.342  13.928
  179DOPC   C2721921   6.358   5.163  13.895
  179DOPC   H7R21922   6.450   5.218  13.924
  179DOPC   H7S21923   6.384   5.097  13.809
  179DOPC   C2821924   6.309   5.079  14.013
  179DOPC   H8R21925   6.288   5.145  14.100
  179DOPC   H8S21926   6.387   5.006  14.043
  179DOPC   C2921927   6.185   5.010  13.964
  179DOPC   H9R21928   6.185   4.988  13.856
  179DOPC  C21021929   6.079   4.975  14.036
  179DOPC  H10R21930   5.997   4.925  13.982
  179DOPC  C21121931   6.060   4.996  14.183
  179DOPC  H11R21932   6.159   4.998  14.234
  179DOPC  H11S21933   6.004   4.911  14.227
  179DOPC  C21221934   5.989   5.129  14.217
  179DOPC  H12R21935   6.019   5.209  14.147
  179DOPC  H12S21936   6.030   5.157  14.317
  179DOPC  C21321937   5.836   5.119  14.228
  179DOPC  H13R21938   5.812   5.013  14.251
  179DOPC  H13S21939   5.785   5.138  14.131
  179DOPC  C21421940   5.767   5.196  14.341
  179DOPC  H14R21941   5.661   5.165  14.346
  179DOPC  H14S21942   5.769   5.305  14.319
  179DOPC  C21521943   5.833   5.169  14.477
  179DOPC  H15R21944   5.766   5.205  14.558
  179DOPC  H15S21945   5.924   5.233  14.481
  179DOPC  C21621946   5.876   5.023  14.503
  179DOPC  H16R21947   5.896   4.960  14.414
  179DOPC  H16S21948   5.793   4.971  14.556
  179DOPC  C21721949   6.008   5.021  14.580
  179DOPC  H17R21950   6.006   5.114  14.641
  179DOPC  H17S21951   6.094   5.032  14.510
  179DOPC  C21821952   6.031   4.902  14.674
  179DOPC  H18R21953   6.062   4.937  14.774
  179DOPC  H18S21954   6.110   4.836  14.633
  179DOPC  H18T21955   5.936   4.845  14.687
  179DOPC   C3321956   5.657   5.257  13.465
  179DOPC   H3X21957   5.622   5.152  13.471
  179DOPC   H3Y21958   5.599   5.314  13.541
  179DOPC   C3421959   5.806   5.265  13.499
  179DOPC   H4X21960   5.830   5.369  13.527
  179DOPC   H4Y21961   5.867   5.242  13.409
  179DOPC   C3521962   5.852   5.171  13.611
  179DOPC   H5X21963   5.954   5.199  13.644
  179DOPC   H5Y21964   5.863   5.068  13.571
  179DOPC   C3621965   5.760   5.167  13.733
  179DOPC   H6X21966   5.665   5.113  13.710
  179DOPC   H6Y21967   5.814   5.108  13.810
  179DOPC   C3721968   5.726   5.304  13.794
  179DOPC   H7X21969   5.806   5.377  13.767
  179DOPC   H7Y21970   5.630   5.342  13.754
  179DOPC   C3821971   5.722   5.291  13.946
  179DOPC   H8X21972   5.822   5.251  13.973
  179DOPC   H8Y21973   5.648   5.212  13.972
  179DOPC   C3921974   5.692   5.417  14.021
  179DOPC   H9X21975   5.585   5.442  14.032
  179DOPC  C31021976   5.783   5.500  14.073
  179DOPC  H10X21977   5.749   5.591  14.126
  179DOPC  C31121978   5.932   5.481  14.064
  179DOPC  H11X21979   5.968   5.531  13.972
  179DOPC  H11Y21980   5.962   5.375  14.053
  179DOPC  C31221981   6.008   5.543  14.182
  179DOPC  H12X21982   5.965   5.642  14.207
  179DOPC  H12Y21983   6.113   5.556  14.150
  179DOPC  C31321984   6.007   5.470  14.315
  179DOPC  H13X21985   5.907   5.477  14.363
  179DOPC  H13Y21986   6.034   5.363  14.302
  179DOPC  C31421987   6.114   5.536  14.402
  179DOPC  H14X21988   6.214   5.507  14.364
  179DOPC  H14Y21989   6.106   5.646  14.393
  179DOPC  C31521990   6.104   5.501  14.550
  179DOPC  H15X21991   6.096   5.391  14.564
  179DOPC  H15Y21992   6.011   5.548  14.590
  179DOPC  C31621993   6.229   5.555  14.621
  179DOPC  H16X21994   6.317   5.499  14.585
  179DOPC  H16Y21995   6.242   5.661  14.588
  179DOPC  C31721996   6.223   5.551  14.773
  179DOPC  H17X21997   6.238   5.446  14.807
  179DOPC  H17Y21998   6.311   5.607  14.812
  179DOPC  C31821999   6.097   5.608  14.837
  179DOPC  H18X22000   6.084   5.715  14.810
  179DOPC  H18Y22001   6.006   5.551  14.805
  179DOPC  H18Z22002   6.105   5.599  14.947
  180DOPC     N22003   6.447   3.227  12.873
  180DOPC   C1222004   6.334   3.253  12.972
  180DOPC  H12A22005   6.305   3.159  13.017
  180DOPC  H12B22006   6.247   3.291  12.919
  180DOPC   C1322007   6.529   3.111  12.922
  180DOPC  H13A22008   6.564   3.133  13.022
  180DOPC  H13B22009   6.471   3.020  12.929
  180DOPC  H13C22010   6.616   3.092  12.861
  180DOPC   C1422011   6.537   3.346  12.868
  180DOPC  H14A22012   6.625   3.329  12.807
  180DOPC  H14B22013   6.485   3.434  12.835
  180DOPC  H14C22014   6.571   3.364  12.969
  180DOPC   C1522015   6.392   3.201  12.737
  180DOPC  H15A22016   6.334   3.110  12.735
  180DOPC  H15B22017   6.473   3.192  12.666
  180DOPC  H15C22018   6.329   3.283  12.707
  180DOPC   C1122019   6.365   3.347  13.090
  180DOPC  H11A22020   6.387   3.450  13.053
  180DOPC  H11B22021   6.275   3.357  13.154
  180DOPC     P22022   6.448   3.185  13.270
  180DOPC   O1322023   6.573   3.115  13.302
  180DOPC   O1422024   6.335   3.103  13.218
  180DOPC   O1222025   6.478   3.297  13.162
  180DOPC   O1122026   6.398   3.278  13.388
  180DOPC    C122027   6.471   3.303  13.508
  180DOPC    HA22028   6.498   3.410  13.514
  180DOPC    HB22029   6.565   3.245  13.514
  180DOPC    C222030   6.380   3.269  13.629
  180DOPC    HS22031   6.432   3.296  13.723
  180DOPC   O2122032   6.362   3.125  13.621
  180DOPC   C2122033   6.464   3.050  13.669
  180DOPC   O2222034   6.566   3.095  13.717
  180DOPC   C2222035   6.423   2.901  13.667
  180DOPC   H2R22036   6.411   2.874  13.560
  180DOPC   H2S22037   6.325   2.893  13.718
  180DOPC    C322038   6.247   3.363  13.624
  180DOPC    HX22039   6.212   3.360  13.519
  180DOPC    HY22040   6.288   3.465  13.640
  180DOPC   O3122041   6.135   3.340  13.719
  180DOPC   C3122042   6.005   3.371  13.681
  180DOPC   O3222043   5.982   3.428  13.576
  180DOPC   C3222044   5.884   3.324  13.776
  180DOPC   H2X22045   5.908   3.365  13.877
  180DOPC   H2Y22046   5.795   3.377  13.737
  180DOPC   C2322047   6.514   2.795  13.735
  180DOPC   H3R22048   6.622   2.819  13.721
  180DOPC   H3S22049   6.494   2.698  13.684
  180DOPC   C2422050   6.483   2.769  13.884
  180DOPC   H4R22051   6.525   2.671  13.914
  180DOPC   H4S22052   6.373   2.764  13.901
  180DOPC   C2522053   6.546   2.877  13.973
  180DOPC   H5R22054   6.509   2.976  13.941
  180DOPC   H5S22055   6.656   2.876  13.957
  180DOPC   C2622056   6.519   2.861  14.123
  180DOPC   H6R22057   6.560   2.763  14.158
  180DOPC   H6S22058   6.409   2.860  14.140
  180DOPC   C2722059   6.583   2.975  14.202
  180DOPC   H7R22060   6.682   2.997  14.156
  180DOPC   H7S22061   6.602   2.945  14.307
  180DOPC   C2822062   6.495   3.102  14.203
  180DOPC   H8R22063   6.411   3.085  14.273
  180DOPC   H8S22064   6.451   3.113  14.102
  180DOPC   C2922065   6.574   3.225  14.242
  180DOPC   H9R22066   6.658   3.207  14.310
  180DOPC  C21022067   6.548   3.351  14.201
  180DOPC  H10R22068   6.612   3.433  14.237
  180DOPC  C21122069   6.436   3.391  14.109
  180DOPC  H11R22070   6.405   3.306  14.045
  180DOPC  H11S22071   6.470   3.470  14.039
  180DOPC  C21222072   6.311   3.444  14.183
  180DOPC  H12R22073   6.227   3.450  14.111
  180DOPC  H12S22074   6.332   3.548  14.218
  180DOPC  C21322075   6.264   3.362  14.305
  180DOPC  H13R22076   6.348   3.353  14.378
  180DOPC  H13S22077   6.236   3.259  14.274
  180DOPC  C21422078   6.147   3.429  14.377
  180DOPC  H14R22079   6.057   3.424  14.312
  180DOPC  H14S22080   6.172   3.536  14.393
  180DOPC  C21522081   6.112   3.366  14.513
  180DOPC  H15R22082   6.206   3.358  14.573
  180DOPC  H15S22083   6.071   3.264  14.498
  180DOPC  C21622084   6.007   3.449  14.588
  180DOPC  H16R22085   5.912   3.441  14.531
  180DOPC  H16S22086   6.040   3.555  14.587
  180DOPC  C21722087   5.977   3.406  14.731
  180DOPC  H17R22088   5.933   3.304  14.728
  180DOPC  H17S22089   5.899   3.474  14.772
  180DOPC  C21822090   6.098   3.407  14.824
  180DOPC  H18R22091   6.148   3.507  14.821
  180DOPC  H18S22092   6.172   3.330  14.793
  180DOPC  H18T22093   6.067   3.387  14.928
  180DOPC   C3322094   5.846   3.170  13.793
  180DOPC   H3X22095   5.933   3.130  13.848
  180DOPC   H3Y22096   5.835   3.121  13.694
  180DOPC   C3422097   5.740   3.100  13.884
  180DOPC   H4X22098   5.640   3.120  13.840
  180DOPC   H4Y22099   5.742   3.145  13.986
  180DOPC   C3522100   5.756   2.941  13.899
  180DOPC   H5X22101   5.762   2.896  13.798
  180DOPC   H5Y22102   5.661   2.907  13.947
  180DOPC   C3622103   5.875   2.888  13.986
  180DOPC   H6X22104   5.966   2.912  13.927
  180DOPC   H6Y22105   5.866   2.946  14.080
  180DOPC   C3722106   5.906   2.743  14.037
  180DOPC   H7X22107   5.826   2.712  14.107
  180DOPC   H7Y22108   5.908   2.672  13.951
  180DOPC   C3822109   6.044   2.730  14.114
  180DOPC   H8X22110   6.090   2.832  14.118
  180DOPC   H8Y22111   6.113   2.670  14.052
  180DOPC   C3922112   6.041   2.673  14.256
  180DOPC   H9X22113   5.940   2.651  14.293
  180DOPC  C31022114   6.145   2.649  14.341
  180DOPC  H10X22115   6.123   2.609  14.441
  180DOPC  C31122116   6.292   2.674  14.317
  180DOPC  H11X22117   6.309   2.783  14.305
  180DOPC  H11Y22118   6.322   2.625  14.221
  180DOPC  C31222119   6.395   2.624  14.424
  180DOPC  H12X22120   6.495   2.624  14.377
  180DOPC  H12Y22121   6.376   2.518  14.452
  180DOPC  C31322122   6.406   2.708  14.553
  180DOPC  H13X22123   6.306   2.724  14.598
  180DOPC  H13Y22124   6.467   2.652  14.626
  180DOPC  C31422125   6.477   2.840  14.525
  180DOPC  H14X22126   6.568   2.816  14.467
  180DOPC  H14Y22127   6.412   2.905  14.461
  180DOPC  C31522128   6.521   2.920  14.648
  180DOPC  H15X22129   6.589   2.998  14.609
  180DOPC  H15Y22130   6.581   2.855  14.717
  180DOPC  C31622131   6.406   2.986  14.724
  180DOPC  H16X22132   6.340   3.038  14.650
  180DOPC  H16Y22133   6.345   2.909  14.774
  180DOPC  C31722134   6.453   3.090  14.827
  180DOPC  H17X22135   6.363   3.138  14.871
  180DOPC  H17Y22136   6.506   3.038  14.909
  180DOPC  C31822137   6.545   3.199  14.769
  180DOPC  H18X22138   6.644   3.156  14.741
  180DOPC  H18Y22139   6.499   3.244  14.678
  180DOPC  H18Z22140   6.564   3.280  14.842
  181DOPC     N22141   0.717   3.833  12.977
  181DOPC   C1222142   0.852   3.902  12.962
  181DOPC  H12A22143   0.882   3.945  13.056
  181DOPC  H12B22144   0.844   3.983  12.891
  181DOPC   C1322145   0.718   3.754  13.105
  181DOPC  H13A22146   0.804   3.688  13.106
  181DOPC  H13B22147   0.731   3.818  13.191
  181DOPC  H13C22148   0.629   3.694  13.118
  181DOPC   C1422149   0.697   3.738  12.862
  181DOPC  H14A22150   0.606   3.681  12.871
  181DOPC  H14B22151   0.696   3.791  12.768
  181DOPC  H14C22152   0.780   3.670  12.860
  181DOPC   C1522153   0.605   3.933  12.980
  181DOPC  H15A22154   0.509   3.883  12.976
  181DOPC  H15B22155   0.609   3.999  12.895
  181DOPC  H15C22156   0.609   3.993  13.070
  181DOPC   C1122157   0.971   3.812  12.916
  181DOPC  H11A22158   0.953   3.776  12.812
  181DOPC  H11B22159   1.062   3.876  12.909
  181DOPC     P22160   1.073   3.720  13.135
  181DOPC   O1322161   1.073   3.863  13.169
  181DOPC   O1422162   1.200   3.647  13.115
  181DOPC   O1222163   0.989   3.699  13.002
  181DOPC   O1122164   0.983   3.639  13.239
  181DOPC    C122165   1.013   3.499  13.254
  181DOPC    HA22166   1.122   3.482  13.271
  181DOPC    HB22167   0.983   3.445  13.162
  181DOPC    C222168   0.944   3.426  13.375
  181DOPC    HS22169   0.907   3.329  13.335
  181DOPC   O2122170   0.833   3.504  13.423
  181DOPC   C2122171   0.757   3.438  13.510
  181DOPC   O2222172   0.767   3.320  13.537
  181DOPC   C2222173   0.654   3.531  13.570
  181DOPC   H2R22174   0.605   3.478  13.654
  181DOPC   H2S22175   0.578   3.548  13.492
  181DOPC    C322176   1.048   3.393  13.487
  181DOPC    HX22177   1.124   3.326  13.443
  181DOPC    HY22178   0.998   3.336  13.569
  181DOPC   O3122179   1.112   3.512  13.539
  181DOPC   C3122180   1.191   3.484  13.642
  181DOPC   O3222181   1.203   3.374  13.693
  181DOPC   C3222182   1.268   3.608  13.688
  181DOPC   H2X22183   1.213   3.658  13.770
  181DOPC   H2Y22184   1.363   3.570  13.730
  181DOPC   C2322185   0.717   3.664  13.618
  181DOPC   H3R22186   0.635   3.728  13.658
  181DOPC   H3S22187   0.765   3.718  13.534
  181DOPC   C2422188   0.814   3.650  13.733
  181DOPC   H4R22189   0.850   3.750  13.764
  181DOPC   H4S22190   0.902   3.593  13.695
  181DOPC   C2522191   0.754   3.580  13.856
  181DOPC   H5R22192   0.729   3.474  13.830
  181DOPC   H5S22193   0.659   3.630  13.886
  181DOPC   C2622194   0.851   3.578  13.974
  181DOPC   H6R22195   0.814   3.507  14.051
  181DOPC   H6S22196   0.855   3.679  14.019
  181DOPC   C2722197   0.991   3.539  13.927
  181DOPC   H7R22198   1.032   3.620  13.862
  181DOPC   H7S22199   0.981   3.447  13.867
  181DOPC   C2822200   1.091   3.519  14.040
  181DOPC   H8R22201   1.035   3.470  14.123
  181DOPC   H8S22202   1.122   3.619  14.078
  181DOPC   C2922203   1.206   3.433  13.995
  181DOPC   H9R22204   1.179   3.351  13.927
  181DOPC  C21022205   1.334   3.446  14.034
  181DOPC  H10R22206   1.410   3.376  13.996
  181DOPC  C21122207   1.379   3.549  14.133
  181DOPC  H11R22208   1.349   3.650  14.097
  181DOPC  H11S22209   1.489   3.550  14.145
  181DOPC  C21222210   1.313   3.525  14.269
  181DOPC  H12R22211   1.383   3.470  14.336
  181DOPC  H12S22212   1.221   3.463  14.263
  181DOPC  C21322213   1.268   3.656  14.332
  181DOPC  H13R22214   1.188   3.706  14.273
  181DOPC  H13S22215   1.356   3.722  14.327
  181DOPC  C21422216   1.217   3.631  14.474
  181DOPC  H14R22217   1.256   3.534  14.511
  181DOPC  H14S22218   1.106   3.622  14.475
  181DOPC  C21522219   1.264   3.739  14.570
  181DOPC  H15R22220   1.230   3.711  14.672
  181DOPC  H15S22221   1.214   3.836  14.544
  181DOPC  C21622222   1.416   3.759  14.565
  181DOPC  H16R22223   1.445   3.825  14.650
  181DOPC  H16S22224   1.440   3.818  14.475
  181DOPC  C21722225   1.505   3.634  14.570
  181DOPC  H17R22226   1.539   3.612  14.467
  181DOPC  H17S22227   1.446   3.547  14.605
  181DOPC  C21822228   1.628   3.645  14.662
  181DOPC  H18R22229   1.691   3.554  14.653
  181DOPC  H18S22230   1.598   3.657  14.768
  181DOPC  H18T22231   1.692   3.732  14.635
  181DOPC   C3322232   1.299   3.708  13.574
  181DOPC   H3X22233   1.325   3.654  13.480
  181DOPC   H3Y22234   1.390   3.763  13.604
  181DOPC   C3422235   1.190   3.813  13.545
  181DOPC   H4X22236   1.097   3.763  13.512
  181DOPC   H4Y22237   1.225   3.875  13.460
  181DOPC   C3522238   1.161   3.906  13.663
  181DOPC   H5X22239   1.256   3.949  13.700
  181DOPC   H5Y22240   1.115   3.848  13.746
  181DOPC   C3622241   1.066   4.022  13.626
  181DOPC   H6X22242   1.103   4.070  13.533
  181DOPC   H6Y22243   0.966   3.980  13.604
  181DOPC   C3722244   1.055   4.130  13.736
  181DOPC   H7X22245   1.150   4.186  13.739
  181DOPC   H7Y22246   0.975   4.201  13.706
  181DOPC   C3822247   1.025   4.073  13.876
  181DOPC   H8X22248   1.109   4.007  13.906
  181DOPC   H8Y22249   0.934   4.009  13.868
  181DOPC   C3922250   1.002   4.181  13.978
  181DOPC   H9X22251   0.960   4.274  13.938
  181DOPC  C31022252   1.027   4.173  14.111
  181DOPC  H10X22253   1.002   4.260  14.173
  181DOPC  C31122254   1.083   4.055  14.187
  181DOPC  H11X22255   1.163   4.092  14.255
  181DOPC  H11Y22256   1.131   3.981  14.120
  181DOPC  C31222257   0.979   3.979  14.273
  181DOPC  H12X22258   0.906   4.050  14.318
  181DOPC  H12Y22259   1.033   3.930  14.356
  181DOPC  C31322260   0.905   3.869  14.194
  181DOPC  H13X22261   0.853   3.915  14.107
  181DOPC  H13Y22262   0.981   3.799  14.154
  181DOPC  C31422263   0.802   3.788  14.274
  181DOPC  H14X22264   0.728   3.855  14.324
  181DOPC  H14Y22265   0.743   3.723  14.205
  181DOPC  C31522266   0.865   3.700  14.382
  181DOPC  H15X22267   0.926   3.766  14.448
  181DOPC  H15Y22268   0.932   3.626  14.335
  181DOPC  C31622269   0.759   3.629  14.467
  181DOPC  H16X22270   0.681   3.702  14.498
  181DOPC  H16Y22271   0.708   3.551  14.405
  181DOPC  C31722272   0.816   3.564  14.593
  181DOPC  H17X22273   0.731   3.516  14.646
  181DOPC  H17Y22274   0.887   3.484  14.564
  181DOPC  C31822275   0.886   3.662  14.688
  181DOPC  H18X22276   0.982   3.699  14.645
  181DOPC  H18Y22277   0.821   3.750  14.708
  181DOPC  H18Z22278   0.909   3.613  14.786
  182DOPC     N22279   2.559   0.908  13.188
  182DOPC   C1222280   2.534   1.000  13.069
  182DOPC  H12A22281   2.520   0.941  12.980
  182DOPC  H12B22282   2.624   1.058  13.053
  182DOPC   C1322283   2.586   0.987  13.312
  182DOPC  H13A22284   2.605   0.921  13.396
  182DOPC  H13B22285   2.672   1.050  13.299
  182DOPC  H13C22286   2.500   1.048  13.336
  182DOPC   C1422287   2.680   0.823  13.160
  182DOPC  H14A22288   2.767   0.884  13.139
  182DOPC  H14B22289   2.706   0.759  13.243
  182DOPC  H14C22290   2.667   0.761  13.073
  182DOPC   C1522291   2.438   0.822  13.209
  182DOPC  H15A22292   2.350   0.885  13.212
  182DOPC  H15B22293   2.445   0.764  13.299
  182DOPC  H15C22294   2.424   0.756  13.124
  182DOPC   C1122295   2.415   1.098  13.077
  182DOPC  H11A22296   2.415   1.151  13.175
  182DOPC  H11B22297   2.430   1.176  13.000
  182DOPC     P22298   2.213   1.037  12.923
  182DOPC   O1322299   2.310   1.024  12.814
  182DOPC   O1422300   2.129   1.159  12.924
  182DOPC   O1222301   2.291   1.027  13.062
  182DOPC   O1122302   2.117   0.910  12.918
  182DOPC    C122303   2.062   0.844  13.032
  182DOPC    HA22304   2.140   0.792  13.091
  182DOPC    HB22305   1.992   0.766  12.996
  182DOPC    C222306   1.981   0.938  13.125
  182DOPC    HS22307   1.945   1.023  13.063
  182DOPC   O2122308   2.073   0.979  13.228
  182DOPC   C2122309   2.060   1.103  13.271
  182DOPC   O2222310   1.975   1.183  13.234
  182DOPC   C2222311   2.178   1.134  13.364
  182DOPC   H2R22312   2.248   1.196  13.303
  182DOPC   H2S22313   2.229   1.039  13.391
  182DOPC    C322314   1.856   0.869  13.186
  182DOPC    HX22315   1.787   0.845  13.103
  182DOPC    HY22316   1.801   0.940  13.251
  182DOPC   O3122317   1.894   0.746  13.252
  182DOPC   C3122318   1.928   0.766  13.379
  182DOPC   O3222319   1.908   0.868  13.442
  182DOPC   C3222320   2.011   0.650  13.432
  182DOPC   H2X22321   1.944   0.585  13.492
  182DOPC   H2Y22322   2.048   0.590  13.346
  182DOPC   C2322323   2.138   1.212  13.490
  182DOPC   H3R22324   2.073   1.297  13.459
  182DOPC   H3S22325   2.227   1.254  13.540
  182DOPC   C2422326   2.060   1.127  13.591
  182DOPC   H4R22327   1.979   1.073  13.538
  182DOPC   H4S22328   2.008   1.194  13.664
  182DOPC   C2522329   2.145   1.029  13.672
  182DOPC   H5R22330   2.237   1.002  13.617
  182DOPC   H5S22331   2.085   0.936  13.685
  182DOPC   C2622332   2.180   1.080  13.813
  182DOPC   H6R22333   2.087   1.106  13.867
  182DOPC   H6S22334   2.242   1.171  13.806
  182DOPC   C2722335   2.255   0.970  13.890
  182DOPC   H7R22336   2.351   0.952  13.837
  182DOPC   H7S22337   2.194   0.877  13.885
  182DOPC   C2822338   2.282   0.998  14.038
  182DOPC   H8R22339   2.339   0.913  14.082
  182DOPC   H8S22340   2.185   1.001  14.092
  182DOPC   C2922341   2.359   1.123  14.064
  182DOPC   H9R22342   2.412   1.169  13.979
  182DOPC  C21022343   2.365   1.178  14.186
  182DOPC  H10R22344   2.420   1.272  14.198
  182DOPC  C21122345   2.298   1.122  14.309
  182DOPC  H11R22346   2.369   1.119  14.394
  182DOPC  H11S22347   2.265   1.017  14.296
  182DOPC  C21222348   2.176   1.205  14.352
  182DOPC  H12R22349   2.090   1.184  14.285
  182DOPC  H12S22350   2.200   1.313  14.342
  182DOPC  C21322351   2.138   1.184  14.498
  182DOPC  H13R22352   2.049   1.246  14.522
  182DOPC  H13S22353   2.220   1.221  14.564
  182DOPC  C21422354   2.113   1.039  14.537
  182DOPC  H14R22355   2.199   0.975  14.507
  182DOPC  H14S22356   2.023   1.000  14.484
  182DOPC  C21522357   2.095   1.028  14.688
  182DOPC  H15R22358   2.033   1.113  14.725
  182DOPC  H15S22359   2.196   1.036  14.732
  182DOPC  C21622360   2.029   0.898  14.731
  182DOPC  H16R22361   2.079   0.818  14.673
  182DOPC  H16S22362   1.921   0.898  14.704
  182DOPC  C21722363   2.048   0.869  14.881
  182DOPC  H17R22364   2.145   0.912  14.914
  182DOPC  H17S22365   2.053   0.759  14.896
  182DOPC  C21822366   1.938   0.926  14.968
  182DOPC  H18R22367   1.919   1.033  14.942
  182DOPC  H18S22368   1.968   0.921  15.075
  182DOPC  H18T22369   1.845   0.868  14.954
  182DOPC   C3322370   2.127   0.703  13.519
  182DOPC   H3X22371   2.101   0.682  13.625
  182DOPC   H3Y22372   2.138   0.813  13.509
  182DOPC   C3422373   2.264   0.643  13.483
  182DOPC   H4X22374   2.284   0.663  13.375
  182DOPC   H4Y22375   2.259   0.533  13.496
  182DOPC   C3522376   2.376   0.701  13.570
  182DOPC   H5X22377   2.383   0.811  13.556
  182DOPC   H5Y22378   2.473   0.655  13.540
  182DOPC   C3622379   2.350   0.670  13.718
  182DOPC   H6X22380   2.260   0.725  13.753
  182DOPC   H6Y22381   2.323   0.562  13.722
  182DOPC   C3722382   2.464   0.698  13.816
  182DOPC   H7X22383   2.558   0.649  13.784
  182DOPC   H7Y22384   2.489   0.807  13.817
  182DOPC   C3822385   2.428   0.654  13.960
  182DOPC   H8X22386   2.362   0.733  14.002
  182DOPC   H8Y22387   2.522   0.655  14.020
  182DOPC   C3922388   2.360   0.520  13.974
  182DOPC   H9X22389   2.403   0.440  13.913
  182DOPC  C31022390   2.251   0.491  14.049
  182DOPC  H10X22391   2.212   0.388  14.047
  182DOPC  C31122392   2.173   0.586  14.136
  182DOPC  H11X22393   2.066   0.556  14.134
  182DOPC  H11Y22394   2.176   0.690  14.095
  182DOPC  C31222395   2.219   0.590  14.283
  182DOPC  H12X22396   2.230   0.487  14.321
  182DOPC  H12Y22397   2.141   0.640  14.344
  182DOPC  C31322398   2.351   0.667  14.303
  182DOPC  H13X22399   2.426   0.623  14.234
  182DOPC  H13Y22400   2.339   0.774  14.275
  182DOPC  C31422401   2.410   0.654  14.445
  182DOPC  H14X22402   2.372   0.560  14.491
  182DOPC  H14Y22403   2.520   0.647  14.437
  182DOPC  C31522404   2.375   0.765  14.543
  182DOPC  H15X22405   2.264   0.769  14.552
  182DOPC  H15Y22406   2.411   0.864  14.506
  182DOPC  C31622407   2.437   0.733  14.680
  182DOPC  H16X22408   2.409   0.629  14.707
  182DOPC  H16Y22409   2.548   0.739  14.675
  182DOPC  C31722410   2.384   0.826  14.789
  182DOPC  H17X22411   2.430   0.927  14.779
  182DOPC  H17Y22412   2.276   0.837  14.768
  182DOPC  C31822413   2.399   0.774  14.932
  182DOPC  H18X22414   2.363   0.849  15.005
  182DOPC  H18Y22415   2.339   0.681  14.946
  182DOPC  H18Z22416   2.505   0.750  14.956
  183DOPC     N22417   6.678   5.192  13.037
  183DOPC   C1222418   6.710   5.319  12.957
  183DOPC  H12A22419   6.621   5.380  12.951
  183DOPC  H12B22420   6.736   5.291  12.856
  183DOPC   C1322421   6.624   5.227  13.172
  183DOPC  H13A22422   6.527   5.275  13.166
  183DOPC  H13B22423   6.615   5.141  13.236
  183DOPC  H13C22424   6.690   5.298  13.220
  183DOPC   C1422425   6.805   5.117  13.057
  183DOPC  H14A22426   6.854   5.098  12.962
  183DOPC  H14B22427   6.873   5.180  13.111
  183DOPC  H14C22428   6.789   5.023  13.109
  183DOPC   C1522429   6.582   5.103  12.966
  183DOPC  H15A22430   6.622   5.067  12.872
  183DOPC  H15B22431   6.488   5.153  12.946
  183DOPC  H15C22432   6.560   5.016  13.026
  183DOPC   C1122433   6.826   5.408  13.007
  183DOPC  H11A22434   6.838   5.496  12.941
  183DOPC  H11B22435   6.799   5.453  13.105
  183DOPC     P22436   7.076   5.354  12.942
  183DOPC   O1322437   7.042   5.428  12.818
  183DOPC   O1422438   7.136   5.219  12.925
  183DOPC   O1222439   6.947   5.337  13.026
  183DOPC   O1122440   7.161   5.444  13.038
  183DOPC    C122441   7.234   5.393  13.150
  183DOPC    HA22442   7.324   5.458  13.157
  183DOPC    HB22443   7.273   5.291  13.134
  183DOPC    C222444   7.165   5.406  13.291
  183DOPC    HS22445   7.243   5.406  13.371
  183DOPC   O2122446   7.075   5.296  13.314
  183DOPC   C2122447   7.135   5.188  13.360
  183DOPC   O2222448   7.248   5.150  13.333
  183DOPC   C2222449   7.048   5.121  13.467
  183DOPC   H2R22450   7.027   5.018  13.431
  183DOPC   H2S22451   6.952   5.175  13.477
  183DOPC    C322452   7.093   5.542  13.306
  183DOPC    HX22453   7.010   5.540  13.232
  183DOPC    HY22454   7.165   5.619  13.270
  183DOPC   O3122455   7.053   5.581  13.440
  183DOPC   C3122456   6.958   5.519  13.508
  183DOPC   O3222457   6.900   5.417  13.477
  183DOPC   C3222458   6.930   5.594  13.639
  183DOPC   H2X22459   6.988   5.689  13.641
  183DOPC   H2Y22460   6.822   5.620  13.641
  183DOPC   C2322461   7.123   5.117  13.603
  183DOPC   H3R22462   7.133   5.220  13.643
  183DOPC   H3S22463   7.226   5.078  13.586
  183DOPC   C2422464   7.058   5.026  13.708
  183DOPC   H4R22465   7.130   5.007  13.790
  183DOPC   H4S22466   7.035   4.928  13.661
  183DOPC   C2522467   6.929   5.083  13.771
  183DOPC   H5R22468   6.869   4.997  13.807
  183DOPC   H5S22469   6.869   5.137  13.695
  183DOPC   C2622470   6.955   5.173  13.893
  183DOPC   H6R22471   7.016   5.259  13.860
  183DOPC   H6S22472   7.016   5.117  13.967
  183DOPC   C2722473   6.826   5.223  13.960
  183DOPC   H7R22474   6.768   5.282  13.887
  183DOPC   H7S22475   6.853   5.291  14.044
  183DOPC   C2822476   6.734   5.111  14.016
  183DOPC   H8R22477   6.693   5.052  13.931
  183DOPC   H8S22478   6.646   5.161  14.063
  183DOPC   C2922479   6.804   5.021  14.114
  183DOPC   H9R22480   6.849   4.930  14.071
  183DOPC  C21022481   6.820   5.045  14.246
  183DOPC  H10R22482   6.875   4.973  14.308
  183DOPC  C21122483   6.770   5.167  14.318
  183DOPC  H11R22484   6.687   5.141  14.388
  183DOPC  H11S22485   6.729   5.242  14.248
  183DOPC  C21222486   6.880   5.237  14.399
  183DOPC  H12R22487   6.977   5.234  14.345
  183DOPC  H12S22488   6.894   5.186  14.496
  183DOPC  C21322489   6.845   5.385  14.420
  183DOPC  H13R22490   6.735   5.395  14.435
  183DOPC  H13S22491   6.870   5.440  14.327
  183DOPC  C21422492   6.918   5.449  14.538
  183DOPC  H14R22493   6.906   5.559  14.529
  183DOPC  H14S22494   7.027   5.428  14.531
  183DOPC  C21522495   6.867   5.409  14.678
  183DOPC  H15R22496   6.893   5.495  14.743
  183DOPC  H15S22497   6.922   5.319  14.714
  183DOPC  C21622498   6.716   5.386  14.692
  183DOPC  H16R22499   6.688   5.290  14.644
  183DOPC  H16S22500   6.663   5.468  14.639
  183DOPC  C21722501   6.668   5.388  14.838
  183DOPC  H17R22502   6.557   5.387  14.839
  183DOPC  H17S22503   6.701   5.482  14.886
  183DOPC  C21822504   6.719   5.272  14.923
  183DOPC  H18R22505   6.830   5.274  14.925
  183DOPC  H18S22506   6.686   5.174  14.881
  183DOPC  H18T22507   6.681   5.281  15.027
  183DOPC   C3322508   6.965   5.506  13.761
  183DOPC   H3X22509   7.069   5.469  13.748
  183DOPC   H3Y22510   6.898   5.418  13.762
  183DOPC   C3422511   6.957   5.578  13.896
  183DOPC   H4X22512   6.854   5.568  13.935
  183DOPC   H4Y22513   6.977   5.687  13.882
  183DOPC   C3522514   7.059   5.521  13.997
  183DOPC   H5X22515   7.157   5.512  13.947
  183DOPC   H5Y22516   7.027   5.419  14.027
  183DOPC   C3622517   7.082   5.605  14.125
  183DOPC   H6X22518   7.129   5.702  14.097
  183DOPC   H6Y22519   6.985   5.627  14.175
  183DOPC   C3722520   7.171   5.529  14.224
  183DOPC   H7X22521   7.122   5.432  14.249
  183DOPC   H7Y22522   7.267   5.506  14.173
  183DOPC   C3822523   7.199   5.607  14.353
  183DOPC   H8X22524   7.102   5.633  14.401
  183DOPC   H8Y22525   7.249   5.702  14.323
  183DOPC   C3922526   7.288   5.530  14.448
  183DOPC   H9X22527   7.287   5.421  14.430
  183DOPC  C31022528   7.355   5.576  14.554
  183DOPC  H10X22529   7.421   5.507  14.609
  183DOPC  C31122530   7.358   5.717  14.607
  183DOPC  H11X22531   7.252   5.749  14.621
  183DOPC  H11Y22532   7.405   5.785  14.533
  183DOPC  C31222533   7.426   5.734  14.744
  183DOPC  H12X22534   7.432   5.843  14.765
  183DOPC  H12Y22535   7.529   5.692  14.741
  183DOPC  C31322536   7.347   5.666  14.856
  183DOPC  H13X22537   7.240   5.693  14.846
  183DOPC  H13Y22538   7.359   5.557  14.842
  183DOPC  C31422539   7.394   5.691  15.000
  183DOPC  H14X22540   7.323   5.638  15.066
  183DOPC  H14Y22541   7.493   5.643  15.011
  183DOPC  C31522542   7.404   5.838  15.046
  183DOPC  H15X22543   7.488   5.883  14.989
  183DOPC  H15Y22544   7.429   5.841  15.154
  183DOPC  C31622545   7.279   5.923  15.022
  183DOPC  H16X22546   7.304   6.030  15.041
  183DOPC  H16Y22547   7.253   5.914  14.915
  183DOPC  C31722548   7.158   5.883  15.107
  183DOPC  H17X22549   7.157   5.772  15.111
  183DOPC  H17Y22550   7.172   5.918  15.211
  183DOPC  C31822551   7.023   5.932  15.053
  183DOPC  H18X22552   6.938   5.895  15.115
  183DOPC  H18Y22553   7.016   6.043  15.058
  183DOPC  H18Z22554   7.008   5.901  14.948
  184DOPC     N22555   4.623   0.456  13.167
  184DOPC   C1222556   4.603   0.532  13.036
  184DOPC  H12A22557   4.503   0.572  13.031
  184DOPC  H12B22558   4.613   0.464  12.952
  184DOPC   C1322559   4.750   0.378  13.156
  184DOPC  H13A22560   4.749   0.311  13.071
  184DOPC  H13B22561   4.833   0.445  13.138
  184DOPC  H13C22562   4.773   0.322  13.247
  184DOPC   C1422563   4.512   0.358  13.190
  184DOPC  H14A22564   4.416   0.408  13.197
  184DOPC  H14B22565   4.508   0.287  13.109
  184DOPC  H14C22566   4.527   0.303  13.281
  184DOPC   C1522567   4.635   0.550  13.283
  184DOPC  H15A22568   4.548   0.614  13.293
  184DOPC  H15B22569   4.721   0.614  13.268
  184DOPC  H15C22570   4.651   0.498  13.376
  184DOPC   C1122571   4.702   0.647  13.005
  184DOPC  H11A22572   4.663   0.709  12.922
  184DOPC  H11B22573   4.712   0.715  13.092
  184DOPC     P22574   4.967   0.627  13.015
  184DOPC   O1322575   5.053   0.675  12.906
  184DOPC   O1422576   5.013   0.511  13.095
  184DOPC   O1222577   4.824   0.589  12.961
  184DOPC   O1122578   4.935   0.748  13.112
  184DOPC    C122579   5.036   0.807  13.194
  184DOPC    HA22580   5.052   0.912  13.161
  184DOPC    HB22581   5.134   0.756  13.186
  184DOPC    C222582   4.991   0.806  13.342
  184DOPC    HS22583   5.076   0.839  13.405
  184DOPC   O2122584   4.944   0.675  13.380
  184DOPC   C2122585   5.042   0.589  13.407
  184DOPC   O2222586   5.161   0.615  13.411
  184DOPC   C2222587   4.979   0.455  13.443
  184DOPC   H2R22588   5.034   0.378  13.383
  184DOPC   H2S22589   4.872   0.454  13.413
  184DOPC    C322590   4.874   0.904  13.366
  184DOPC    HX22591   4.791   0.875  13.298
  184DOPC    HY22592   4.904   1.007  13.337
  184DOPC   O3122593   4.827   0.896  13.503
  184DOPC   C3122594   4.904   0.962  13.588
  184DOPC   O3222595   4.995   1.037  13.557
  184DOPC   C3222596   4.867   0.928  13.732
  184DOPC   H2X22597   4.762   0.890  13.734
  184DOPC   H2Y22598   4.936   0.849  13.767
  184DOPC   C2322599   4.993   0.424  13.593
  184DOPC   H3R22600   5.099   0.434  13.623
  184DOPC   H3S22601   4.964   0.318  13.611
  184DOPC   C2422602   4.905   0.513  13.683
  184DOPC   H4R22603   4.798   0.491  13.661
  184DOPC   H4S22604   4.921   0.620  13.659
  184DOPC   C2522605   4.932   0.492  13.832
  184DOPC   H5R22606   4.942   0.383  13.852
  184DOPC   H5S22607   4.846   0.529  13.892
  184DOPC   C2622608   5.059   0.565  13.880
  184DOPC   H6R22609   5.037   0.673  13.889
  184DOPC   H6S22610   5.138   0.554  13.804
  184DOPC   C2722611   5.115   0.511  14.013
  184DOPC   H7R22612   5.211   0.565  14.034
  184DOPC   H7S22613   5.140   0.404  14.000
  184DOPC   C2822614   5.022   0.525  14.135
  184DOPC   H8R22615   5.072   0.478  14.223
  184DOPC   H8S22616   4.930   0.467  14.116
  184DOPC   C2922617   4.995   0.671  14.165
  184DOPC   H9R22618   5.085   0.732  14.183
  184DOPC  C21022619   4.875   0.730  14.173
  184DOPC  H10R22620   4.871   0.837  14.198
  184DOPC  C21122621   4.740   0.665  14.153
  184DOPC  H11R22622   4.747   0.566  14.103
  184DOPC  H11S22623   4.677   0.729  14.088
  184DOPC  C21222624   4.669   0.647  14.288
  184DOPC  H12R22625   4.729   0.581  14.354
  184DOPC  H12S22626   4.572   0.596  14.271
  184DOPC  C21322627   4.644   0.781  14.356
  184DOPC  H13R22628   4.588   0.845  14.285
  184DOPC  H13S22629   4.740   0.832  14.379
  184DOPC  C21422630   4.564   0.772  14.486
  184DOPC  H14R22631   4.471   0.713  14.467
  184DOPC  H14S22632   4.534   0.875  14.515
  184DOPC  C21522633   4.639   0.711  14.604
  184DOPC  H15R22634   4.732   0.770  14.623
  184DOPC  H15S22635   4.670   0.607  14.578
  184DOPC  C21622636   4.553   0.709  14.730
  184DOPC  H16R22637   4.463   0.647  14.709
  184DOPC  H16S22638   4.518   0.811  14.755
  184DOPC  C21722639   4.627   0.652  14.851
  184DOPC  H17R22640   4.691   0.732  14.895
  184DOPC  H17S22641   4.696   0.572  14.818
  184DOPC  C21822642   4.530   0.595  14.954
  184DOPC  H18R22643   4.470   0.513  14.910
  184DOPC  H18S22644   4.460   0.674  14.990
  184DOPC  H18T22645   4.586   0.555  15.042
  184DOPC   C3322646   4.880   1.054  13.821
  184DOPC   H3X22647   4.821   1.137  13.776
  184DOPC   H3Y22648   4.986   1.087  13.824
  184DOPC   C3422649   4.831   1.032  13.964
  184DOPC   H4X22650   4.905   0.968  14.018
  184DOPC   H4Y22651   4.733   0.980  13.964
  184DOPC   C3522652   4.818   1.166  14.036
  184DOPC   H5X22653   4.746   1.232  13.981
  184DOPC   H5Y22654   4.917   1.216  14.033
  184DOPC   C3622655   4.776   1.156  14.182
  184DOPC   H6X22656   4.833   1.074  14.232
  184DOPC   H6Y22657   4.806   1.251  14.230
  184DOPC   C3722658   4.625   1.136  14.203
  184DOPC   H7X22659   4.571   1.220  14.155
  184DOPC   H7Y22660   4.593   1.043  14.153
  184DOPC   C3822661   4.585   1.128  14.352
  184DOPC   H8X22662   4.628   1.034  14.394
  184DOPC   H8Y22663   4.474   1.118  14.360
  184DOPC   C3922664   4.633   1.246  14.433
  184DOPC   H9X22665   4.568   1.334  14.430
  184DOPC  C31022666   4.749   1.252  14.503
  184DOPC  H10X22667   4.774   1.346  14.553
  184DOPC  C31122668   4.854   1.144  14.517
  184DOPC  H11X22669   4.940   1.170  14.452
  184DOPC  H11Y22670   4.818   1.046  14.479
  184DOPC  C31222671   4.912   1.121  14.660
  184DOPC  H12X22672   4.880   1.200  14.731
  184DOPC  H12Y22673   5.023   1.128  14.653
  184DOPC  C31322674   4.877   0.982  14.715
  184DOPC  H13X22675   4.771   0.980  14.746
  184DOPC  H13Y22676   4.889   0.910  14.631
  184DOPC  C31422677   4.968   0.931  14.829
  184DOPC  H14X22678   4.941   0.825  14.844
  184DOPC  H14Y22679   5.074   0.935  14.797
  184DOPC  C31522680   4.950   1.007  14.961
  184DOPC  H15X22681   4.842   1.015  14.981
  184DOPC  H15Y22682   4.989   1.110  14.950
  184DOPC  C31622683   5.020   0.941  15.083
  184DOPC  H16X22684   5.130   0.956  15.075
  184DOPC  H16Y22685   4.985   0.995  15.174
  184DOPC  C31722686   4.990   0.791  15.100
  184DOPC  H17X22687   4.883   0.772  15.077
  184DOPC  H17Y22688   5.049   0.733  15.026
  184DOPC  C31822689   5.019   0.738  15.241
  184DOPC  H18X22690   5.127   0.719  15.254
  184DOPC  H18Y22691   4.986   0.811  15.318
  184DOPC  H18Z22692   4.965   0.643  15.258
  185DOPC     N22693   6.330   6.029  13.124
  185DOPC   C1222694   6.396   5.898  13.168
  185DOPC  H12A22695   6.349   5.863  13.259
  185DOPC  H12B22696   6.500   5.917  13.192
  185DOPC   C1322697   6.203   6.000  13.050
  185DOPC  H13A22698   6.227   5.940  12.963
  185DOPC  H13B22699   6.133   5.946  13.111
  185DOPC  H13C22700   6.156   6.091  13.015
  185DOPC   C1422701   6.425   6.099  13.031
  185DOPC  H14A22702   6.517   6.127  13.081
  185DOPC  H14B22703   6.453   6.032  12.951
  185DOPC  H14C22704   6.383   6.188  12.987
  185DOPC   C1522705   6.300   6.120  13.240
  185DOPC  H15A22706   6.391   6.148  13.292
  185DOPC  H15B22707   6.233   6.073  13.311
  185DOPC  H15C22708   6.254   6.212  13.207
  185DOPC   C1122709   6.395   5.780  13.066
  185DOPC  H11A22710   6.445   5.693  13.114
  185DOPC  H11B22711   6.291   5.748  13.047
  185DOPC     P22712   6.614   5.801  12.924
  185DOPC   O1322713   6.657   5.916  12.842
  185DOPC   O1422714   6.646   5.666  12.872
  185DOPC   O1222715   6.457   5.813  12.941
  185DOPC   O1122716   6.663   5.818  13.072
  185DOPC    C122717   6.791   5.769  13.114
  185DOPC    HA22718   6.868   5.848  13.101
  185DOPC    HB22719   6.825   5.682  13.055
  185DOPC    C222720   6.793   5.723  13.262
  185DOPC    HS22721   6.852   5.629  13.268
  185DOPC   O2122722   6.658   5.704  13.312
  185DOPC   C2122723   6.622   5.577  13.316
  185DOPC   O2222724   6.690   5.481  13.290
  185DOPC   C2222725   6.485   5.559  13.375
  185DOPC   H2R22726   6.451   5.457  13.348
  185DOPC   H2S22727   6.414   5.633  13.334
  185DOPC    C322728   6.872   5.823  13.350
  185DOPC    HX22729   6.975   5.831  13.308
  185DOPC    HY22730   6.883   5.782  13.452
  185DOPC   O3122731   6.811   5.952  13.345
  185DOPC   C3122732   6.748   5.989  13.453
  185DOPC   O3222733   6.741   5.928  13.559
  185DOPC   C3222734   6.680   6.120  13.422
  185DOPC   H2X22735   6.755   6.185  13.372
  185DOPC   H2Y22736   6.597   6.102  13.351
  185DOPC   C2322737   6.505   5.570  13.526
  185DOPC   H3R22738   6.608   5.547  13.561
  185DOPC   H3S22739   6.442   5.492  13.573
  185DOPC   C2422740   6.465   5.708  13.573
  185DOPC   H4R22741   6.365   5.735  13.531
  185DOPC   H4S22742   6.538   5.783  13.536
  185DOPC   C2522743   6.458   5.711  13.724
  185DOPC   H5R22744   6.555   5.681  13.769
  185DOPC   H5S22745   6.381   5.638  13.758
  185DOPC   C2622746   6.418   5.848  13.773
  185DOPC   H6R22747   6.351   5.897  13.699
  185DOPC   H6S22748   6.510   5.909  13.783
  185DOPC   C2722749   6.344   5.841  13.906
  185DOPC   H7R22750   6.247   5.788  13.890
  185DOPC   H7S22751   6.324   5.945  13.937
  185DOPC   C2822752   6.422   5.773  14.017
  185DOPC   H8R22753   6.446   5.669  13.986
  185DOPC   H8S22754   6.361   5.765  14.109
  185DOPC   C2922755   6.544   5.858  14.038
  185DOPC   H9R22756   6.532   5.966  14.018
  185DOPC  C21022757   6.662   5.812  14.081
  185DOPC  H10R22758   6.746   5.881  14.095
  185DOPC  C21122759   6.685   5.668  14.116
  185DOPC  H11R22760   6.793   5.645  14.114
  185DOPC  H11S22761   6.635   5.598  14.045
  185DOPC  C21222762   6.633   5.644  14.259
  185DOPC  H12R22763   6.636   5.535  14.281
  185DOPC  H12S22764   6.528   5.677  14.268
  185DOPC  C21322765   6.721   5.720  14.358
  185DOPC  H13R22766   6.745   5.821  14.320
  185DOPC  H13S22767   6.818   5.667  14.367
  185DOPC  C21422768   6.658   5.741  14.495
  185DOPC  H14R22769   6.632   5.642  14.539
  185DOPC  H14S22770   6.565   5.800  14.484
  185DOPC  C21522771   6.759   5.817  14.581
  185DOPC  H15R22772   6.785   5.907  14.521
  185DOPC  H15S22773   6.851   5.756  14.591
  185DOPC  C21622774   6.714   5.861  14.720
  185DOPC  H16R22775   6.623   5.925  14.712
  185DOPC  H16S22776   6.796   5.922  14.764
  185DOPC  C21722777   6.691   5.746  14.815
  185DOPC  H17R22778   6.716   5.779  14.918
  185DOPC  H17S22779   6.759   5.663  14.788
  185DOPC  C21822780   6.547   5.701  14.811
  185DOPC  H18R22781   6.519   5.657  14.713
  185DOPC  H18S22782   6.482   5.789  14.828
  185DOPC  H18T22783   6.526   5.626  14.891
  185DOPC   C3322784   6.631   6.187  13.551
  185DOPC   H3X22785   6.632   6.296  13.530
  185DOPC   H3Y22786   6.702   6.174  13.635
  185DOPC   C3422787   6.490   6.141  13.591
  185DOPC   H4X22788   6.500   6.037  13.630
  185DOPC   H4Y22789   6.426   6.136  13.500
  185DOPC   C3522790   6.421   6.234  13.692
  185DOPC   H5X22791   6.321   6.266  13.655
  185DOPC   H5Y22792   6.485   6.325  13.694
  185DOPC   C3622793   6.413   6.191  13.838
  185DOPC   H6X22794   6.326   6.123  13.851
  185DOPC   H6Y22795   6.506   6.134  13.860
  185DOPC   C3722796   6.396   6.314  13.929
  185DOPC   H7X22797   6.422   6.405  13.871
  185DOPC   H7Y22798   6.288   6.328  13.951
  185DOPC   C3822799   6.477   6.319  14.061
  185DOPC   H8X22800   6.404   6.291  14.140
  185DOPC   H8Y22801   6.501   6.425  14.083
  185DOPC   C3922802   6.603   6.237  14.070
  185DOPC   H9X22803   6.659   6.218  13.977
  185DOPC  C31022804   6.648   6.189  14.187
  185DOPC  H10X22805   6.737   6.125  14.192
  185DOPC  C31122806   6.573   6.216  14.314
  185DOPC  H11X22807   6.469   6.180  14.303
  185DOPC  H11Y22808   6.567   6.326  14.331
  185DOPC  C31222809   6.629   6.151  14.440
  185DOPC  H12X22810   6.635   6.041  14.427
  185DOPC  H12Y22811   6.553   6.170  14.518
  185DOPC  C31322812   6.764   6.207  14.488
  185DOPC  H13X22813   6.846   6.172  14.423
  185DOPC  H13Y22814   6.763   6.318  14.484
  185DOPC  C31422815   6.784   6.162  14.633
  185DOPC  H14X22816   6.683   6.131  14.668
  185DOPC  H14Y22817   6.847   6.070  14.634
  185DOPC  C31522818   6.841   6.259  14.735
  185DOPC  H15X22819   6.792   6.358  14.726
  185DOPC  H15Y22820   6.949   6.274  14.715
  185DOPC  C31622821   6.823   6.204  14.879
  185DOPC  H16X22822   6.880   6.109  14.886
  185DOPC  H16Y22823   6.867   6.277  14.951
  185DOPC  C31722824   6.678   6.174  14.924
  185DOPC  H17X22825   6.622   6.270  14.929
  185DOPC  H17Y22826   6.625   6.110  14.851
  185DOPC  C31822827   6.671   6.102  15.058
  185DOPC  H18X22828   6.722   6.003  15.051
  185DOPC  H18Y22829   6.719   6.162  15.139
  185DOPC  H18Z22830   6.565   6.083  15.086
  186DOPC     N22831   0.489   2.973  12.929
  186DOPC   C1222832   0.441   3.109  12.882
  186DOPC  H12A22833   0.360   3.095  12.812
  186DOPC  H12B22834   0.523   3.159  12.832
  186DOPC   C1322835   0.372   2.902  12.988
  186DOPC  H13A22836   0.399   2.808  13.033
  186DOPC  H13B22837   0.327   2.963  13.065
  186DOPC  H13C22838   0.295   2.884  12.915
  186DOPC   C1422839   0.596   2.991  13.032
  186DOPC  H14A22840   0.678   3.050  12.994
  186DOPC  H14B22841   0.555   3.043  13.118
  186DOPC  H14C22842   0.635   2.896  13.066
  186DOPC   C1522843   0.540   2.890  12.814
  186DOPC  H15A22844   0.575   2.794  12.849
  186DOPC  H15B22845   0.623   2.940  12.765
  186DOPC  H15C22846   0.462   2.871  12.743
  186DOPC   C1122847   0.389   3.205  12.993
  186DOPC  H11A22848   0.470   3.223  13.066
  186DOPC  H11B22849   0.365   3.302  12.946
  186DOPC     P22850   0.232   3.197  13.202
  186DOPC   O1322851   0.147   3.318  13.185
  186DOPC   O1422852   0.357   3.211  13.278
  186DOPC   O1222853   0.270   3.153  13.054
  186DOPC   O1122854   0.148   3.073  13.253
  186DOPC    C122855   0.027   3.028  13.192
  186DOPC    HA22856   0.048   2.961  13.106
  186DOPC    HB22857  -0.031   3.115  13.154
  186DOPC    C222858  -0.073   2.955  13.290
  186DOPC    HS22859  -0.174   2.981  13.253
  186DOPC   O2122860  -0.050   3.011  13.422
  186DOPC   C2122861  -0.156   3.035  13.497
  186DOPC   O2222862  -0.270   3.002  13.468
  186DOPC   C2222863  -0.120   3.114  13.626
  186DOPC   H2R22864  -0.172   3.062  13.709
  186DOPC   H2S22865  -0.167   3.215  13.618
  186DOPC    C322866  -0.069   2.795  13.284
  186DOPC    HX22867  -0.096   2.770  13.180
  186DOPC    HY22868  -0.152   2.760  13.349
  186DOPC   O3122869   0.056   2.727  13.316
  186DOPC   C3122870   0.048   2.606  13.375
  186DOPC   O3222871  -0.055   2.553  13.411
  186DOPC   C3222872   0.188   2.540  13.391
  186DOPC   H2X22873   0.181   2.444  13.336
  186DOPC   H2Y22874   0.256   2.604  13.331
  186DOPC   C2322875   0.032   3.130  13.658
  186DOPC   H3R22876   0.075   3.218  13.604
  186DOPC   H3S22877   0.083   3.045  13.609
  186DOPC   C2422878   0.079   3.130  13.806
  186DOPC   H4R22879   0.058   3.035  13.859
  186DOPC   H4S22880   0.023   3.205  13.866
  186DOPC   C2522881   0.232   3.148  13.818
  186DOPC   H5R22882   0.260   3.253  13.799
  186DOPC   H5S22883   0.280   3.090  13.736
  186DOPC   C2622884   0.293   3.098  13.951
  186DOPC   H6R22885   0.399   3.070  13.932
  186DOPC   H6S22886   0.240   3.008  13.987
  186DOPC   C2722887   0.291   3.210  14.056
  186DOPC   H7R22888   0.184   3.233  14.077
  186DOPC   H7S22889   0.339   3.298  14.009
  186DOPC   C2822890   0.368   3.186  14.187
  186DOPC   H8R22891   0.477   3.186  14.164
  186DOPC   H8S22892   0.346   3.084  14.225
  186DOPC   C2922893   0.333   3.294  14.287
  186DOPC   H9R22894   0.373   3.393  14.263
  186DOPC  C21022895   0.256   3.280  14.397
  186DOPC  H10R22896   0.235   3.368  14.461
  186DOPC  C21122897   0.190   3.152  14.439
  186DOPC  H11R22898   0.266   3.072  14.428
  186DOPC  H11S22899   0.105   3.129  14.371
  186DOPC  C21222900   0.139   3.135  14.584
  186DOPC  H12R22901   0.223   3.157  14.654
  186DOPC  H12S22902   0.113   3.028  14.598
  186DOPC  C21322903   0.017   3.220  14.623
  186DOPC  H13R22904   0.002   3.300  14.547
  186DOPC  H13S22905   0.041   3.272  14.719
  186DOPC  C21422906  -0.116   3.145  14.643
  186DOPC  H14R22907  -0.153   3.111  14.543
  186DOPC  H14S22908  -0.190   3.217  14.682
  186DOPC  C21522909  -0.117   3.021  14.736
  186DOPC  H15R22910  -0.085   2.934  14.674
  186DOPC  H15S22911  -0.221   3.000  14.768
  186DOPC  C21622912  -0.025   3.025  14.859
  186DOPC  H16R22913   0.077   3.056  14.829
  186DOPC  H16S22914  -0.018   2.923  14.901
  186DOPC  C21722915  -0.069   3.119  14.971
  186DOPC  H17R22916  -0.168   3.086  15.009
  186DOPC  H17S22917  -0.081   3.221  14.929
  186DOPC  C21822918   0.032   3.121  15.085
  186DOPC  H18R22919   0.002   3.193  15.165
  186DOPC  H18S22920   0.132   3.152  15.047
  186DOPC  H18T22921   0.042   3.020  15.131
  186DOPC   C3322922   0.253   2.515  13.532
  186DOPC   H3X22923   0.223   2.414  13.567
  186DOPC   H3Y22924   0.201   2.583  13.602
  186DOPC   C3422925   0.403   2.547  13.562
  186DOPC   H4X22926   0.423   2.653  13.535
  186DOPC   H4Y22927   0.470   2.488  13.496
  186DOPC   C3522928   0.459   2.535  13.707
  186DOPC   H5X22929   0.560   2.580  13.709
  186DOPC   H5Y22930   0.472   2.428  13.735
  186DOPC   C3622931   0.393   2.610  13.823
  186DOPC   H6X22932   0.458   2.595  13.912
  186DOPC   H6Y22933   0.390   2.720  13.806
  186DOPC   C3722934   0.255   2.556  13.859
  186DOPC   H7X22935   0.177   2.588  13.787
  186DOPC   H7Y22936   0.261   2.445  13.856
  186DOPC   C3822937   0.211   2.606  13.994
  186DOPC   H8X22938   0.204   2.717  13.993
  186DOPC   H8Y22939   0.291   2.578  14.067
  186DOPC   C3922940   0.078   2.545  14.024
  186DOPC   H9X22941  -0.002   2.577  13.956
  186DOPC  C31022942   0.050   2.454  14.117
  186DOPC  H10X22943  -0.054   2.419  14.119
  186DOPC  C31122944   0.146   2.390  14.214
  186DOPC  H11X22945   0.251   2.422  14.198
  186DOPC  H11Y22946   0.152   2.282  14.191
  186DOPC  C31222947   0.103   2.403  14.361
  186DOPC  H12X22948   0.185   2.362  14.424
  186DOPC  H12Y22949   0.013   2.338  14.369
  186DOPC  C31322950   0.060   2.540  14.415
  186DOPC  H13X22951   0.137   2.611  14.379
  186DOPC  H13Y22952  -0.037   2.564  14.366
  186DOPC  C31422953   0.042   2.561  14.568
  186DOPC  H14X22954  -0.060   2.527  14.594
  186DOPC  H14Y22955   0.113   2.493  14.621
  186DOPC  C31522956   0.060   2.705  14.628
  186DOPC  H15X22957   0.003   2.709  14.723
  186DOPC  H15Y22958   0.016   2.780  14.559
  186DOPC  C31622959   0.206   2.744  14.661
  186DOPC  H16X22960   0.259   2.648  14.678
  186DOPC  H16Y22961   0.252   2.794  14.573
  186DOPC  C31722962   0.245   2.826  14.783
  186DOPC  H17X22963   0.227   2.934  14.765
  186DOPC  H17Y22964   0.185   2.794  14.871
  186DOPC  C31822965   0.395   2.805  14.810
  186DOPC  H18X22966   0.419   2.698  14.823
  186DOPC  H18Y22967   0.456   2.843  14.724
  186DOPC  H18Z22968   0.429   2.858  14.902
  187DOPC     N22969   5.784   1.185  12.969
  187DOPC   C1222970   5.928   1.188  13.019
  187DOPC  H12A22971   5.970   1.287  13.013
  187DOPC  H12B22972   5.989   1.126  12.955
  187DOPC   C1322973   5.718   1.318  12.975
  187DOPC  H13A22974   5.775   1.389  12.916
  187DOPC  H13B22975   5.617   1.311  12.937
  187DOPC  H13C22976   5.714   1.352  13.077
  187DOPC   C1422977   5.700   1.091  13.052
  187DOPC  H14A22978   5.746   0.994  13.051
  187DOPC  H14B22979   5.699   1.121  13.156
  187DOPC  H14C22980   5.599   1.081  13.014
  187DOPC   C1522981   5.782   1.129  12.830
  187DOPC  H15A22982   5.845   1.185  12.763
  187DOPC  H15B22983   5.682   1.123  12.792
  187DOPC  H15C22984   5.819   1.027  12.834
  187DOPC   C1122985   5.954   1.127  13.157
  187DOPC  H11A22986   6.057   1.153  13.191
  187DOPC  H11B22987   5.884   1.164  13.234
  187DOPC     P22988   6.060   0.893  13.116
  187DOPC   O1322989   6.163   0.972  13.044
  187DOPC   O1422990   6.007   0.770  13.053
  187DOPC   O1222991   5.937   0.988  13.136
  187DOPC   O1122992   6.087   0.876  13.269
  187DOPC    C122993   5.982   0.815  13.346
  187DOPC    HA22994   5.976   0.707  13.320
  187DOPC    HB22995   5.882   0.860  13.326
  187DOPC    C222996   6.012   0.825  13.498
  187DOPC    HS22997   5.938   0.763  13.553
  187DOPC   O2122998   6.009   0.961  13.547
  187DOPC   C2122999   5.888   1.012  13.560
  187DOPC   O2223000   5.784   0.963  13.522
  187DOPC   C2223001   5.898   1.142  13.640
  187DOPC   H2R23002   5.911   1.224  13.566
  187DOPC   H2S23003   5.987   1.139  13.706
  187DOPC    C323004   6.152   0.764  13.523
  187DOPC    HX23005   6.219   0.802  13.443
  187DOPC    HY23006   6.145   0.654  13.509
  187DOPC   O3123007   6.198   0.795  13.656
  187DOPC   C3123008   6.310   0.865  13.661
  187DOPC   O3223009   6.388   0.888  13.571
  187DOPC   C3223010   6.334   0.909  13.804
  187DOPC   H2X23011   6.369   1.014  13.800
  187DOPC   H2Y23012   6.239   0.904  13.861
  187DOPC   C2323013   5.770   1.168  13.724
  187DOPC   H3R23014   5.681   1.156  13.659
  187DOPC   H3S23015   5.770   1.273  13.760
  187DOPC   C2423016   5.754   1.074  13.846
  187DOPC   H4R23017   5.777   0.970  13.816
  187DOPC   H4S23018   5.647   1.077  13.877
  187DOPC   C2523019   5.840   1.113  13.967
  187DOPC   H5R23020   5.831   1.223  13.980
  187DOPC   H5S23021   5.946   1.091  13.943
  187DOPC   C2623022   5.798   1.047  14.101
  187DOPC   H6R23023   5.688   1.052  14.108
  187DOPC   H6S23024   5.837   1.109  14.185
  187DOPC   C2723025   5.842   0.901  14.120
  187DOPC   H7R23026   5.878   0.863  14.022
  187DOPC   H7S23027   5.754   0.841  14.149
  187DOPC   C2823028   5.951   0.868  14.226
  187DOPC   H8R23029   6.045   0.917  14.191
  187DOPC   H8S23030   5.968   0.759  14.218
  187DOPC   C2923031   5.929   0.907  14.371
  187DOPC   H9R23032   5.912   1.014  14.385
  187DOPC  C21023033   5.926   0.831  14.484
  187DOPC  H10R23034   5.910   0.884  14.579
  187DOPC  C21123035   5.941   0.682  14.502
  187DOPC  H11R23036   5.940   0.629  14.404
  187DOPC  H11S23037   5.851   0.646  14.557
  187DOPC  C21223038   6.059   0.628  14.585
  187DOPC  H12R23039   6.151   0.623  14.523
  187DOPC  H12S23040   6.035   0.523  14.614
  187DOPC  C21323041   6.093   0.704  14.713
  187DOPC  H13R23042   6.003   0.716  14.777
  187DOPC  H13S23043   6.128   0.806  14.685
  187DOPC  C21423044   6.203   0.628  14.790
  187DOPC  H14R23045   6.275   0.588  14.715
  187DOPC  H14S23046   6.157   0.541  14.841
  187DOPC  C21523047   6.283   0.712  14.890
  187DOPC  H15R23048   6.343   0.646  14.957
  187DOPC  H15S23049   6.213   0.769  14.954
  187DOPC  C21623050   6.378   0.807  14.817
  187DOPC  H16R23051   6.318   0.861  14.740
  187DOPC  H16S23052   6.457   0.748  14.766
  187DOPC  C21723053   6.442   0.913  14.905
  187DOPC  H17R23054   6.539   0.875  14.944
  187DOPC  H17S23055   6.372   0.924  14.991
  187DOPC  C21823056   6.461   1.050  14.840
  187DOPC  H18R23057   6.474   1.129  14.917
  187DOPC  H18S23058   6.372   1.078  14.779
  187DOPC  H18T23059   6.550   1.051  14.773
  187DOPC   C3323060   6.439   0.816  13.866
  187DOPC   H3X23061   6.537   0.818  13.813
  187DOPC   H3Y23062   6.403   0.712  13.852
  187DOPC   C3423063   6.466   0.842  14.013
  187DOPC   H4X23064   6.545   0.773  14.051
  187DOPC   H4Y23065   6.371   0.818  14.065
  187DOPC   C3523066   6.502   0.984  14.049
  187DOPC   H5X23067   6.483   1.054  13.965
  187DOPC   H5Y23068   6.610   0.992  14.075
  187DOPC   C3623069   6.422   1.027  14.171
  187DOPC   H6X23070   6.322   0.979  14.174
  187DOPC   H6Y23071   6.478   0.992  14.260
  187DOPC   C3723072   6.404   1.176  14.176
  187DOPC   H7X23073   6.409   1.207  14.283
  187DOPC   H7Y23074   6.491   1.224  14.127
  187DOPC   C3823075   6.273   1.217  14.105
  187DOPC   H8X23076   6.278   1.165  14.007
  187DOPC   H8Y23077   6.278   1.325  14.079
  187DOPC   C3923078   6.137   1.188  14.163
  187DOPC   H9X23079   6.067   1.152  14.086
  187DOPC  C31023080   6.088   1.196  14.289
  187DOPC  H10X23081   5.980   1.179  14.303
  187DOPC  C31123082   6.156   1.238  14.415
  187DOPC  H11X23083   6.119   1.338  14.446
  187DOPC  H11Y23084   6.265   1.249  14.394
  187DOPC  C31223085   6.156   1.143  14.535
  187DOPC  H12X23086   6.251   1.161  14.590
  187DOPC  H12Y23087   6.157   1.036  14.505
  187DOPC  C31323088   6.042   1.173  14.633
  187DOPC  H13X23089   6.003   1.275  14.616
  187DOPC  H13Y23090   5.959   1.101  14.615
  187DOPC  C31423091   6.089   1.163  14.778
  187DOPC  H14X23092   6.000   1.134  14.837
  187DOPC  H14Y23093   6.163   1.081  14.791
  187DOPC  C31523094   6.144   1.296  14.834
  187DOPC  H15X23095   6.069   1.374  14.813
  187DOPC  H15Y23096   6.237   1.325  14.779
  187DOPC  C31623097   6.174   1.289  14.985
  187DOPC  H16X23098   6.108   1.211  15.029
  187DOPC  H16Y23099   6.278   1.256  15.001
  187DOPC  C31723100   6.145   1.417  15.065
  187DOPC  H17X23101   6.158   1.392  15.173
  187DOPC  H17Y23102   6.221   1.495  15.040
  187DOPC  C31823103   6.005   1.475  15.045
  187DOPC  H18X23104   5.974   1.535  15.133
  187DOPC  H18Y23105   6.001   1.540  14.955
  187DOPC  H18Z23106   5.930   1.393  15.031
  188DOPC     N23107   1.412   0.755  12.881
  188DOPC   C1223108   1.397   0.670  13.006
  188DOPC  H12A23109   1.461   0.583  13.001
  188DOPC  H12B23110   1.294   0.638  13.013
  188DOPC   C1323111   1.538   0.836  12.891
  188DOPC  H13A23112   1.627   0.775  12.896
  188DOPC  H13B23113   1.547   0.908  12.810
  188DOPC  H13C23114   1.536   0.893  12.983
  188DOPC   C1423115   1.297   0.853  12.876
  188DOPC  H14A23116   1.202   0.802  12.873
  188DOPC  H14B23117   1.299   0.911  12.967
  188DOPC  H14C23118   1.304   0.919  12.791
  188DOPC   C1523119   1.409   0.676  12.755
  188DOPC  H15A23120   1.490   0.605  12.748
  188DOPC  H15B23121   1.417   0.741  12.669
  188DOPC  H15C23122   1.315   0.623  12.744
  188DOPC   C1123123   1.427   0.737  13.141
  188DOPC  H11A23124   1.392   0.669  13.223
  188DOPC  H11B23125   1.537   0.748  13.154
  188DOPC     P23126   1.422   0.990  13.210
  188DOPC   O1323127   1.348   1.103  13.149
  188DOPC   O1423128   1.567   0.983  13.178
  188DOPC   O1223129   1.356   0.860  13.151
  188DOPC   O1123130   1.393   0.973  13.366
  188DOPC    C123131   1.256   0.941  13.402
  188DOPC    HA23132   1.226   0.842  13.362
  188DOPC    HB23133   1.187   1.016  13.359
  188DOPC    C223134   1.222   0.938  13.557
  188DOPC    HS23135   1.112   0.951  13.566
  188DOPC   O2123136   1.290   1.037  13.636
  188DOPC   C2123137   1.327   1.153  13.591
  188DOPC   O2223138   1.299   1.206  13.486
  188DOPC   C2223139   1.409   1.223  13.700
  188DOPC   H2R23140   1.406   1.331  13.677
  188DOPC   H2S23141   1.513   1.186  13.685
  188DOPC    C323142   1.260   0.805  13.628
  188DOPC    HX23143   1.215   0.718  13.576
  188DOPC    HY23144   1.212   0.808  13.729
  188DOPC   O3123145   1.403   0.795  13.649
  188DOPC   C3123146   1.465   0.747  13.542
  188DOPC   O3223147   1.411   0.678  13.457
  188DOPC   C3223148   1.611   0.795  13.539
  188DOPC   H2X23149   1.657   0.741  13.453
  188DOPC   H2Y23150   1.611   0.903  13.512
  188DOPC   C2323151   1.365   1.197  13.846
  188DOPC   H3R23152   1.272   1.138  13.852
  188DOPC   H3S23153   1.347   1.294  13.897
  188DOPC   C2423154   1.476   1.122  13.920
  188DOPC   H4R23155   1.572   1.175  13.905
  188DOPC   H4S23156   1.488   1.025  13.866
  188DOPC   C2523157   1.452   1.102  14.070
  188DOPC   H5R23158   1.414   1.196  14.116
  188DOPC   H5S23159   1.549   1.077  14.118
  188DOPC   C2623160   1.356   0.986  14.099
  188DOPC   H6R23161   1.256   1.019  14.065
  188DOPC   H6S23162   1.352   0.969  14.209
  188DOPC   C2723163   1.398   0.858  14.026
  188DOPC   H7R23164   1.507   0.866  14.006
  188DOPC   H7S23165   1.349   0.855  13.926
  188DOPC   C2823166   1.370   0.726  14.100
  188DOPC   H8R23167   1.324   0.653  14.030
  188DOPC   H8S23168   1.297   0.743  14.183
  188DOPC   C2923169   1.498   0.671  14.155
  188DOPC   H9R23170   1.553   0.605  14.087
  188DOPC  C21023171   1.548   0.699  14.276
  188DOPC  H10R23172   1.643   0.651  14.301
  188DOPC  C21123173   1.492   0.788  14.385
  188DOPC  H11R23174   1.489   0.894  14.353
  188DOPC  H11S23175   1.564   0.783  14.469
  188DOPC  C21223176   1.357   0.750  14.451
  188DOPC  H12R23177   1.330   0.646  14.421
  188DOPC  H12S23178   1.281   0.819  14.410
  188DOPC  C21323179   1.356   0.753  14.606
  188DOPC  H13R23180   1.280   0.829  14.637
  188DOPC  H13S23181   1.454   0.787  14.646
  188DOPC  C21423182   1.321   0.618  14.673
  188DOPC  H14R23183   1.409   0.550  14.670
  188DOPC  H14S23184   1.239   0.568  14.617
  188DOPC  C21523185   1.279   0.634  14.820
  188DOPC  H15R23186   1.188   0.697  14.821
  188DOPC  H15S23187   1.352   0.697  14.875
  188DOPC  C21623188   1.236   0.505  14.895
  188DOPC  H16R23189   1.169   0.448  14.827
  188DOPC  H16S23190   1.176   0.542  14.981
  188DOPC  C21723191   1.334   0.403  14.952
  188DOPC  H17R23192   1.427   0.442  14.999
  188DOPC  H17S23193   1.375   0.338  14.872
  188DOPC  C21823194   1.273   0.320  15.063
  188DOPC  H18R23195   1.353   0.261  15.114
  188DOPC  H18S23196   1.190   0.254  15.030
  188DOPC  H18T23197   1.233   0.389  15.140
  188DOPC   C3323198   1.698   0.769  13.665
  188DOPC   H3X23199   1.802   0.753  13.630
  188DOPC   H3Y23200   1.669   0.677  13.720
  188DOPC   C3423201   1.700   0.886  13.763
  188DOPC   H4X23202   1.613   0.875  13.831
  188DOPC   H4Y23203   1.687   0.980  13.706
  188DOPC   C3523204   1.830   0.899  13.844
  188DOPC   H5X23205   1.860   1.006  13.840
  188DOPC   H5Y23206   1.913   0.843  13.795
  188DOPC   C3623207   1.822   0.858  13.992
  188DOPC   H6X23208   1.718   0.867  14.031
  188DOPC   H6Y23209   1.853   0.752  14.003
  188DOPC   C3723210   1.913   0.949  14.077
  188DOPC   H7X23211   2.003   0.967  14.015
  188DOPC   H7Y23212   1.863   1.047  14.090
  188DOPC   C3823213   1.960   0.895  14.212
  188DOPC   H8X23214   2.029   0.970  14.256
  188DOPC   H8Y23215   2.022   0.804  14.193
  188DOPC   C3923216   1.853   0.860  14.311
  188DOPC   H9X23217   1.833   0.753  14.320
  188DOPC  C31023218   1.780   0.945  14.386
  188DOPC  H10X23219   1.710   0.901  14.458
  188DOPC  C31123220   1.784   1.095  14.391
  188DOPC  H11X23221   1.691   1.135  14.345
  188DOPC  H11Y23222   1.870   1.131  14.331
  188DOPC  C31223223   1.795   1.161  14.531
  188DOPC  H12X23224   1.837   1.263  14.520
  188DOPC  H12Y23225   1.864   1.103  14.594
  188DOPC  C31323226   1.664   1.177  14.609
  188DOPC  H13X23227   1.690   1.224  14.706
  188DOPC  H13Y23228   1.595   1.245  14.556
  188DOPC  C31423229   1.597   1.042  14.637
  188DOPC  H14X23230   1.528   1.019  14.553
  188DOPC  H14Y23231   1.674   0.962  14.643
  188DOPC  C31523232   1.523   1.040  14.770
  188DOPC  H15X23233   1.430   0.980  14.761
  188DOPC  H15Y23234   1.496   1.145  14.795
  188DOPC  C31623235   1.609   0.983  14.883
  188DOPC  H16X23236   1.632   0.876  14.863
  188DOPC  H16Y23237   1.704   1.040  14.885
  188DOPC  C31723238   1.536   1.001  15.016
  188DOPC  H17X23239   1.518   1.110  15.023
  188DOPC  H17Y23240   1.438   0.950  15.010
  188DOPC  C31823241   1.610   0.959  15.142
  188DOPC  H18X23242   1.589   1.029  15.226
  188DOPC  H18Y23243   1.584   0.858  15.182
  188DOPC  H18Z23244   1.719   0.957  15.120
  189DOPC     N23245   3.680   0.243  13.002
  189DOPC   C1223246   3.633   0.121  13.080
  189DOPC  H12A23247   3.718   0.059  13.105
  189DOPC  H12B23248   3.570   0.062  13.015
  189DOPC   C1323249   3.800   0.210  12.919
  189DOPC  H13A23250   3.782   0.125  12.856
  189DOPC  H13B23251   3.828   0.293  12.856
  189DOPC  H13C23252   3.886   0.188  12.981
  189DOPC   C1423253   3.710   0.358  13.094
  189DOPC  H14A23254   3.619   0.382  13.148
  189DOPC  H14B23255   3.787   0.334  13.165
  189DOPC  H14C23256   3.739   0.446  13.038
  189DOPC   C1523257   3.570   0.289  12.912
  189DOPC  H15A23258   3.546   0.214  12.838
  189DOPC  H15B23259   3.597   0.380  12.860
  189DOPC  H15C23260   3.480   0.308  12.969
  189DOPC   C1123261   3.551   0.146  13.209
  189DOPC  H11A23262   3.526   0.049  13.257
  189DOPC  H11B23263   3.612   0.202  13.282
  189DOPC     P23264   3.308   0.146  13.116
  189DOPC   O1323265   3.358   0.024  13.049
  189DOPC   O1423266   3.236   0.240  13.028
  189DOPC   O1223267   3.433   0.221  13.179
  189DOPC   O1123268   3.222   0.114  13.246
  189DOPC    C123269   3.158   0.223  13.315
  189DOPC    HA23270   3.053   0.232  13.280
  189DOPC    HB23271   3.206   0.321  13.294
  189DOPC    C223272   3.156   0.206  13.471
  189DOPC    HS23273   3.124   0.302  13.517
  189DOPC   O2123274   3.286   0.166  13.521
  189DOPC   C2123275   3.375   0.263  13.517
  189DOPC   O2223276   3.355   0.377  13.478
  189DOPC   C2223277   3.509   0.217  13.576
  189DOPC   H2R23278   3.565   0.167  13.495
  189DOPC   H2S23279   3.490   0.144  13.658
  189DOPC    C323280   3.051   0.100  13.514
  189DOPC    HX23281   3.071   0.009  13.454
  189DOPC    HY23282   2.949   0.135  13.485
  189DOPC   O3123283   3.061   0.066  13.654
  189DOPC   C3123284   2.990   0.138  13.739
  189DOPC   O3223285   2.912   0.227  13.709
  189DOPC   C3223286   3.023   0.095  13.883
  189DOPC   H2X23287   3.132   0.076  13.890
  189DOPC   H2Y23288   2.998   0.182  13.947
  189DOPC   C2323289   3.590   0.337  13.632
  189DOPC   H3R23290   3.585   0.422  13.561
  189DOPC   H3S23291   3.698   0.309  13.639
  189DOPC   C2423292   3.541   0.382  13.770
  189DOPC   H4R23293   3.430   0.374  13.778
  189DOPC   H4S23294   3.565   0.490  13.781
  189DOPC   C2523295   3.609   0.310  13.888
  189DOPC   H5R23296   3.712   0.282  13.858
  189DOPC   H5S23297   3.553   0.217  13.912
  189DOPC   C2623298   3.620   0.401  14.011
  189DOPC   H6R23299   3.679   0.491  13.983
  189DOPC   H6S23300   3.676   0.349  14.091
  189DOPC   C2723301   3.484   0.450  14.065
  189DOPC   H7R23302   3.426   0.493  13.981
  189DOPC   H7S23303   3.501   0.530  14.139
  189DOPC   C2823304   3.396   0.342  14.129
  189DOPC   H8R23305   3.369   0.266  14.052
  189DOPC   H8S23306   3.300   0.389  14.160
  189DOPC   C2923307   3.467   0.278  14.244
  189DOPC   H9R23308   3.529   0.191  14.218
  189DOPC  C21023309   3.462   0.318  14.372
  189DOPC  H10R23310   3.516   0.260  14.448
  189DOPC  C21123311   3.384   0.436  14.425
  189DOPC  H11R23312   3.384   0.520  14.353
  189DOPC  H11S23313   3.431   0.473  14.518
  189DOPC  C21223314   3.237   0.400  14.456
  189DOPC  H12R23315   3.185   0.371  14.362
  189DOPC  H12S23316   3.185   0.490  14.495
  189DOPC  C21323317   3.222   0.286  14.557
  189DOPC  H13R23318   3.269   0.316  14.654
  189DOPC  H13S23319   3.275   0.196  14.520
  189DOPC  C21423320   3.075   0.248  14.584
  189DOPC  H14R23321   3.026   0.222  14.488
  189DOPC  H14S23322   3.023   0.337  14.625
  189DOPC  C21523323   3.061   0.131  14.682
  189DOPC  H15R23324   2.954   0.123  14.709
  189DOPC  H15S23325   3.119   0.152  14.774
  189DOPC  C21623326   3.105  -0.004  14.621
  189DOPC  H16R23327   3.210   0.001  14.584
  189DOPC  H16S23328   3.039  -0.021  14.534
  189DOPC  C21723329   3.090  -0.123  14.717
  189DOPC  H17R23330   3.026  -0.092  14.802
  189DOPC  H17S23331   3.189  -0.149  14.760
  189DOPC  C21823332   3.028  -0.246  14.651
  189DOPC  H18R23333   3.105  -0.308  14.601
  189DOPC  H18S23334   2.952  -0.217  14.575
  189DOPC  H18T23335   2.976  -0.309  14.727
  189DOPC   C3323336   2.943  -0.029  13.930
  189DOPC   H3X23337   2.980  -0.121  13.881
  189DOPC   H3Y23338   2.837  -0.015  13.899
  189DOPC   C3423339   2.944  -0.047  14.083
  189DOPC   H4X23340   2.859  -0.113  14.113
  189DOPC   H4Y23341   2.929   0.051  14.133
  189DOPC   C3523342   3.074  -0.111  14.134
  189DOPC   H5X23343   3.159  -0.053  14.093
  189DOPC   H5Y23344   3.081  -0.215  14.093
  189DOPC   C3623345   3.086  -0.115  14.287
  189DOPC   H6X23346   3.097  -0.011  14.324
  189DOPC   H6Y23347   2.991  -0.156  14.329
  189DOPC   C3723348   3.203  -0.201  14.339
  189DOPC   H7X23349   3.208  -0.199  14.450
  189DOPC   H7Y23350   3.182  -0.306  14.309
  189DOPC   C3823351   3.341  -0.163  14.282
  189DOPC   H8X23352   3.327  -0.136  14.176
  189DOPC   H8Y23353   3.401  -0.257  14.284
  189DOPC   C3923354   3.418  -0.048  14.338
  189DOPC   H9X23355   3.366   0.049  14.333
  189DOPC  C31023356   3.538  -0.057  14.396
  189DOPC  H10X23357   3.585   0.033  14.437
  189DOPC  C31123358   3.615  -0.186  14.418
  189DOPC  H11X23359   3.720  -0.162  14.446
  189DOPC  H11Y23360   3.619  -0.250  14.327
  189DOPC  C31223361   3.552  -0.266  14.535
  189DOPC  H12X23362   3.624  -0.341  14.573
  189DOPC  H12Y23363   3.462  -0.321  14.500
  189DOPC  C31323364   3.511  -0.170  14.646
  189DOPC  H13X23365   3.594  -0.097  14.659
  189DOPC  H13Y23366   3.421  -0.114  14.611
  189DOPC  C31423367   3.474  -0.221  14.784
  189DOPC  H14X23368   3.382  -0.283  14.781
  189DOPC  H14Y23369   3.556  -0.280  14.830
  189DOPC  C31523370   3.451  -0.090  14.860
  189DOPC  H15X23371   3.386  -0.024  14.799
  189DOPC  H15Y23372   3.549  -0.038  14.868
  189DOPC  C31623373   3.389  -0.099  14.997
  189DOPC  H16X23374   3.284  -0.134  14.986
  189DOPC  H16Y23375   3.443  -0.173  15.059
  189DOPC  C31723376   3.397   0.040  15.060
  189DOPC  H17X23377   3.389   0.029  15.170
  189DOPC  H17Y23378   3.498   0.082  15.042
  189DOPC  C31823379   3.290   0.139  15.010
  189DOPC  H18X23380   3.189   0.096  15.023
  189DOPC  H18Y23381   3.296   0.234  15.067
  189DOPC  H18Z23382   3.305   0.161  14.903
  190DOPC     N23383   2.157   7.119  13.221
  190DOPC   C1223384   2.286   7.164  13.154
  190DOPC  H12A23385   2.369   7.121  13.207
  190DOPC  H12B23386   2.293   7.272  13.163
  190DOPC   C1323387   2.124   6.976  13.185
  190DOPC  H13A23388   2.030   6.943  13.227
  190DOPC  H13B23389   2.112   6.966  13.078
  190DOPC  H13C23390   2.201   6.907  13.216
  190DOPC   C1423391   2.045   7.206  13.175
  190DOPC  H14A23392   2.056   7.308  13.211
  190DOPC  H14B23393   2.043   7.211  13.068
  190DOPC  H14C23394   1.948   7.169  13.207
  190DOPC   C1523395   2.166   7.131  13.370
  190DOPC  H15A23396   2.244   7.068  13.410
  190DOPC  H15B23397   2.072   7.101  13.414
  190DOPC  H15C23398   2.184   7.234  13.399
  190DOPC   C1123399   2.305   7.132  13.003
  190DOPC  H11A23400   2.411   7.151  12.976
  190DOPC  H11B23401   2.290   7.023  12.986
  190DOPC     P23402   2.249   7.356  12.886
  190DOPC   O1323403   2.162   7.406  12.776
  190DOPC   O1423404   2.394   7.373  12.867
  190DOPC   O1223405   2.215   7.204  12.917
  190DOPC   O1123406   2.204   7.423  13.019
  190DOPC    C123407   2.198   7.565  13.029
  190DOPC    HA23408   2.116   7.606  12.966
  190DOPC    HB23409   2.294   7.612  12.999
  190DOPC    C223410   2.169   7.604  13.174
  190DOPC    HS23411   2.184   7.714  13.189
  190DOPC   O2123412   2.252   7.527  13.261
  190DOPC   C2123413   2.368   7.581  13.285
  190DOPC   O2223414   2.430   7.657  13.212
  190DOPC   C2223415   2.402   7.542  13.427
  190DOPC   H2R23416   2.359   7.442  13.448
  190DOPC   H2S23417   2.354   7.616  13.494
  190DOPC    C323418   2.021   7.574  13.211
  190DOPC    HX23419   1.992   7.482  13.155
  190DOPC    HY23420   1.956   7.655  13.172
  190DOPC   O3123421   1.994   7.549  13.350
  190DOPC   C3123422   2.048   7.622  13.447
  190DOPC   O3223423   2.130   7.712  13.437
  190DOPC   C3223424   1.999   7.562  13.578
  190DOPC   H2X23425   1.894   7.598  13.590
  190DOPC   H2Y23426   2.000   7.451  13.568
  190DOPC   C2323427   2.552   7.539  13.454
  190DOPC   H3R23428   2.600   7.638  13.438
  190DOPC   H3S23429   2.600   7.467  13.385
  190DOPC   C2423430   2.573   7.492  13.597
  190DOPC   H4R23431   2.677   7.456  13.610
  190DOPC   H4S23432   2.504   7.407  13.616
  190DOPC   C2523433   2.553   7.597  13.705
  190DOPC   H5R23434   2.450   7.638  13.702
  190DOPC   H5S23435   2.624   7.680  13.689
  190DOPC   C2623436   2.582   7.531  13.839
  190DOPC   H6R23437   2.685   7.489  13.837
  190DOPC   H6S23438   2.512   7.446  13.853
  190DOPC   C2723439   2.571   7.628  13.956
  190DOPC   H7R23440   2.642   7.711  13.933
  190DOPC   H7S23441   2.606   7.580  14.049
  190DOPC   C2823442   2.432   7.689  13.975
  190DOPC   H8R23443   2.412   7.761  13.893
  190DOPC   H8S23444   2.435   7.748  14.069
  190DOPC   C2923445   2.315   7.597  13.983
  190DOPC   H9R23446   2.273   7.568  13.885
  190DOPC  C21023447   2.271   7.538  14.095
  190DOPC  H10R23448   2.182   7.473  14.093
  190DOPC  C21123449   2.340   7.559  14.227
  190DOPC  H11R23450   2.447   7.580  14.209
  190DOPC  H11S23451   2.338   7.461  14.280
  190DOPC  C21223452   2.293   7.668  14.323
  190DOPC  H12R23453   2.258   7.759  14.270
  190DOPC  H12S23454   2.381   7.695  14.385
  190DOPC  C21323455   2.187   7.611  14.416
  190DOPC  H13R23456   2.217   7.506  14.440
  190DOPC  H13S23457   2.090   7.610  14.361
  190DOPC  C21423458   2.170   7.672  14.553
  190DOPC  H14R23459   2.191   7.781  14.554
  190DOPC  H14S23460   2.241   7.622  14.623
  190DOPC  C21523461   2.027   7.650  14.598
  190DOPC  H15R23462   1.985   7.557  14.554
  190DOPC  H15S23463   1.966   7.735  14.560
  190DOPC  C21623464   2.014   7.647  14.748
  190DOPC  H16R23465   2.066   7.738  14.784
  190DOPC  H16S23466   2.066   7.559  14.790
  190DOPC  C21723467   1.867   7.647  14.788
  190DOPC  H17R23468   1.804   7.675  14.701
  190DOPC  H17S23469   1.845   7.720  14.869
  190DOPC  C21823470   1.826   7.512  14.840
  190DOPC  H18R23471   1.904   7.470  14.907
  190DOPC  H18S23472   1.810   7.451  14.749
  190DOPC  H18T23473   1.730   7.512  14.897
  190DOPC   C3323474   2.081   7.603  13.701
  190DOPC   H3X23475   2.078   7.714  13.712
  190DOPC   H3Y23476   2.189   7.579  13.685
  190DOPC   C3423477   2.034   7.536  13.832
  190DOPC   H4X23478   2.057   7.609  13.913
  190DOPC   H4Y23479   2.094   7.444  13.851
  190DOPC   C3523480   1.885   7.499  13.845
  190DOPC   H5X23481   1.861   7.407  13.787
  190DOPC   H5Y23482   1.828   7.583  13.801
  190DOPC   C3623483   1.839   7.487  13.992
  190DOPC   H6X23484   1.922   7.526  14.056
  190DOPC   H6Y23485   1.753   7.556  14.004
  190DOPC   C3723486   1.798   7.351  14.054
  190DOPC   H7X23487   1.708   7.310  14.002
  190DOPC   H7Y23488   1.882   7.280  14.038
  190DOPC   C3823489   1.770   7.372  14.206
  190DOPC   H8X23490   1.704   7.461  14.205
  190DOPC   H8Y23491   1.863   7.417  14.249
  190DOPC   C3923492   1.710   7.282  14.313
  190DOPC   H9X23493   1.649   7.347  14.377
  190DOPC  C31023494   1.711   7.155  14.363
  190DOPC  H10X23495   1.645   7.142  14.450
  190DOPC  C31123496   1.785   7.026  14.339
  190DOPC  H11X23497   1.851   7.034  14.250
  190DOPC  H11Y23498   1.706   6.954  14.309
  190DOPC  C31223499   1.857   6.963  14.464
  190DOPC  H12X23500   1.796   6.882  14.509
  190DOPC  H12Y23501   1.852   7.041  14.543
  190DOPC  C31323502   2.005   6.908  14.454
  190DOPC  H13X23503   2.005   6.806  14.411
  190DOPC  H13Y23504   2.068   6.968  14.385
  190DOPC  C31423505   2.083   6.906  14.589
  190DOPC  H14X23506   2.018   6.967  14.656
  190DOPC  H14Y23507   2.085   6.804  14.633
  190DOPC  C31523508   2.222   6.975  14.599
  190DOPC  H15X23509   2.222   7.064  14.533
  190DOPC  H15Y23510   2.302   6.907  14.564
  190DOPC  C31623511   2.250   7.021  14.745
  190DOPC  H16X23512   2.155   7.063  14.784
  190DOPC  H16Y23513   2.273   6.936  14.812
  190DOPC  C31723514   2.348   7.136  14.772
  190DOPC  H17X23515   2.452   7.105  14.748
  190DOPC  H17Y23516   2.327   7.223  14.706
  190DOPC  C31823517   2.336   7.184  14.918
  190DOPC  H18X23518   2.354   7.099  14.988
  190DOPC  H18Y23519   2.409   7.264  14.941
  190DOPC  H18Z23520   2.234   7.223  14.938
  191DOPC     N23521   4.953   7.273  13.176
  191DOPC   C1223522   4.912   7.413  13.133
  191DOPC  H12A23523   4.964   7.484  13.196
  191DOPC  H12B23524   4.806   7.425  13.152
  191DOPC   C1323525   4.925   7.254  13.322
  191DOPC  H13A23526   4.818   7.254  13.341
  191DOPC  H13B23527   4.964   7.159  13.357
  191DOPC  H13C23528   4.967   7.334  13.380
  191DOPC   C1423529   5.100   7.259  13.151
  191DOPC  H14A23530   5.119   7.283  13.047
  191DOPC  H14B23531   5.157   7.331  13.207
  191DOPC  H14C23532   5.136   7.159  13.169
  191DOPC   C1523533   4.881   7.168  13.096
  191DOPC  H15A23534   4.774   7.170  13.111
  191DOPC  H15B23535   4.914   7.068  13.121
  191DOPC  H15C23536   4.901   7.181  12.991
  191DOPC   C1123537   4.942   7.456  12.987
  191DOPC  H11A23538   4.893   7.384  12.917
  191DOPC  H11B23539   4.896   7.555  12.967
  191DOPC     P23540   5.179   7.573  13.006
  191DOPC   O1323541   5.183   7.681  12.905
  191DOPC   O1423542   5.307   7.513  13.049
  191DOPC   O1223543   5.082   7.459  12.958
  191DOPC   O1123544   5.105   7.627  13.135
  191DOPC    C123545   5.170   7.726  13.215
  191DOPC    HA23546   5.165   7.825  13.165
  191DOPC    HB23547   5.278   7.703  13.232
  191DOPC    C223548   5.098   7.737  13.352
  191DOPC    HS23549   5.139   7.824  13.408
  191DOPC   O2123550   5.114   7.616  13.429
  191DOPC   C2123551   5.234   7.599  13.482
  191DOPC   O2223552   5.327   7.676  13.475
  191DOPC   C2223553   5.237   7.464  13.555
  191DOPC   H2R23554   5.304   7.398  13.495
  191DOPC   H2S23555   5.135   7.420  13.556
  191DOPC    C323556   4.947   7.763  13.328
  191DOPC    HX23557   4.907   7.687  13.257
  191DOPC    HY23558   4.939   7.861  13.277
  191DOPC   O3123559   4.873   7.767  13.452
  191DOPC   C3123560   4.828   7.649  13.496
  191DOPC   O3223561   4.827   7.545  13.433
  191DOPC   C3223562   4.778   7.669  13.638
  191DOPC   H2X23563   4.863   7.705  13.700
  191DOPC   H2Y23564   4.701   7.749  13.635
  191DOPC   C2323565   5.291   7.475  13.699
  191DOPC   H3R23566   5.386   7.532  13.701
  191DOPC   H3S23567   5.314   7.373  13.735
  191DOPC   C2423568   5.190   7.538  13.796
  191DOPC   H4R23569   5.094   7.482  13.788
  191DOPC   H4S23570   5.171   7.643  13.768
  191DOPC   C2523571   5.238   7.532  13.942
  191DOPC   H5R23572   5.335   7.587  13.950
  191DOPC   H5S23573   5.258   7.426  13.970
  191DOPC   C2623574   5.140   7.592  14.044
  191DOPC   H6R23575   5.127   7.701  14.023
  191DOPC   H6S23576   5.184   7.583  14.145
  191DOPC   C2723577   5.002   7.524  14.044
  191DOPC   H7R23578   5.017   7.414  14.049
  191DOPC   H7S23579   4.949   7.546  13.949
  191DOPC   C2823580   4.913   7.565  14.163
  191DOPC   H8R23581   4.966   7.533  14.256
  191DOPC   H8S23582   4.819   7.506  14.159
  191DOPC   C2923583   4.882   7.712  14.162
  191DOPC   H9R23584   4.848   7.751  14.065
  191DOPC  C21023585   4.892   7.797  14.266
  191DOPC  H10R23586   4.868   7.903  14.250
  191DOPC  C21123587   4.936   7.762  14.406
  191DOPC  H11R23588   4.935   7.653  14.424
  191DOPC  H11S23589   4.865   7.806  14.479
  191DOPC  C21223590   5.078   7.815  14.437
  191DOPC  H12R23591   5.078   7.926  14.437
  191DOPC  H12S23592   5.147   7.780  14.357
  191DOPC  C21323593   5.132   7.763  14.572
  191DOPC  H13R23594   5.239   7.791  14.581
  191DOPC  H13S23595   5.125   7.652  14.573
  191DOPC  C21423596   5.057   7.819  14.694
  191DOPC  H14R23597   4.949   7.795  14.683
  191DOPC  H14S23598   5.067   7.929  14.696
  191DOPC  C21523599   5.108   7.759  14.826
  191DOPC  H15R23600   5.217   7.781  14.836
  191DOPC  H15S23601   5.096   7.649  14.822
  191DOPC  C21623602   5.034   7.812  14.950
  191DOPC  H16R23603   5.054   7.921  14.961
  191DOPC  H16S23604   5.075   7.761  15.039
  191DOPC  C21723605   4.883   7.789  14.944
  191DOPC  H17R23606   4.864   7.683  14.917
  191DOPC  H17S23607   4.839   7.852  14.863
  191DOPC  C21823608   4.812   7.820  15.075
  191DOPC  H18R23609   4.859   7.765  15.159
  191DOPC  H18S23610   4.705   7.791  15.069
  191DOPC  H18T23611   4.818   7.929  15.096
  191DOPC   C3323612   4.717   7.542  13.703
  191DOPC   H3X23613   4.799   7.473  13.732
  191DOPC   H3Y23614   4.652   7.487  13.631
  191DOPC   C3423615   4.633   7.577  13.826
  191DOPC   H4X23616   4.530   7.607  13.795
  191DOPC   H4Y23617   4.680   7.664  13.877
  191DOPC   C3523618   4.621   7.466  13.930
  191DOPC   H5X23619   4.567   7.505  14.018
  191DOPC   H5Y23620   4.725   7.441  13.961
  191DOPC   C3623621   4.548   7.340  13.880
  191DOPC   H6X23622   4.448   7.369  13.842
  191DOPC   H6Y23623   4.605   7.294  13.797
  191DOPC   C3723624   4.530   7.237  13.993
  191DOPC   H7X23625   4.468   7.283  14.072
  191DOPC   H7Y23626   4.473   7.149  13.954
  191DOPC   C3823627   4.663   7.188  14.053
  191DOPC   H8X23628   4.728   7.276  14.076
  191DOPC   H8Y23629   4.718   7.129  13.976
  191DOPC   C3923630   4.646   7.109  14.179
  191DOPC   H9X23631   4.645   6.999  14.165
  191DOPC  C31023632   4.631   7.161  14.302
  191DOPC  H10X23633   4.619   7.094  14.388
  191DOPC  C31123634   4.628   7.309  14.334
  191DOPC  H11X23635   4.596   7.368  14.245
  191DOPC  H11Y23636   4.730   7.344  14.360
  191DOPC  C31223637   4.531   7.343  14.448
  191DOPC  H12X23638   4.435   7.289  14.432
  191DOPC  H12Y23639   4.507   7.451  14.445
  191DOPC  C31323640   4.585   7.309  14.589
  191DOPC  H13X23641   4.496   7.290  14.653
  191DOPC  H13Y23642   4.645   7.216  14.588
  191DOPC  C31423643   4.663   7.424  14.654
  191DOPC  H14X23644   4.614   7.521  14.628
  191DOPC  H14Y23645   4.654   7.413  14.765
  191DOPC  C31523646   4.812   7.435  14.621
  191DOPC  H15X23647   4.849   7.527  14.671
  191DOPC  H15Y23648   4.828   7.450  14.512
  191DOPC  C31623649   4.897   7.317  14.671
  191DOPC  H16X23650   4.842   7.265  14.752
  191DOPC  H16Y23651   4.912   7.243  14.589
  191DOPC  C31723652   5.033   7.364  14.726
  191DOPC  H17X23653   5.095   7.401  14.642
  191DOPC  H17Y23654   5.014   7.450  14.794
  191DOPC  C31823655   5.109   7.258  14.805
  191DOPC  H18X23656   5.132   7.171  14.741
  191DOPC  H18Y23657   5.205   7.299  14.844
  191DOPC  H18Z23658   5.049   7.224  14.892
  192DOPC     N23659   0.049   5.099  12.910
  192DOPC   C1223660   0.118   5.037  13.031
  192DOPC  H12A23661   0.131   4.932  13.014
  192DOPC  H12B23662   0.050   5.046  13.115
  192DOPC   C1323663  -0.041   5.210  12.953
  192DOPC  H13A23664   0.011   5.277  13.019
  192DOPC  H13B23665  -0.078   5.267  12.869
  192DOPC  H13C23666  -0.127   5.173  13.008
  192DOPC   C1423667  -0.029   4.996  12.835
  192DOPC  H14A23668  -0.086   5.041  12.755
  192DOPC  H14B23669   0.037   4.920  12.795
  192DOPC  H14C23670  -0.099   4.945  12.901
  192DOPC   C1523671   0.155   5.154  12.819
  192DOPC  H15A23672   0.222   5.076  12.787
  192DOPC  H15B23673   0.215   5.224  12.877
  192DOPC  H15C23674   0.112   5.206  12.735
  192DOPC   C1123675   0.256   5.095  13.075
  192DOPC  H11A23676   0.284   5.054  13.174
  192DOPC  H11B23677   0.333   5.056  13.005
  192DOPC     P23678   0.222   5.328  13.194
  192DOPC   O1323679   0.222   5.467  13.142
  192DOPC   O1423680   0.310   5.302  13.309
  192DOPC   O1223681   0.260   5.237  13.073
  192DOPC   O1123682   0.073   5.286  13.225
  192DOPC    C123683   0.037   5.173  13.304
  192DOPC    HA23684   0.118   5.098  13.315
  192DOPC    HB23685  -0.050   5.124  13.253
  192DOPC    C223686  -0.013   5.209  13.446
  192DOPC    HS23687  -0.085   5.293  13.439
  192DOPC   O2123688   0.097   5.241  13.534
  192DOPC   C2123689   0.129   5.370  13.533
  192DOPC   O2223690   0.078   5.456  13.464
  192DOPC   C2223691   0.233   5.403  13.640
  192DOPC   H2R23692   0.333   5.381  13.597
  192DOPC   H2S23693   0.216   5.337  13.728
  192DOPC    C323694  -0.100   5.092  13.500
  192DOPC    HX23695  -0.052   4.995  13.473
  192DOPC    HY23696  -0.197   5.094  13.446
  192DOPC   O3123697  -0.125   5.106  13.641
  192DOPC   C3123698  -0.026   5.054  13.714
  192DOPC   O3223699   0.068   4.990  13.669
  192DOPC   C3223700  -0.056   5.078  13.861
  192DOPC   H2X23701  -0.101   5.179  13.871
  192DOPC   H2Y23702  -0.130   5.002  13.894
  192DOPC   C2323703   0.219   5.553  13.678
  192DOPC   H3R23704   0.123   5.568  13.731
  192DOPC   H3S23705   0.216   5.615  13.587
  192DOPC   C2423706   0.334   5.609  13.764
  192DOPC   H4R23707   0.307   5.712  13.796
  192DOPC   H4S23708   0.424   5.617  13.701
  192DOPC   C2523709   0.369   5.525  13.888
  192DOPC   H5R23710   0.450   5.576  13.945
  192DOPC   H5S23711   0.411   5.428  13.852
  192DOPC   C2623712   0.252   5.495  13.982
  192DOPC   H6R23713   0.163   5.465  13.922
  192DOPC   H6S23714   0.223   5.586  14.039
  192DOPC   C2723715   0.284   5.379  14.077
  192DOPC   H7R23716   0.356   5.411  14.156
  192DOPC   H7S23717   0.336   5.301  14.016
  192DOPC   C2823718   0.159   5.311  14.136
  192DOPC   H8R23719   0.188   5.208  14.165
  192DOPC   H8S23720   0.082   5.305  14.057
  192DOPC   C2923721   0.101   5.380  14.256
  192DOPC   H9R23722   0.158   5.467  14.291
  192DOPC  C21023723  -0.012   5.344  14.319
  192DOPC  H10R23724  -0.043   5.402  14.408
  192DOPC  C21123725  -0.103   5.229  14.284
  192DOPC  H11R23726  -0.128   5.174  14.378
  192DOPC  H11S23727  -0.054   5.155  14.217
  192DOPC  C21223728  -0.232   5.278  14.218
  192DOPC  H12R23729  -0.207   5.332  14.124
  192DOPC  H12S23730  -0.279   5.352  14.286
  192DOPC  C21323731  -0.337   5.171  14.185
  192DOPC  H13R23732  -0.305   5.118  14.092
  192DOPC  H13S23733  -0.434   5.221  14.162
  192DOPC  C21423734  -0.360   5.064  14.293
  192DOPC  H14R23735  -0.265   5.007  14.305
  192DOPC  H14S23736  -0.436   4.992  14.255
  192DOPC  C21523737  -0.406   5.114  14.430
  192DOPC  H15R23738  -0.505   5.164  14.421
  192DOPC  H15S23739  -0.334   5.190  14.468
  192DOPC  C21623740  -0.415   4.999  14.532
  192DOPC  H16R23741  -0.315   4.951  14.536
  192DOPC  H16S23742  -0.490   4.926  14.495
  192DOPC  C21723743  -0.451   5.046  14.672
  192DOPC  H17R23744  -0.550   5.097  14.669
  192DOPC  H17S23745  -0.371   5.120  14.694
  192DOPC  C21823746  -0.448   4.948  14.789
  192DOPC  H18R23747  -0.475   4.996  14.885
  192DOPC  H18S23748  -0.345   4.909  14.800
  192DOPC  H18T23749  -0.520   4.864  14.776
  192DOPC   C3323750   0.072   5.068  13.946
  192DOPC   H3X23751   0.040   5.087  14.051
  192DOPC   H3Y23752   0.145   5.146  13.916
  192DOPC   C3423753   0.141   4.932  13.945
  192DOPC   H4X23754   0.202   4.920  13.853
  192DOPC   H4Y23755   0.063   4.853  13.945
  192DOPC   C3523756   0.232   4.913  14.066
  192DOPC   H5X23757   0.174   4.928  14.160
  192DOPC   H5Y23758   0.311   4.991  14.064
  192DOPC   C3623759   0.297   4.775  14.069
  192DOPC   H6X23760   0.362   4.765  13.979
  192DOPC   H6Y23761   0.366   4.772  14.156
  192DOPC   C3723762   0.200   4.654  14.071
  192DOPC   H7X23763   0.173   4.637  13.964
  192DOPC   H7Y23764   0.256   4.563  14.104
  192DOPC   C3823765   0.065   4.666  14.148
  192DOPC   H8X23766  -0.000   4.590  14.100
  192DOPC   H8Y23767   0.019   4.764  14.124
  192DOPC   C3923768   0.057   4.639  14.296
  192DOPC   H9X23769   0.074   4.533  14.322
  192DOPC  C31023770   0.024   4.723  14.397
  192DOPC  H10X23771   0.023   4.682  14.499
  192DOPC  C31123772  -0.015   4.868  14.388
  192DOPC  H11X23773  -0.124   4.874  14.408
  192DOPC  H11Y23774  -0.000   4.910  14.286
  192DOPC  C31223775   0.048   4.963  14.491
  192DOPC  H12X23776   0.068   4.910  14.587
  192DOPC  H12Y23777  -0.028   5.041  14.515
  192DOPC  C31323778   0.174   5.037  14.443
  192DOPC  H13X23779   0.259   4.966  14.436
  192DOPC  H13Y23780   0.155   5.076  14.340
  192DOPC  C31423781   0.208   5.156  14.533
  192DOPC  H14X23782   0.123   5.228  14.527
  192DOPC  H14Y23783   0.214   5.123  14.639
  192DOPC  C31523784   0.338   5.229  14.496
  192DOPC  H15X23785   0.352   5.220  14.386
  192DOPC  H15Y23786   0.423   5.178  14.544
  192DOPC  C31623787   0.339   5.379  14.531
  192DOPC  H16X23788   0.441   5.420  14.512
  192DOPC  H16Y23789   0.270   5.431  14.462
  192DOPC  C31723790   0.295   5.415  14.674
  192DOPC  H17X23791   0.282   5.526  14.678
  192DOPC  H17Y23792   0.196   5.370  14.695
  192DOPC  C31823793   0.395   5.375  14.783
  192DOPC  H18X23794   0.359   5.407  14.883
  192DOPC  H18Y23795   0.409   5.265  14.783
  192DOPC  H18Z23796   0.494   5.423  14.764
  193DOPC     N23797   7.345   1.630  12.966
  193DOPC   C1223798   7.290   1.654  13.106
  193DOPC  H12A23799   7.284   1.560  13.159
  193DOPC  H12B23800   7.189   1.692  13.097
  193DOPC   C1323801   7.291   1.503  12.905
  193DOPC  H13A23802   7.326   1.493  12.804
  193DOPC  H13B23803   7.323   1.416  12.961
  193DOPC  H13C23804   7.183   1.504  12.903
  193DOPC   C1423805   7.494   1.623  12.971
  193DOPC  H14A23806   7.531   1.713  13.019
  193DOPC  H14B23807   7.528   1.538  13.027
  193DOPC  H14C23808   7.536   1.617  12.872
  193DOPC   C1523809   7.304   1.745  12.878
  193DOPC  H15A23810   7.348   1.738  12.780
  193DOPC  H15B23811   7.334   1.838  12.925
  193DOPC  H15C23812   7.197   1.750  12.868
  193DOPC   C1123813   7.367   1.756  13.193
  193DOPC  H11A23814   7.320   1.761  13.294
  193DOPC  H11B23815   7.471   1.721  13.213
  193DOPC     P23816   7.238   1.976  13.137
  193DOPC   O1323817   7.123   1.885  13.118
  193DOPC   O1423818   7.260   2.080  13.034
  193DOPC   O1223819   7.371   1.887  13.135
  193DOPC   O1123820   7.238   2.038  13.283
  193DOPC    C123821   7.118   2.062  13.359
  193DOPC    HA23822   7.026   2.046  13.299
  193DOPC    HB23823   7.117   2.167  13.394
  193DOPC    C223824   7.109   1.969  13.484
  193DOPC    HS23825   7.194   1.995  13.551
  193DOPC   O2123826   7.113   1.835  13.436
  193DOPC   C2123827   7.186   1.750  13.500
  193DOPC   O2223828   7.267   1.774  13.588
  193DOPC   C2223829   7.153   1.613  13.443
  193DOPC   H2R23830   7.246   1.569  13.402
  193DOPC   H2S23831   7.076   1.620  13.364
  193DOPC    C323832   6.976   1.984  13.562
  193DOPC    HX23833   6.905   1.920  13.505
  193DOPC    HY23834   6.942   2.089  13.554
  193DOPC   O3123835   6.978   1.937  13.700
  193DOPC   C3123836   6.866   1.965  13.768
  193DOPC   O3223837   6.776   2.036  13.728
  193DOPC   C3223838   6.855   1.886  13.898
  193DOPC   H2X23839   6.746   1.871  13.911
  193DOPC   H2Y23840   6.901   1.786  13.884
  193DOPC   C2323841   7.103   1.526  13.559
  193DOPC   H3R23842   7.187   1.526  13.631
  193DOPC   H3S23843   7.088   1.421  13.525
  193DOPC   C2423844   6.973   1.582  13.621
  193DOPC   H4R23845   6.887   1.569  13.551
  193DOPC   H4S23846   6.983   1.691  13.639
  193DOPC   C2523847   6.938   1.522  13.757
  193DOPC   H5R23848   6.890   1.422  13.746
  193DOPC   H5S23849   6.862   1.587  13.805
  193DOPC   C2623850   7.063   1.510  13.846
  193DOPC   H6R23851   7.109   1.611  13.857
  193DOPC   H6S23852   7.138   1.444  13.798
  193DOPC   C2723853   7.043   1.443  13.981
  193DOPC   H7R23854   7.138   1.438  14.037
  193DOPC   H7S23855   7.016   1.339  13.953
  193DOPC   C2823856   6.930   1.497  14.066
  193DOPC   H8R23857   6.885   1.413  14.122
  193DOPC   H8S23858   6.847   1.533  14.001
  193DOPC   C2923859   6.975   1.606  14.160
  193DOPC   H9R23860   6.967   1.709  14.122
  193DOPC  C21023861   7.002   1.586  14.289
  193DOPC  H10R23862   7.030   1.672  14.352
  193DOPC  C21123863   6.993   1.452  14.358
  193DOPC  H11R23864   7.080   1.437  14.424
  193DOPC  H11S23865   6.997   1.367  14.286
  193DOPC  C21223866   6.867   1.439  14.444
  193DOPC  H12R23867   6.874   1.342  14.497
  193DOPC  H12S23868   6.776   1.435  14.380
  193DOPC  C21323869   6.854   1.552  14.546
  193DOPC  H13R23870   6.793   1.634  14.503
  193DOPC  H13S23871   6.955   1.596  14.567
  193DOPC  C21423872   6.795   1.505  14.678
  193DOPC  H14R23873   6.709   1.437  14.660
  193DOPC  H14S23874   6.757   1.593  14.734
  193DOPC  C21523875   6.897   1.430  14.763
  193DOPC  H15R23876   6.999   1.471  14.746
  193DOPC  H15S23877   6.900   1.324  14.731
  193DOPC  C21623878   6.860   1.440  14.911
  193DOPC  H16R23879   6.753   1.410  14.917
  193DOPC  H16S23880   6.864   1.546  14.942
  193DOPC  C21723881   6.943   1.352  15.005
  193DOPC  H17R23882   6.918   1.246  14.983
  193DOPC  H17S23883   6.913   1.373  15.109
  193DOPC  C21823884   7.094   1.371  14.995
  193DOPC  H18R23885   7.119   1.477  15.012
  193DOPC  H18S23886   7.133   1.342  14.895
  193DOPC  H18T23887   7.145   1.310  15.073
  193DOPC   C3323888   6.907   1.959  14.024
  193DOPC   H3X23889   6.876   1.896  14.111
  193DOPC   H3Y23890   6.856   2.056  14.038
  193DOPC   C3423891   7.060   1.976  14.032
  193DOPC   H4X23892   7.088   1.982  14.140
  193DOPC   H4Y23893   7.092   2.070  13.984
  193DOPC   C3523894   7.137   1.863  13.965
  193DOPC   H5X23895   7.138   1.874  13.855
  193DOPC   H5Y23896   7.086   1.766  13.986
  193DOPC   C3623897   7.281   1.847  14.013
  193DOPC   H6X23898   7.341   1.920  13.955
  193DOPC   H6Y23899   7.288   1.870  14.121
  193DOPC   C3723900   7.329   1.704  13.988
  193DOPC   H7X23901   7.261   1.638  14.047
  193DOPC   H7Y23902   7.316   1.678  13.881
  193DOPC   C3823903   7.474   1.678  14.030
  193DOPC   H8X23904   7.494   1.734  14.123
  193DOPC   H8Y23905   7.542   1.719  13.952
  193DOPC   C3923906   7.494   1.530  14.046
  193DOPC   H9X23907   7.507   1.474  13.952
  193DOPC  C31023908   7.493   1.462  14.162
  193DOPC  H10X23909   7.506   1.353  14.159
  193DOPC  C31123910   7.472   1.520  14.301
  193DOPC  H11X23911   7.476   1.631  14.300
  193DOPC  H11Y23912   7.557   1.488  14.365
  193DOPC  C31223913   7.337   1.479  14.364
  193DOPC  H12X23914   7.319   1.370  14.350
  193DOPC  H12Y23915   7.259   1.532  14.306
  193DOPC  C31323916   7.319   1.511  14.515
  193DOPC  H13X23917   7.213   1.506  14.545
  193DOPC  H13Y23918   7.369   1.435  14.578
  193DOPC  C31423919   7.368   1.649  14.556
  193DOPC  H14X23920   7.365   1.657  14.667
  193DOPC  H14Y23921   7.473   1.664  14.525
  193DOPC  C31523922   7.277   1.754  14.494
  193DOPC  H15X23923   7.173   1.744  14.533
  193DOPC  H15Y23924   7.273   1.737  14.384
  193DOPC  C31623925   7.330   1.894  14.515
  193DOPC  H16X23926   7.437   1.891  14.485
  193DOPC  H16Y23927   7.274   1.962  14.447
  193DOPC  C31723928   7.318   1.950  14.656
  193DOPC  H17X23929   7.353   1.875  14.731
  193DOPC  H17Y23930   7.386   2.038  14.663
  193DOPC  C31823931   7.176   1.997  14.686
  193DOPC  H18X23932   7.149   2.082  14.619
  193DOPC  H18Y23933   7.103   1.915  14.668
  193DOPC  H18Z23934   7.166   2.030  14.791
  194DOPC     N23935   1.751   0.383  12.848
  194DOPC   C1223936   1.829   0.262  12.900
  194DOPC  H12A23937   1.932   0.293  12.911
  194DOPC  H12B23938   1.829   0.182  12.828
  194DOPC   C1323939   1.605   0.358  12.867
  194DOPC  H13A23940   1.545   0.441  12.830
  194DOPC  H13B23941   1.575   0.268  12.817
  194DOPC  H13C23942   1.589   0.345  12.973
  194DOPC   C1423943   1.787   0.407  12.705
  194DOPC  H14A23944   1.894   0.418  12.697
  194DOPC  H14B23945   1.756   0.326  12.640
  194DOPC  H14C23946   1.742   0.499  12.668
  194DOPC   C1523947   1.794   0.501  12.930
  194DOPC  H15A23948   1.898   0.523  12.912
  194DOPC  H15B23949   1.788   0.476  13.035
  194DOPC  H15C23950   1.736   0.590  12.911
  194DOPC   C1123951   1.786   0.205  13.037
  194DOPC  H11A23952   1.685   0.159  13.033
  194DOPC  H11B23953   1.858   0.123  13.061
  194DOPC     P23954   1.815   0.277  13.287
  194DOPC   O1323955   1.864   0.400  13.350
  194DOPC   O1423956   1.897   0.155  13.296
  194DOPC   O1223957   1.789   0.308  13.134
  194DOPC   O1123958   1.668   0.241  13.331
  194DOPC    C123959   1.555   0.307  13.275
  194DOPC    HA23960   1.524   0.256  13.182
  194DOPC    HB23961   1.577   0.413  13.250
  194DOPC    C223962   1.435   0.306  13.375
  194DOPC    HS23963   1.361   0.383  13.344
  194DOPC   O2123964   1.474   0.331  13.510
  194DOPC   C2123965   1.561   0.425  13.541
  194DOPC   O2223966   1.617   0.501  13.465
  194DOPC   C2223967   1.574   0.434  13.693
  194DOPC   H2R23968   1.515   0.354  13.742
  194DOPC   H2S23969   1.530   0.531  13.724
  194DOPC    C323970   1.365   0.166  13.370
  194DOPC    HX23971   1.300   0.166  13.280
  194DOPC    HY23972   1.296   0.156  13.457
  194DOPC   O3123973   1.456   0.053  13.360
  194DOPC   C3123974   1.513   0.020  13.478
  194DOPC   O3223975   1.484   0.068  13.585
  194DOPC   C3223976   1.613  -0.093  13.462
  194DOPC   H2X23977   1.575  -0.169  13.389
  194DOPC   H2Y23978   1.707  -0.049  13.422
  194DOPC   C2323979   1.719   0.416  13.739
  194DOPC   H3R23980   1.728   0.450  13.845
  194DOPC   H3S23981   1.789   0.477  13.678
  194DOPC   C2423982   1.755   0.268  13.730
  194DOPC   H4R23983   1.741   0.235  13.625
  194DOPC   H4S23984   1.683   0.210  13.791
  194DOPC   C2523985   1.899   0.234  13.770
  194DOPC   H5R23986   1.969   0.283  13.698
  194DOPC   H5S23987   1.907   0.124  13.758
  194DOPC   C2623988   1.941   0.269  13.914
  194DOPC   H6R23989   1.940   0.380  13.927
  194DOPC   H6S23990   2.046   0.235  13.930
  194DOPC   C2723991   1.851   0.204  14.018
  194DOPC   H7R23992   1.775   0.142  13.965
  194DOPC   H7S23993   1.794   0.284  14.071
  194DOPC   C2823994   1.920   0.108  14.117
  194DOPC   H8R23995   2.012   0.065  14.071
  194DOPC   H8S23996   1.849   0.024  14.130
  194DOPC   C2923997   1.950   0.162  14.254
  194DOPC   H9R23998   2.049   0.207  14.269
  194DOPC  C21023999   1.862   0.159  14.355
  194DOPC  H10R24000   1.887   0.209  14.450
  194DOPC  C21124001   1.722   0.103  14.347
  194DOPC  H11R24002   1.682   0.089  14.450
  194DOPC  H11S24003   1.719   0.002  14.300
  194DOPC  C21224004   1.629   0.198  14.269
  194DOPC  H12R24005   1.524   0.170  14.294
  194DOPC  H12S24006   1.639   0.180  14.160
  194DOPC  C21324007   1.650   0.348  14.301
  194DOPC  H13R24008   1.601   0.414  14.226
  194DOPC  H13S24009   1.757   0.376  14.295
  194DOPC  C21424010   1.593   0.371  14.440
  194DOPC  H14R24011   1.638   0.289  14.500
  194DOPC  H14S24012   1.483   0.356  14.435
  194DOPC  C21524013   1.622   0.497  14.519
  194DOPC  H15R24014   1.591   0.485  14.625
  194DOPC  H15S24015   1.550   0.574  14.484
  194DOPC  C21624016   1.766   0.547  14.519
  194DOPC  H16R24017   1.761   0.657  14.531
  194DOPC  H16S24018   1.819   0.528  14.423
  194DOPC  C21724019   1.844   0.490  14.637
  194DOPC  H17R24020   1.900   0.399  14.608
  194DOPC  H17S24021   1.774   0.461  14.718
  194DOPC  C21824022   1.937   0.596  14.692
  194DOPC  H18R24023   1.990   0.564  14.784
  194DOPC  H18S24024   1.877   0.686  14.718
  194DOPC  H18T24025   2.013   0.624  14.616
  194DOPC   C3324026   1.640  -0.158  13.600
  194DOPC   H3X24027   1.661  -0.078  13.674
  194DOPC   H3Y24028   1.730  -0.222  13.594
  194DOPC   C3424029   1.525  -0.245  13.652
  194DOPC   H4X24030   1.541  -0.348  13.614
  194DOPC   H4Y24031   1.428  -0.210  13.609
  194DOPC   C3524032   1.512  -0.246  13.805
  194DOPC   H5X24033   1.614  -0.247  13.850
  194DOPC   H5Y24034   1.460  -0.339  13.837
  194DOPC   C3624035   1.432  -0.126  13.858
  194DOPC   H6X24036   1.494  -0.033  13.854
  194DOPC   H6Y24037   1.348  -0.114  13.787
  194DOPC   C3724038   1.367  -0.143  13.997
  194DOPC   H7X24039   1.306  -0.053  14.022
  194DOPC   H7Y24040   1.296  -0.228  13.986
  194DOPC   C3824041   1.467  -0.170  14.109
  194DOPC   H8X24042   1.504  -0.075  14.153
  194DOPC   H8Y24043   1.554  -0.220  14.061
  194DOPC   C3924044   1.412  -0.265  14.211
  194DOPC   H9X24045   1.366  -0.354  14.165
  194DOPC  C31024046   1.417  -0.258  14.345
  194DOPC  H10X24047   1.368  -0.339  14.400
  194DOPC  C31124048   1.478  -0.153  14.434
  194DOPC  H11X24049   1.444  -0.051  14.407
  194DOPC  H11Y24050   1.589  -0.153  14.428
  194DOPC  C31224051   1.436  -0.185  14.579
  194DOPC  H12X24052   1.409  -0.292  14.596
  194DOPC  H12Y24053   1.343  -0.126  14.595
  194DOPC  C31324054   1.538  -0.151  14.689
  194DOPC  H13X24055   1.614  -0.232  14.691
  194DOPC  H13Y24056   1.590  -0.057  14.661
  194DOPC  C31424057   1.472  -0.137  14.828
  194DOPC  H14X24058   1.367  -0.105  14.808
  194DOPC  H14Y24059   1.466  -0.237  14.876
  194DOPC  C31524060   1.526  -0.031  14.925
  194DOPC  H15X24061   1.462   0.060  14.921
  194DOPC  H15Y24062   1.627   0.004  14.896
  194DOPC  C31624063   1.530  -0.074  15.072
  194DOPC  H16X24064   1.488  -0.176  15.079
  194DOPC  H16Y24065   1.635  -0.073  15.107
  194DOPC  C31724066   1.450   0.015  15.167
  194DOPC  H17X24067   1.470  -0.020  15.271
  194DOPC  H17Y24068   1.488   0.119  15.161
  194DOPC  C31824069   1.299   0.009  15.140
  194DOPC  H18X24070   1.277   0.058  15.043
  194DOPC  H18Y24071   1.264  -0.096  15.130
  194DOPC  H18Z24072   1.242   0.060  15.220
  195DOPC     N24073   5.689   7.548  13.066
  195DOPC   C1224074   5.687   7.453  13.185
  195DOPC  H12A24075   5.598   7.393  13.177
  195DOPC  H12B24076   5.679   7.511  13.275
  195DOPC   C1324077   5.578   7.648  13.079
  195DOPC  H13A24078   5.482   7.598  13.085
  195DOPC  H13B24079   5.589   7.712  13.165
  195DOPC  H13C24080   5.569   7.711  12.992
  195DOPC   C1424081   5.664   7.470  12.941
  195DOPC  H14A24082   5.679   7.530  12.853
  195DOPC  H14B24083   5.733   7.387  12.938
  195DOPC  H14C24084   5.563   7.430  12.939
  195DOPC   C1524085   5.823   7.615  13.055
  195DOPC  H15A24086   5.845   7.677  13.141
  195DOPC  H15B24087   5.833   7.674  12.966
  195DOPC  H15C24088   5.899   7.539  13.046
  195DOPC   C1124089   5.808   7.356  13.201
  195DOPC  H11A24090   5.896   7.413  13.236
  195DOPC  H11B24091   5.782   7.284  13.282
  195DOPC     P24092   5.978   7.271  13.016
  195DOPC   O1324093   6.007   7.400  12.950
  195DOPC   O1424094   5.976   7.153  12.927
  195DOPC   O1224095   5.834   7.282  13.082
  195DOPC   O1124096   6.076   7.252  13.138
  195DOPC    C124097   6.174   7.353  13.166
  195DOPC    HA24098   6.129   7.454  13.163
  195DOPC    HB24099   6.257   7.348  13.092
  195DOPC    C224100   6.235   7.339  13.308
  195DOPC    HS24101   6.298   7.247  13.307
  195DOPC   O2124102   6.127   7.335  13.403
  195DOPC   C2124103   6.102   7.214  13.450
  195DOPC   O2224104   6.178   7.119  13.442
  195DOPC   C2224105   5.967   7.214  13.519
  195DOPC   H2R24106   5.896   7.272  13.455
  195DOPC   H2S24107   5.981   7.270  13.614
  195DOPC    C324108   6.330   7.457  13.343
  195DOPC    HX24109   6.410   7.460  13.266
  195DOPC    HY24110   6.380   7.433  13.440
  195DOPC   O3124111   6.258   7.582  13.342
  195DOPC   C3124112   6.229   7.633  13.463
  195DOPC   O3224113   6.276   7.594  13.568
  195DOPC   C3224114   6.131   7.748  13.448
  195DOPC   H2X24115   6.146   7.818  13.533
  195DOPC   H2Y24116   6.157   7.803  13.355
  195DOPC   C2324117   5.910   7.073  13.547
  195DOPC   H3R24118   5.973   7.024  13.624
  195DOPC   H3S24119   5.914   7.010  13.455
  195DOPC   C2424120   5.766   7.075  13.600
  195DOPC   H4R24121   5.741   6.973  13.635
  195DOPC   H4S24122   5.697   7.100  13.517
  195DOPC   C2524123   5.745   7.175  13.715
  195DOPC   H5R24124   5.643   7.161  13.757
  195DOPC   H5S24125   5.751   7.278  13.675
  195DOPC   C2624126   5.846   7.162  13.829
  195DOPC   H6R24127   5.826   7.250  13.894
  195DOPC   H6S24128   5.951   7.174  13.795
  195DOPC   C2724129   5.837   7.028  13.904
  195DOPC   H7R24130   5.923   6.966  13.872
  195DOPC   H7S24131   5.746   6.973  13.870
  195DOPC   C2824132   5.836   7.032  14.058
  195DOPC   H8R24133   5.927   6.979  14.091
  195DOPC   H8S24134   5.751   6.971  14.094
  195DOPC   C2924135   5.831   7.167  14.123
  195DOPC   H9R24136   5.731   7.200  14.154
  195DOPC  C21024137   5.936   7.249  14.144
  195DOPC  H10R24138   5.914   7.346  14.190
  195DOPC  C21124139   6.081   7.229  14.108
  195DOPC  H11R24140   6.093   7.166  14.017
  195DOPC  H11S24141   6.136   7.180  14.191
  195DOPC  C21224142   6.154   7.364  14.086
  195DOPC  H12R24143   6.104   7.418  14.003
  195DOPC  H12S24144   6.259   7.345  14.054
  195DOPC  C21324145   6.154   7.455  14.211
  195DOPC  H13R24146   6.064   7.436  14.273
  195DOPC  H13S24147   6.145   7.559  14.175
  195DOPC  C21424148   6.277   7.440  14.302
  195DOPC  H14R24149   6.368   7.464  14.244
  195DOPC  H14S24150   6.285   7.334  14.335
  195DOPC  C21524151   6.274   7.530  14.428
  195DOPC  H15R24152   6.283   7.635  14.393
  195DOPC  H15S24153   6.363   7.508  14.490
  195DOPC  C21624154   6.146   7.518  14.514
  195DOPC  H16R24155   6.140   7.415  14.554
  195DOPC  H16S24156   6.057   7.536  14.450
  195DOPC  C21724157   6.135   7.619  14.630
  195DOPC  H17R24158   6.042   7.598  14.686
  195DOPC  H17S24159   6.123   7.720  14.586
  195DOPC  C21824160   6.252   7.619  14.729
  195DOPC  H18R24161   6.239   7.700  14.804
  195DOPC  H18S24162   6.348   7.638  14.676
  195DOPC  H18T24163   6.259   7.522  14.782
  195DOPC   C3324164   5.983   7.702  13.440
  195DOPC   H3X24165   5.973   7.607  13.385
  195DOPC   H3Y24166   5.928   7.780  13.382
  195DOPC   C3424167   5.912   7.692  13.577
  195DOPC   H4X24168   5.803   7.683  13.559
  195DOPC   H4Y24169   5.928   7.786  13.634
  195DOPC   C3524170   5.956   7.572  13.662
  195DOPC   H5X24171   6.062   7.584  13.692
  195DOPC   H5Y24172   5.950   7.481  13.598
  195DOPC   C3624173   5.873   7.549  13.789
  195DOPC   H6X24174   5.766   7.534  13.764
  195DOPC   H6Y24175   5.910   7.456  13.837
  195DOPC   C3724176   5.887   7.663  13.892
  195DOPC   H7X24177   5.996   7.687  13.898
  195DOPC   H7Y24178   5.836   7.755  13.855
  195DOPC   C3824179   5.841   7.627  14.034
  195DOPC   H8X24180   5.886   7.701  14.103
  195DOPC   H8Y24181   5.887   7.529  14.059
  195DOPC   C3924182   5.692   7.624  14.056
  195DOPC   H9X24183   5.632   7.676  13.980
  195DOPC  C31024184   5.630   7.563  14.160
  195DOPC  H10X24185   5.520   7.566  14.166
  195DOPC  C31124186   5.699   7.487  14.270
  195DOPC  H11X24187   5.809   7.495  14.259
  195DOPC  H11Y24188   5.673   7.379  14.263
  195DOPC  C31224189   5.673   7.530  14.416
  195DOPC  H12X24190   5.564   7.526  14.439
  195DOPC  H12Y24191   5.707   7.635  14.429
  195DOPC  C31324192   5.749   7.438  14.512
  195DOPC  H13X24193   5.698   7.340  14.517
  195DOPC  H13Y24194   5.851   7.420  14.471
  195DOPC  C31424195   5.767   7.494  14.654
  195DOPC  H14X24196   5.829   7.422  14.712
  195DOPC  H14Y24197   5.823   7.590  14.648
  195DOPC  C31524198   5.635   7.519  14.728
  195DOPC  H15X24199   5.578   7.423  14.733
  195DOPC  H15Y24200   5.574   7.591  14.669
  195DOPC  C31624201   5.653   7.575  14.870
  195DOPC  H16X24202   5.708   7.672  14.865
  195DOPC  H16Y24203   5.553   7.596  14.912
  195DOPC  C31724204   5.728   7.480  14.964
  195DOPC  H17X24205   5.686   7.378  14.950
  195DOPC  H17Y24206   5.835   7.476  14.936
  195DOPC  C31824207   5.715   7.518  15.112
  195DOPC  H18X24208   5.767   7.444  15.176
  195DOPC  H18Y24209   5.761   7.618  15.130
  195DOPC  H18Z24210   5.609   7.523  15.142
  196DOPC     N24211   0.780   1.137  12.926
  196DOPC   C1224212   0.917   1.075  12.954
  196DOPC  H12A24213   0.983   1.153  12.990
  196DOPC  H12B24214   0.958   1.036  12.862
  196DOPC   C1324215   0.679   1.027  12.914
  196DOPC  H13A24216   0.707   0.956  12.837
  196DOPC  H13B24217   0.677   0.970  13.006
  196DOPC  H13C24218   0.579   1.062  12.895
  196DOPC   C1424219   0.786   1.217  12.800
  196DOPC  H14A24220   0.810   1.154  12.716
  196DOPC  H14B24221   0.692   1.264  12.776
  196DOPC  H14C24222   0.862   1.294  12.806
  196DOPC   C1524223   0.743   1.222  13.045
  196DOPC  H15A24224   0.641   1.257  13.045
  196DOPC  H15B24225   0.812   1.303  13.060
  196DOPC  H15C24226   0.752   1.160  13.134
  196DOPC   C1124227   0.924   0.962  13.059
  196DOPC  H11A24228   0.879   0.870  13.018
  196DOPC  H11B24229   1.031   0.938  13.081
  196DOPC     P24230   0.763   0.917  13.263
  196DOPC   O1324231   0.671   1.011  13.331
  196DOPC   O1424232   0.843   0.823  13.343
  196DOPC   O1224233   0.864   1.006  13.180
  196DOPC   O1124234   0.683   0.842  13.148
  196DOPC    C124235   0.644   0.705  13.159
  196DOPC    HA24236   0.710   0.648  13.229
  196DOPC    HB24237   0.655   0.655  13.060
  196DOPC    C224238   0.497   0.686  13.205
  196DOPC    HS24239   0.431   0.726  13.125
  196DOPC   O2124240   0.478   0.750  13.332
  196DOPC   C2124241   0.397   0.851  13.335
  196DOPC   O2224242   0.335   0.897  13.239
  196DOPC   C2224243   0.382   0.899  13.479
  196DOPC   H2R24244   0.288   0.856  13.521
  196DOPC   H2S24245   0.371   1.009  13.471
  196DOPC    C324246   0.461   0.537  13.224
  196DOPC    HX24247   0.467   0.487  13.125
  196DOPC    HY24248   0.356   0.527  13.261
  196DOPC   O3124249   0.556   0.476  13.312
  196DOPC   C3124250   0.534   0.488  13.440
  196DOPC   O3224251   0.427   0.514  13.493
  196DOPC   C3224252   0.663   0.459  13.514
  196DOPC   H2X24253   0.634   0.440  13.620
  196DOPC   H2Y24254   0.706   0.366  13.471
  196DOPC   C2324255   0.501   0.866  13.573
  196DOPC   H3R24256   0.595   0.858  13.515
  196DOPC   H3S24257   0.486   0.769  13.625
  196DOPC   C2424258   0.522   0.980  13.673
  196DOPC   H4R24259   0.440   0.978  13.748
  196DOPC   H4S24260   0.517   1.076  13.617
  196DOPC   C2524261   0.657   0.979  13.744
  196DOPC   H5R24262   0.739   0.967  13.670
  196DOPC   H5S24263   0.660   0.893  13.814
  196DOPC   C2624264   0.678   1.109  13.823
  196DOPC   H6R24265   0.593   1.119  13.893
  196DOPC   H6S24266   0.677   1.195  13.753
  196DOPC   C2724267   0.805   1.112  13.907
  196DOPC   H7R24268   0.818   1.215  13.946
  196DOPC   H7S24269   0.892   1.089  13.843
  196DOPC   C2824270   0.800   1.016  14.026
  196DOPC   H8R24271   0.899   1.029  14.075
  196DOPC   H8S24272   0.792   0.911  13.990
  196DOPC   C2924273   0.693   1.044  14.128
  196DOPC   H9R24274   0.713   1.133  14.189
  196DOPC  C21024275   0.585   0.969  14.155
  196DOPC  H10R24276   0.517   1.004  14.234
  196DOPC  C21124277   0.540   0.839  14.094
  196DOPC  H11R24278   0.583   0.824  13.992
  196DOPC  H11S24279   0.430   0.840  14.082
  196DOPC  C21224280   0.580   0.720  14.182
  196DOPC  H12R24281   0.690   0.703  14.175
  196DOPC  H12S24282   0.530   0.629  14.143
  196DOPC  C21324283   0.543   0.737  14.330
  196DOPC  H13R24284   0.435   0.760  14.337
  196DOPC  H13S24285   0.599   0.822  14.375
  196DOPC  C21424286   0.575   0.612  14.412
  196DOPC  H14R24287   0.685   0.597  14.416
  196DOPC  H14S24288   0.532   0.526  14.357
  196DOPC  C21524289   0.515   0.619  14.553
  196DOPC  H15R24290   0.458   0.525  14.571
  196DOPC  H15S24291   0.444   0.703  14.561
  196DOPC  C21624292   0.621   0.629  14.662
  196DOPC  H16R24293   0.658   0.734  14.665
  196DOPC  H16S24294   0.707   0.564  14.635
  196DOPC  C21724295   0.573   0.588  14.801
  196DOPC  H17R24296   0.638   0.636  14.877
  196DOPC  H17S24297   0.585   0.478  14.813
  196DOPC  C21824298   0.429   0.625  14.832
  196DOPC  H18R24299   0.414   0.633  14.942
  196DOPC  H18S24300   0.359   0.548  14.792
  196DOPC  H18T24301   0.404   0.722  14.785
  196DOPC   C3324302   0.765   0.574  13.499
  196DOPC   H3X24303   0.712   0.671  13.488
  196DOPC   H3Y24304   0.823   0.559  13.405
  196DOPC   C3424305   0.863   0.591  13.616
  196DOPC   H4X24306   0.936   0.669  13.589
  196DOPC   H4Y24307   0.920   0.496  13.629
  196DOPC   C3524308   0.789   0.634  13.743
  196DOPC   H5X24309   0.692   0.580  13.751
  196DOPC   H5Y24310   0.764   0.741  13.731
  196DOPC   C3624311   0.862   0.611  13.875
  196DOPC   H6X24312   0.784   0.612  13.954
  196DOPC   H6Y24313   0.912   0.512  13.881
  196DOPC   C3724314   0.966   0.716  13.909
  196DOPC   H7X24315   1.059   0.697  13.851
  196DOPC   H7Y24316   0.929   0.816  13.879
  196DOPC   C3824317   0.993   0.707  14.059
  196DOPC   H8X24318   1.053   0.615  14.075
  196DOPC   H8Y24319   0.897   0.694  14.113
  196DOPC   C3924320   1.067   0.826  14.109
  196DOPC   H9X24321   1.143   0.859  14.037
  196DOPC  C31024322   1.047   0.896  14.222
  196DOPC  H10X24323   1.113   0.983  14.243
  196DOPC  C31124324   0.942   0.872  14.326
  196DOPC  H11X24325   0.883   0.780  14.305
  196DOPC  H11Y24326   0.870   0.956  14.329
  196DOPC  C31224327   1.007   0.858  14.463
  196DOPC  H12X24328   1.055   0.953  14.495
  196DOPC  H12Y24329   1.087   0.781  14.459
  196DOPC  C31324330   0.910   0.810  14.570
  196DOPC  H13X24331   0.849   0.899  14.598
  196DOPC  H13Y24332   0.843   0.732  14.530
  196DOPC  C31424333   0.989   0.755  14.688
  196DOPC  H14X24334   1.034   0.658  14.657
  196DOPC  H14Y24335   1.074   0.826  14.704
  196DOPC  C31524336   0.919   0.739  14.823
  196DOPC  H15X24337   0.818   0.787  14.826
  196DOPC  H15Y24338   0.982   0.790  14.900
  196DOPC  C31624339   0.907   0.594  14.866
  196DOPC  H16X24340   0.824   0.544  14.810
  196DOPC  H16Y24341   0.998   0.540  14.834
  196DOPC  C31724342   0.888   0.575  15.017
  196DOPC  H17X24343   0.950   0.649  15.072
  196DOPC  H17Y24344   0.781   0.594  15.043
  196DOPC  C31824345   0.927   0.435  15.062
  196DOPC  H18X24346   0.909   0.362  14.979
  196DOPC  H18Y24347   1.036   0.427  15.083
  196DOPC  H18Z24348   0.871   0.402  15.151
  197DOPC     N24349   1.292   7.334  12.926
  197DOPC   C1224350   1.356   7.403  13.046
  197DOPC  H12A24351   1.279   7.447  13.108
  197DOPC  H12B24352   1.422   7.481  13.012
  197DOPC   C1324353   1.186   7.237  12.968
  197DOPC  H13A24354   1.143   7.184  12.883
  197DOPC  H13B24355   1.226   7.159  13.032
  197DOPC  H13C24356   1.104   7.282  13.022
  197DOPC   C1424357   1.398   7.256  12.855
  197DOPC  H14A24358   1.447   7.191  12.925
  197DOPC  H14B24359   1.359   7.197  12.773
  197DOPC  H14C24360   1.476   7.322  12.818
  197DOPC   C1524361   1.233   7.433  12.830
  197DOPC  H15A24362   1.150   7.486  12.875
  197DOPC  H15B24363   1.195   7.382  12.743
  197DOPC  H15C24364   1.309   7.502  12.796
  197DOPC   C1124365   1.445   7.315  13.137
  197DOPC  H11A24366   1.458   7.364  13.236
  197DOPC  H11B24367   1.391   7.219  13.152
  197DOPC     P24368   1.660   7.174  13.137
  197DOPC   O1324369   1.686   7.203  13.280
  197DOPC   O1424370   1.778   7.158  13.049
  197DOPC   O1224371   1.572   7.294  13.077
  197DOPC   O1124372   1.561   7.052  13.119
  197DOPC    C124373   1.542   6.950  13.219
  197DOPC    HA24374   1.597   6.970  13.314
  197DOPC    HB24375   1.580   6.853  13.180
  197DOPC    C224376   1.392   6.930  13.256
  197DOPC    HS24377   1.340   6.901  13.162
  197DOPC   O2124378   1.342   7.053  13.311
  197DOPC   C2124379   1.219   7.085  13.280
  197DOPC   O2224380   1.147   7.027  13.201
  197DOPC   C2224381   1.186   7.219  13.346
  197DOPC   H2R24382   1.076   7.233  13.345
  197DOPC   H2S24383   1.231   7.301  13.285
  197DOPC    C324384   1.367   6.817  13.361
  197DOPC    HX24385   1.421   6.727  13.327
  197DOPC    HY24386   1.259   6.791  13.361
  197DOPC   O3124387   1.416   6.857  13.491
  197DOPC   C3124388   1.327   6.901  13.579
  197DOPC   O3224389   1.206   6.891  13.570
  197DOPC   C3224390   1.396   6.974  13.695
  197DOPC   H2X24391   1.328   7.056  13.728
  197DOPC   H2Y24392   1.403   6.901  13.779
  197DOPC   C2324393   1.233   7.228  13.491
  197DOPC   H3R24394   1.344   7.229  13.497
  197DOPC   H3S24395   1.197   7.139  13.546
  197DOPC   C2424396   1.175   7.351  13.558
  197DOPC   H4R24397   1.069   7.365  13.528
  197DOPC   H4S24398   1.231   7.441  13.524
  197DOPC   C2524399   1.179   7.339  13.710
  197DOPC   H5R24400   1.172   7.441  13.755
  197DOPC   H5S24401   1.276   7.296  13.742
  197DOPC   C2624402   1.064   7.257  13.768
  197DOPC   H6R24403   1.083   7.149  13.746
  197DOPC   H6S24404   0.968   7.283  13.717
  197DOPC   C2724405   1.049   7.285  13.918
  197DOPC   H7R24406   0.976   7.367  13.931
  197DOPC   H7S24407   1.147   7.322  13.956
  197DOPC   C2824408   1.011   7.165  14.004
  197DOPC   H8R24409   0.914   7.123  13.972
  197DOPC   H8S24410   0.995   7.205  14.106
  197DOPC   C2924411   1.122   7.062  13.999
  197DOPC   H9R24412   1.158   7.033  13.899
  197DOPC  C21024413   1.176   7.003  14.106
  197DOPC  H10R24414   1.257   6.930  14.093
  197DOPC  C21124415   1.132   7.027  14.248
  197DOPC  H11R24416   1.122   6.929  14.299
  197DOPC  H11S24417   1.030   7.071  14.252
  197DOPC  C21224418   1.226   7.119  14.327
  197DOPC  H12R24419   1.184   7.136  14.428
  197DOPC  H12S24420   1.229   7.217  14.275
  197DOPC  C21324421   1.368   7.063  14.343
  197DOPC  H13R24422   1.433   7.137  14.394
  197DOPC  H13S24423   1.412   7.044  14.243
  197DOPC  C21424424   1.368   6.933  14.424
  197DOPC  H14R24425   1.454   6.871  14.389
  197DOPC  H14S24426   1.278   6.872  14.401
  197DOPC  C21524427   1.371   6.951  14.575
  197DOPC  H15R24428   1.323   7.047  14.602
  197DOPC  H15S24429   1.476   6.953  14.611
  197DOPC  C21624430   1.292   6.838  14.642
  197DOPC  H16R24431   1.332   6.740  14.609
  197DOPC  H16S24432   1.186   6.844  14.608
  197DOPC  C21724433   1.296   6.846  14.794
  197DOPC  H17R24434   1.265   6.948  14.823
  197DOPC  H17S24435   1.401   6.830  14.827
  197DOPC  C21824436   1.205   6.746  14.866
  197DOPC  H18R24437   1.239   6.642  14.850
  197DOPC  H18S24438   1.100   6.756  14.830
  197DOPC  H18T24439   1.204   6.767  14.975
  197DOPC   C3324440   1.536   7.034  13.660
  197DOPC   H3X24441   1.523   7.117  13.588
  197DOPC   H3Y24442   1.595   6.957  13.606
  197DOPC   C3424443   1.622   7.079  13.780
  197DOPC   H4X24444   1.572   7.049  13.875
  197DOPC   H4Y24445   1.629   7.190  13.779
  197DOPC   C3524446   1.765   7.020  13.776
  197DOPC   H5X24447   1.810   7.043  13.677
  197DOPC   H5Y24448   1.757   6.910  13.782
  197DOPC   C3624449   1.860   7.066  13.888
  197DOPC   H6X24450   1.895   7.169  13.865
  197DOPC   H6Y24451   1.804   7.068  13.983
  197DOPC   C3724452   1.982   6.972  13.904
  197DOPC   H7X24453   1.941   6.868  13.901
  197DOPC   H7Y24454   2.050   6.983  13.817
  197DOPC   C3824455   2.060   6.983  14.037
  197DOPC   H8X24456   2.113   6.886  14.051
  197DOPC   H8Y24457   1.984   6.986  14.119
  197DOPC   C3924458   2.163   7.094  14.051
  197DOPC   H9X24459   2.244   7.088  13.977
  197DOPC  C31024460   2.168   7.192  14.143
  197DOPC  H10X24461   2.247   7.268  14.136
  197DOPC  C31124462   2.069   7.215  14.254
  197DOPC  H11X24463   2.025   7.117  14.284
  197DOPC  H11Y24464   1.983   7.266  14.205
  197DOPC  C31224465   2.095   7.297  14.383
  197DOPC  H12X24466   2.074   7.402  14.353
  197DOPC  H12Y24467   2.200   7.284  14.417
  197DOPC  C31324468   1.998   7.264  14.499
  197DOPC  H13X24469   1.899   7.313  14.485
  197DOPC  H13Y24470   1.989   7.154  14.486
  197DOPC  C31424471   2.040   7.277  14.646
  197DOPC  H14X24472   2.135   7.221  14.659
  197DOPC  H14Y24473   2.065   7.384  14.662
  197DOPC  C31524474   1.934   7.237  14.753
  197DOPC  H15X24475   1.836   7.271  14.713
  197DOPC  H15Y24476   1.964   7.293  14.844
  197DOPC  C31624477   1.897   7.099  14.809
  197DOPC  H16X24478   1.846   7.036  14.733
  197DOPC  H16Y24479   1.982   7.041  14.853
  197DOPC  C31724480   1.796   7.111  14.922
  197DOPC  H17X24481   1.851   7.147  15.012
  197DOPC  H17Y24482   1.719   7.187  14.895
  197DOPC  C31824483   1.728   6.979  14.951
  197DOPC  H18X24484   1.800   6.895  14.947
  197DOPC  H18Y24485   1.684   6.982  15.053
  197DOPC  H18Z24486   1.648   6.959  14.877
  198DOPC     N24487   7.127   6.687  12.947
  198DOPC   C1224488   7.064   6.571  12.870
  198DOPC  H12A24489   7.118   6.555  12.777
  198DOPC  H12B24490   6.963   6.595  12.844
  198DOPC   C1324491   7.056   6.701  13.078
  198DOPC  H13A24492   6.952   6.731  13.066
  198DOPC  H13B24493   7.050   6.604  13.124
  198DOPC  H13C24494   7.107   6.764  13.150
  198DOPC   C1424495   7.113   6.811  12.864
  198DOPC  H14A24496   7.010   6.824  12.833
  198DOPC  H14B24497   7.142   6.898  12.920
  198DOPC  H14C24498   7.174   6.805  12.775
  198DOPC   C1524499   7.270   6.657  12.979
  198DOPC  H15A24500   7.332   6.646  12.891
  198DOPC  H15B24501   7.275   6.564  13.033
  198DOPC  H15C24502   7.314   6.732  13.042
  198DOPC   C1124503   7.055   6.436  12.944
  198DOPC  H11A24504   7.021   6.359  12.872
  198DOPC  H11B24505   7.155   6.406  12.982
  198DOPC     P24506   6.853   6.349  13.091
  198DOPC   O1324507   6.907   6.246  13.179
  198DOPC   O1424508   6.784   6.311  12.966
  198DOPC   O1224509   6.966   6.450  13.053
  198DOPC   O1124510   6.757   6.445  13.168
  198DOPC    C124511   6.706   6.570  13.122
  198DOPC    HA24512   6.616   6.553  13.060
  198DOPC    HB24513   6.781   6.628  13.064
  198DOPC    C224514   6.666   6.647  13.249
  198DOPC    HS24515   6.761   6.669  13.303
  198DOPC   O2124516   6.578   6.561  13.319
  198DOPC   C2124517   6.614   6.539  13.442
  198DOPC   O2224518   6.726   6.545  13.489
  198DOPC   C2224519   6.484   6.514  13.517
  198DOPC   H2R24520   6.467   6.404  13.521
  198DOPC   H2S24521   6.400   6.547  13.453
  198DOPC    C324522   6.588   6.780  13.241
  198DOPC    HX24523   6.487   6.760  13.199
  198DOPC    HY24524   6.639   6.853  13.175
  198DOPC   O3124525   6.576   6.825  13.378
  198DOPC   C3124526   6.565   6.952  13.409
  198DOPC   O3224527   6.548   7.044  13.331
  198DOPC   C3224528   6.585   6.965  13.560
  198DOPC   H2X24529   6.562   7.069  13.590
  198DOPC   H2Y24530   6.515   6.896  13.612
  198DOPC   C2324531   6.470   6.589  13.652
  198DOPC   H3R24532   6.386   6.545  13.710
  198DOPC   H3S24533   6.439   6.690  13.619
  198DOPC   C2424534   6.593   6.618  13.742
  198DOPC   H4R24535   6.557   6.697  13.812
  198DOPC   H4S24536   6.675   6.662  13.682
  198DOPC   C2524537   6.650   6.508  13.831
  198DOPC   H5R24538   6.635   6.409  13.784
  198DOPC   H5S24539   6.595   6.512  13.928
  198DOPC   C2624540   6.800   6.517  13.862
  198DOPC   H6R24541   6.856   6.541  13.769
  198DOPC   H6S24542   6.832   6.416  13.895
  198DOPC   C2724543   6.836   6.615  13.974
  198DOPC   H7R24544   6.767   6.603  14.060
  198DOPC   H7S24545   6.823   6.718  13.935
  198DOPC   C2824546   6.980   6.590  14.022
  198DOPC   H8R24547   7.036   6.547  13.936
  198DOPC   H8S24548   6.977   6.511  14.100
  198DOPC   C2924549   7.051   6.715  14.066
  198DOPC   H9R24550   7.054   6.793  13.989
  198DOPC  C21024551   7.111   6.739  14.183
  198DOPC  H10R24552   7.165   6.834  14.192
  198DOPC  C21124553   7.126   6.648  14.303
  198DOPC  H11R24554   7.233   6.621  14.311
  198DOPC  H11S24555   7.068   6.554  14.289
  198DOPC  C21224556   7.088   6.705  14.442
  198DOPC  H12R24557   7.155   6.789  14.469
  198DOPC  H12S24558   7.105   6.625  14.517
  198DOPC  C21324559   6.941   6.748  14.451
  198DOPC  H13R24560   6.879   6.664  14.413
  198DOPC  H13S24561   6.923   6.835  14.384
  198DOPC  C21424562   6.893   6.783  14.593
  198DOPC  H14R24563   6.911   6.697  14.661
  198DOPC  H14S24564   6.783   6.800  14.590
  198DOPC  C21524565   6.956   6.910  14.651
  198DOPC  H15R24566   6.956   6.987  14.571
  198DOPC  H15S24567   7.061   6.888  14.678
  198DOPC  C21624568   6.881   6.963  14.774
  198DOPC  H16R24569   6.913   6.908  14.865
  198DOPC  H16S24570   6.772   6.944  14.761
  198DOPC  C21724571   6.898   7.114  14.799
  198DOPC  H17R24572   7.006   7.139  14.805
  198DOPC  H17S24573   6.853   7.138  14.897
  198DOPC  C21824574   6.830   7.199  14.692
  198DOPC  H18R24575   6.825   7.305  14.725
  198DOPC  H18S24576   6.726   7.164  14.674
  198DOPC  H18T24577   6.886   7.195  14.596
  198DOPC   C3324578   6.728   6.925  13.603
  198DOPC   H3X24579   6.800   6.998  13.562
  198DOPC   H3Y24580   6.754   6.825  13.562
  198DOPC   C3424581   6.745   6.917  13.755
  198DOPC   H4X24582   6.842   6.869  13.778
  198DOPC   H4Y24583   6.666   6.855  13.803
  198DOPC   C3524584   6.738   7.053  13.824
  198DOPC   H5X24585   6.636   7.096  13.814
  198DOPC   H5Y24586   6.809   7.121  13.772
  198DOPC   C3624587   6.777   7.042  13.971
  198DOPC   H6X24588   6.834   6.948  13.991
  198DOPC   H6Y24589   6.846   7.127  13.991
  198DOPC   C3724590   6.664   7.056  14.071
  198DOPC   H7X24591   6.713   7.089  14.166
  198DOPC   H7Y24592   6.593   7.135  14.039
  198DOPC   C3824593   6.592   6.925  14.098
  198DOPC   H8X24594   6.667   6.845  14.112
  198DOPC   H8Y24595   6.529   6.898  14.011
  198DOPC   C3924596   6.512   6.952  14.223
  198DOPC   H9X24597   6.447   7.041  14.219
  198DOPC  C31024598   6.515   6.878  14.334
  198DOPC  H10X24599   6.454   6.909  14.420
  198DOPC  C31124600   6.595   6.753  14.354
  198DOPC  H11X24601   6.689   6.780  14.406
  198DOPC  H11Y24602   6.623   6.703  14.259
  198DOPC  C31224603   6.515   6.654  14.439
  198DOPC  H12X24604   6.436   6.605  14.378
  198DOPC  H12Y24605   6.466   6.707  14.523
  198DOPC  C31324606   6.609   6.548  14.497
  198DOPC  H13X24607   6.657   6.493  14.414
  198DOPC  H13Y24608   6.691   6.600  14.552
  198DOPC  C31424609   6.537   6.453  14.593
  198DOPC  H14X24610   6.461   6.395  14.536
  198DOPC  H14Y24611   6.609   6.380  14.634
  198DOPC  C31524612   6.467   6.522  14.711
  198DOPC  H15X24613   6.438   6.441  14.782
  198DOPC  H15Y24614   6.374   6.571  14.674
  198DOPC  C31624615   6.548   6.625  14.789
  198DOPC  H16X24616   6.565   6.716  14.727
  198DOPC  H16Y24617   6.489   6.655  14.878
  198DOPC  C31724618   6.683   6.572  14.835
  198DOPC  H17X24619   6.671   6.471  14.881
  198DOPC  H17Y24620   6.750   6.561  14.747
  198DOPC  C31824621   6.750   6.664  14.935
  198DOPC  H18X24622   6.702   6.652  15.035
  198DOPC  H18Y24623   6.857   6.638  14.943
  198DOPC  H18Z24624   6.741   6.769  14.903
  199DOPC     N24625   6.422   0.272  12.946
  199DOPC   C1224626   6.391   0.421  12.941
  199DOPC  H12A24627   6.392   0.455  12.839
  199DOPC  H12B24628   6.468   0.473  12.995
  199DOPC   C1324629   6.447   0.231  13.088
  199DOPC  H13A24630   6.527   0.288  13.132
  199DOPC  H13B24631   6.361   0.258  13.147
  199DOPC  H13C24632   6.467   0.125  13.098
  199DOPC   C1424633   6.542   0.241  12.862
  199DOPC  H14A24634   6.559   0.134  12.859
  199DOPC  H14B24635   6.527   0.277  12.762
  199DOPC  H14C24636   6.629   0.289  12.904
  199DOPC   C1524637   6.302   0.199  12.893
  199DOPC  H15A24638   6.281   0.232  12.792
  199DOPC  H15B24639   6.216   0.224  12.953
  199DOPC  H15C24640   6.315   0.092  12.895
  199DOPC   C1124641   6.257   0.468  13.005
  199DOPC  H11A24642   6.244   0.577  12.988
  199DOPC  H11B24643   6.171   0.420  12.953
  199DOPC     P24644   6.344   0.524  13.239
  199DOPC   O1324645   6.277   0.652  13.263
  199DOPC   O1424646   6.482   0.527  13.186
  199DOPC   O1224647   6.253   0.435  13.144
  199DOPC   O1124648   6.340   0.438  13.372
  199DOPC    C124649   6.376   0.502  13.495
  199DOPC    HA24650   6.305   0.469  13.574
  199DOPC    HB24651   6.370   0.613  13.492
  199DOPC    C224652   6.518   0.465  13.540
  199DOPC    HS24653   6.591   0.502  13.464
  199DOPC   O2124654   6.524   0.324  13.557
  199DOPC   C2124655   6.575   0.252  13.462
  199DOPC   O2224656   6.623   0.288  13.356
  199DOPC   C2224657   6.574   0.108  13.510
  199DOPC   H2R24658   6.611   0.045  13.426
  199DOPC   H2S24659   6.469   0.079  13.534
  199DOPC    C324660   6.552   0.529  13.677
  199DOPC    HX24661   6.557   0.639  13.664
  199DOPC    HY24662   6.653   0.493  13.706
  199DOPC   O3124663   6.450   0.496  13.775
  199DOPC   C3124664   6.490   0.465  13.897
  199DOPC   O3224665   6.605   0.461  13.935
  199DOPC   C3224666   6.368   0.440  13.986
  199DOPC   H2X24667   6.286   0.396  13.925
  199DOPC   H2Y24668   6.399   0.368  14.065
  199DOPC   C2324669   6.666   0.091  13.632
  199DOPC   H3R24670   6.766   0.135  13.613
  199DOPC   H3S24671   6.678  -0.019  13.646
  199DOPC   C2424672   6.613   0.138  13.768
  199DOPC   H4R24673   6.597   0.248  13.768
  199DOPC   H4S24674   6.692   0.117  13.844
  199DOPC   C2524675   6.485   0.066  13.811
  199DOPC   H5R24676   6.492  -0.043  13.792
  199DOPC   H5S24677   6.399   0.104  13.751
  199DOPC   C2624678   6.459   0.091  13.959
  199DOPC   H6R24679   6.459   0.201  13.972
  199DOPC   H6S24680   6.543   0.053  14.021
  199DOPC   C2724681   6.327   0.034  14.011
  199DOPC   H7R24682   6.345  -0.072  14.040
  199DOPC   H7S24683   6.251   0.033  13.930
  199DOPC   C2824684   6.278   0.114  14.134
  199DOPC   H8R24685   6.363   0.171  14.175
  199DOPC   H8S24686   6.249   0.042  14.214
  199DOPC   C2924687   6.163   0.206  14.103
  199DOPC   H9R24688   6.155   0.237  13.998
  199DOPC  C21024689   6.073   0.251  14.191
  199DOPC  H10R24690   5.995   0.321  14.156
  199DOPC  C21124691   6.067   0.219  14.339
  199DOPC  H11R24692   6.121   0.126  14.364
  199DOPC  H11S24693   5.961   0.201  14.366
  199DOPC  C21224694   6.119   0.333  14.430
  199DOPC  H12R24695   6.069   0.323  14.528
  199DOPC  H12S24696   6.088   0.431  14.387
  199DOPC  C21324697   6.271   0.334  14.456
  199DOPC  H13R24698   6.297   0.432  14.500
  199DOPC  H13S24699   6.327   0.323  14.361
  199DOPC  C21424700   6.314   0.222  14.551
  199DOPC  H14R24701   6.302   0.126  14.498
  199DOPC  H14S24702   6.246   0.222  14.640
  199DOPC  C21524703   6.459   0.230  14.599
  199DOPC  H15R24704   6.526   0.230  14.511
  199DOPC  H15S24705   6.482   0.139  14.658
  199DOPC  C21624706   6.490   0.353  14.685
  199DOPC  H16R24707   6.480   0.445  14.623
  199DOPC  H16S24708   6.597   0.343  14.715
  199DOPC  C21724709   6.414   0.369  14.816
  199DOPC  H17R24710   6.305   0.354  14.801
  199DOPC  H17S24711   6.429   0.474  14.849
  199DOPC  C21824712   6.468   0.279  14.927
  199DOPC  H18R24713   6.434   0.317  15.026
  199DOPC  H18S24714   6.579   0.279  14.928
  199DOPC  H18T24715   6.432   0.174  14.914
  199DOPC   C3324716   6.325   0.569  14.057
  199DOPC   H3X24717   6.277   0.638  13.985
  199DOPC   H3Y24718   6.418   0.611  14.099
  199DOPC   C3424719   6.228   0.558  14.175
  199DOPC   H4X24720   6.262   0.474  14.240
  199DOPC   H4Y24721   6.127   0.534  14.137
  199DOPC   C3524722   6.224   0.687  14.258
  199DOPC   H5X24723   6.139   0.681  14.328
  199DOPC   H5Y24724   6.205   0.773  14.190
  199DOPC   C3624725   6.352   0.715  14.338
  199DOPC   H6X24726   6.379   0.623  14.393
  199DOPC   H6Y24727   6.433   0.737  14.265
  199DOPC   C3724728   6.346   0.832  14.437
  199DOPC   H7X24729   6.316   0.926  14.386
  199DOPC   H7Y24730   6.265   0.809  14.510
  199DOPC   C3824731   6.476   0.854  14.519
  199DOPC   H8X24732   6.500   0.757  14.567
  199DOPC   H8Y24733   6.448   0.926  14.599
  199DOPC   C3924734   6.603   0.910  14.460
  199DOPC   H9X24735   6.624   1.015  14.484
  199DOPC  C31024736   6.690   0.844  14.382
  199DOPC  H10X24737   6.779   0.898  14.347
  199DOPC  C31124738   6.677   0.701  14.338
  199DOPC  H11X24739   6.665   0.697  14.227
  199DOPC  H11Y24740   6.587   0.653  14.382
  199DOPC  C31224741   6.789   0.606  14.378
  199DOPC  H12X24742   6.884   0.633  14.328
  199DOPC  H12Y24743   6.756   0.506  14.340
  199DOPC  C31324744   6.807   0.595  14.530
  199DOPC  H13X24745   6.903   0.642  14.558
  199DOPC  H13Y24746   6.725   0.654  14.577
  199DOPC  C31424747   6.799   0.452  14.586
  199DOPC  H14X24748   6.699   0.413  14.558
  199DOPC  H14Y24749   6.871   0.380  14.541
  199DOPC  C31524750   6.829   0.442  14.735
  199DOPC  H15X24751   6.939   0.446  14.749
  199DOPC  H15Y24752   6.798   0.343  14.774
  199DOPC  C31624753   6.764   0.553  14.818
  199DOPC  H16X24754   6.786   0.654  14.778
  199DOPC  H16Y24755   6.654   0.540  14.815
  199DOPC  C31724756   6.815   0.548  14.961
  199DOPC  H17X24757   6.870   0.453  14.977
  199DOPC  H17Y24758   6.886   0.631  14.977
  199DOPC  C31824759   6.701   0.555  15.060
  199DOPC  H18X24760   6.742   0.541  15.162
  199DOPC  H18Y24761   6.648   0.652  15.054
  199DOPC  H18Z24762   6.627   0.474  15.041
  200DOPC     N24763   1.188   0.180  12.904
  200DOPC   C1224764   1.193   0.330  12.933
  200DOPC  H12A24765   1.149   0.381  12.848
  200DOPC  H12B24766   1.296   0.360  12.941
  200DOPC   C1324767   1.238   0.102  13.021
  200DOPC  H13A24768   1.175   0.123  13.106
  200DOPC  H13B24769   1.232  -0.004  13.003
  200DOPC  H13C24770   1.339   0.128  13.048
  200DOPC   C1424771   1.266   0.148  12.780
  200DOPC  H14A24772   1.372   0.162  12.793
  200DOPC  H14B24773   1.248   0.047  12.748
  200DOPC  H14C24774   1.233   0.211  12.698
  200DOPC   C1524775   1.045   0.139  12.879
  200DOPC  H15A24776   1.005   0.186  12.791
  200DOPC  H15B24777   0.983   0.170  12.961
  200DOPC  H15C24778   1.031   0.032  12.871
  200DOPC   C1124779   1.116   0.383  13.056
  200DOPC  H11A24780   1.144   0.326  13.147
  200DOPC  H11B24781   1.144   0.489  13.075
  200DOPC     P24782   0.865   0.330  13.126
  200DOPC   O1324783   0.855   0.184  13.106
  200DOPC   O1424784   0.747   0.412  13.099
  200DOPC   O1224785   0.978   0.380  13.027
  200DOPC   O1124786   0.925   0.355  13.270
  200DOPC    C124787   0.986   0.249  13.345
  200DOPC    HA24788   1.067   0.292  13.407
  200DOPC    HB24789   1.035   0.174  13.278
  200DOPC    C224790   0.887   0.173  13.438
  200DOPC    HS24791   0.786   0.179  13.393
  200DOPC   O2124792   0.889   0.239  13.566
  200DOPC   C2124793   0.817   0.192  13.668
  200DOPC   O2224794   0.748   0.093  13.666
  200DOPC   C2224795   0.831   0.290  13.786
  200DOPC   H2R24796   0.745   0.361  13.778
  200DOPC   H2S24797   0.924   0.347  13.771
  200DOPC    C324798   0.925   0.022  13.444
  200DOPC    HX24799   0.925  -0.016  13.339
  200DOPC    HY24800   0.847  -0.036  13.497
  200DOPC   O3124801   1.057   0.006  13.498
  200DOPC   C3124802   1.057  -0.031  13.626
  200DOPC   O3224803   0.973  -0.099  13.681
  200DOPC   C3224804   1.173   0.037  13.695
  200DOPC   H2X24805   1.174   0.000  13.800
  200DOPC   H2Y24806   1.266   0.005  13.643
  200DOPC   C2324807   0.831   0.233  13.930
  200DOPC   H3R24808   0.729   0.193  13.953
  200DOPC   H3S24809   0.848   0.317  14.001
  200DOPC   C2424810   0.935   0.125  13.959
  200DOPC   H4R24811   1.021   0.170  14.013
  200DOPC   H4S24812   0.973   0.080  13.864
  200DOPC   C2524813   0.878   0.007  14.038
  200DOPC   H5R24814   0.834  -0.064  13.964
  200DOPC   H5S24815   0.797   0.044  14.104
  200DOPC   C2624816   0.979  -0.066  14.127
  200DOPC   H6R24817   1.074  -0.081  14.071
  200DOPC   H6S24818   0.939  -0.166  14.152
  200DOPC   C2724819   1.003   0.012  14.256
  200DOPC   H7R24820   0.909   0.014  14.317
  200DOPC   H7S24821   1.025   0.116  14.227
  200DOPC   C2824822   1.119  -0.038  14.344
  200DOPC   H8R24823   1.120   0.022  14.437
  200DOPC   H8S24824   1.213  -0.014  14.290
  200DOPC   C2924825   1.115  -0.186  14.371
  200DOPC   H9R24826   1.144  -0.246  14.284
  200DOPC  C21024827   1.078  -0.251  14.483
  200DOPC  H10R24828   1.087  -0.361  14.482
  200DOPC  C21124829   1.026  -0.194  14.612
  200DOPC  H11R24830   0.932  -0.248  14.640
  200DOPC  H11S24831   0.993  -0.090  14.593
  200DOPC  C21224832   1.111  -0.201  14.740
  200DOPC  H12R24833   1.215  -0.232  14.715
  200DOPC  H12S24834   1.071  -0.279  14.808
  200DOPC  C21324835   1.116  -0.066  14.815
  200DOPC  H13R24836   1.192  -0.073  14.896
  200DOPC  H13S24837   1.019  -0.048  14.866
  200DOPC  C21424838   1.148   0.049  14.718
  200DOPC  H14R24839   1.053   0.086  14.675
  200DOPC  H14S24840   1.206   0.008  14.633
  200DOPC  C21524841   1.223   0.169  14.771
  200DOPC  H15R24842   1.295   0.136  14.849
  200DOPC  H15S24843   1.151   0.238  14.819
  200DOPC  C21624844   1.303   0.240  14.659
  200DOPC  H16R24845   1.319   0.348  14.680
  200DOPC  H16S24846   1.243   0.235  14.565
  200DOPC  C21724847   1.438   0.170  14.640
  200DOPC  H17R24848   1.466   0.171  14.533
  200DOPC  H17S24849   1.416   0.064  14.662
  200DOPC  C21824850   1.558   0.213  14.728
  200DOPC  H18R24851   1.605   0.309  14.697
  200DOPC  H18S24852   1.638   0.137  14.723
  200DOPC  H18T24853   1.531   0.226  14.835
  200DOPC   C3324854   1.160   0.190  13.691
  200DOPC   H3X24855   1.072   0.221  13.752
  200DOPC   H3Y24856   1.145   0.227  13.588
  200DOPC   C3424857   1.278   0.263  13.751
  200DOPC   H4X24858   1.262   0.373  13.742
  200DOPC   H4Y24859   1.367   0.235  13.691
  200DOPC   C3524860   1.304   0.225  13.896
  200DOPC   H5X24861   1.388   0.153  13.901
  200DOPC   H5Y24862   1.215   0.174  13.938
  200DOPC   C3624863   1.336   0.345  13.985
  200DOPC   H6X24864   1.434   0.387  13.954
  200DOPC   H6Y24865   1.259   0.425  13.974
  200DOPC   C3724866   1.343   0.298  14.130
  200DOPC   H7X24867   1.373   0.191  14.131
  200DOPC   H7Y24868   1.424   0.356  14.180
  200DOPC   C3824869   1.213   0.315  14.210
  200DOPC   H8X24870   1.210   0.235  14.287
  200DOPC   H8Y24871   1.126   0.301  14.142
  200DOPC   C3924872   1.209   0.448  14.279
  200DOPC   H9X24873   1.308   0.493  14.295
  200DOPC  C31024874   1.100   0.515  14.317
  200DOPC  H10X24875   1.113   0.614  14.364
  200DOPC  C31124876   0.958   0.471  14.298
  200DOPC  H11X24877   0.939   0.447  14.191
  200DOPC  H11Y24878   0.888   0.554  14.324
  200DOPC  C31224879   0.922   0.348  14.381
  200DOPC  H12X24880   0.990   0.264  14.357
  200DOPC  H12Y24881   0.819   0.317  14.354
  200DOPC  C31324882   0.929   0.370  14.533
  200DOPC  H13X24883   1.034   0.379  14.565
  200DOPC  H13Y24884   0.877   0.464  14.559
  200DOPC  C31424885   0.862   0.251  14.602
  200DOPC  H14X24886   0.758   0.242  14.565
  200DOPC  H14Y24887   0.912   0.158  14.569
  200DOPC  C31524888   0.854   0.266  14.754
  200DOPC  H15X24889   0.789   0.353  14.774
  200DOPC  H15Y24890   0.956   0.286  14.794
  200DOPC  C31624891   0.793   0.143  14.821
  200DOPC  H16X24892   0.696   0.125  14.770
  200DOPC  H16Y24893   0.858   0.055  14.802
  200DOPC  C31724894   0.759   0.153  14.970
  200DOPC  H17X24895   0.715   0.056  15.002
  200DOPC  H17Y24896   0.852   0.166  15.029
  200DOPC  C31824897   0.658   0.264  15.002
  200DOPC  H18X24898   0.648   0.276  15.112
  200DOPC  H18Y24899   0.692   0.362  14.962
  200DOPC  H18Z24900   0.559   0.242  14.957
  201SOD    SOD24901   7.191   1.815  17.434
  202SOD    SOD24902   6.597   6.371  12.385
  203SOD    SOD24903   7.070   1.791  19.906
  204SOD    SOD24904   7.261   7.018  10.043
  205SOD    SOD24905   6.208   3.101  19.695
  206SOD    SOD24906   2.705   2.531  11.411
  207SOD    SOD24907   1.597   1.142  12.036
  208SOD    SOD24908   3.753   3.184  18.774
  209SOD    SOD24909   1.055   2.685  12.667
  210SOD    SOD24910   4.701   0.711  17.196
  211SOD    SOD24911   2.337   2.527  19.212
  212SOD    SOD24912   0.574   4.956  19.127
  213SOD    SOD24913   2.483   5.549  10.133
  214SOD    SOD24914   2.335   3.208  18.789
  215SOD    SOD24915   6.651   5.116  19.355
  216SOD    SOD24916   1.876   5.656  18.495
  217SOD    SOD24917   0.955   2.675  11.488
  218SOD    SOD24918   5.917   4.075  19.335
  219SOD    SOD24919   7.079   2.848  19.659
  220SOD    SOD24920   4.022   2.147  10.610
  221SOD    SOD24921   0.262   6.961  11.248
  222SOD    SOD24922   4.913   5.406  18.081
  223SOD    SOD24923   2.805   6.085  11.573
  224SOD    SOD24924   0.383   4.662  10.729
  225SOD    SOD24925   3.145   2.139  11.547
  226SOD    SOD24926   0.883   7.285  19.363
  227CLA    CLA24927   6.016   3.616  11.512
  228CLA    CLA24928   4.977   4.818  10.124
  229CLA    CLA24929   0.433   4.649  11.918
  230CLA    CLA24930   5.881   3.041  18.092
  231CLA    CLA24931   4.564   6.646  19.916
  232CLA    CLA24932   4.727   2.795  19.710
  233CLA    CLA24933   4.627   1.279  18.151
  234CLA    CLA24934   6.228   5.639  19.007
  235CLA    CLA24935   1.455   0.703  10.096
  236CLA    CLA24936   2.679   0.577  18.481
  237CLA    CLA24937   2.514   2.089  17.754
  238CLA    CLA24938   5.286   1.383  11.748
  239CLA    CLA24939   7.315   0.659  12.179
  240CLA    CLA24940   6.430   4.025  17.193
  241CLA    CLA24941   4.859   7.230  12.396
  242CLA    CLA24942   5.187   3.181  18.227
  243CLA    CLA24943   0.794   0.627  11.588
  244CLA    CLA24944   3.440   2.395  12.090
  245CLA    CLA24945   7.156   6.366  11.957
  246CLA    CLA24946   1.074   0.782  19.740
  247CLA    CLA24947   4.103   0.748  11.553
  248CLA    CLA24948   4.543   4.439  11.832
  249CLA    CLA24949   1.904   6.170  11.896
  250CLA    CLA24950   4.592   2.801  18.802
  251CLA    CLA24951   1.245   3.301  17.972
  252CLA    CLA24952   0.659   2.292  12.382
  253TIP3   OH224953   4.079   4.854  16.955
  253TIP3    H124954   4.076   4.763  16.928
  253TIP3    H224955   4.140   4.856  17.029
  254TIP3   OH224956   4.043   4.456  17.124
  254TIP3    H124957   3.989   4.524  17.164
  254TIP3    H224958   4.058   4.486  17.035
  255TIP3   OH224959   2.820   4.382  16.994
  255TIP3    H124960   2.888   4.444  17.019
  255TIP3    H224961   2.764   4.430  16.934
  256TIP3   OH224962   2.472   4.720  17.013
  256TIP3    H124963   2.381   4.749  17.008
  256TIP3    H224964   2.477   4.672  17.096
  257TIP3   OH224965   2.312   2.787  16.994
  257TIP3    H124966   2.329   2.848  17.065
  257TIP3    H224967   2.385   2.799  16.933
  258TIP3   OH224968   6.045   4.042  17.180
  258TIP3    H124969   6.094   4.123  17.166
  258TIP3    H224970   6.089   3.977  17.125
  259TIP3   OH224971   5.798   4.099  16.905
  259TIP3    H124972   5.892   4.097  16.886
  259TIP3    H224973   5.761   4.028  16.852
  260TIP3   OH224974   6.208   3.903  16.995
  260TIP3    H124975   6.287   3.928  17.042
  260TIP3    H224976   6.233   3.824  16.946
  261TIP3   OH224977   1.672   2.467  17.028
  261TIP3    H124978   1.741   2.455  16.963
  261TIP3    H224979   1.590   2.464  16.978
  262TIP3   OH224980   6.235   2.324  17.058
  262TIP3    H124981   6.177   2.389  17.018
  262TIP3    H224982   6.261   2.268  16.986
  263TIP3   OH224983   5.824   2.555  16.992
  263TIP3    H124984   5.842   2.634  17.043
  263TIP3    H224985   5.774   2.586  16.917
  264TIP3   OH224986   2.902   6.331  17.047
  264TIP3    H124987   2.889   6.318  17.140
  264TIP3    H224988   2.817   6.362  17.015
  265TIP3   OH224989   2.754   6.064  16.976
  265TIP3    H124990   2.723   6.009  17.048
  265TIP3    H224991   2.822   6.118  17.014
  266TIP3   OH224992   2.655   6.513  17.036
  266TIP3    H124993   2.663   6.608  17.026
  266TIP3    H224994   2.646   6.480  16.947
  267TIP3   OH224995   1.348   5.748  17.131
  267TIP3    H124996   1.320   5.676  17.075
  267TIP3    H224997   1.336   5.826  17.078
  268TIP3   OH224998   1.035   5.600  17.086
  268TIP3    H124999   1.114   5.549  17.102
  268TIP3    H225000   1.058   5.658  17.014
  269TIP3   OH225001   1.246   5.415  17.130
  269TIP3    H125002   1.254   5.414  17.034
  269TIP3    H225003   1.299   5.342  17.160
  270TIP3   OH225004   1.187   5.153  16.961
  270TIP3    H125005   1.130   5.185  17.032
  270TIP3    H225006   1.196   5.059  16.977
  271TIP3   OH225007   3.431   0.634  17.117
  271TIP3    H125008   3.410   0.727  17.127
  271TIP3    H225009   3.346   0.590  17.113
  272TIP3   OH225010   0.657   5.312  17.033
  272TIP3    H125011   0.680   5.225  17.066
  272TIP3    H225012   0.663   5.303  16.938
  273TIP3   OH225013   5.558   7.066  17.039
  273TIP3    H125014   5.485   7.083  16.979
  273TIP3    H225015   5.601   7.151  17.048
  274TIP3   OH225016   1.929   0.441  16.986
  274TIP3    H125017   1.909   0.422  17.077
  274TIP3    H225018   2.010   0.393  16.968
  275TIP3   OH225019   2.612   0.068  17.088
  275TIP3    H125020   2.698   0.101  17.113
  275TIP3    H225021   2.551   0.139  17.109
  276TIP3   OH225022   2.438   0.307  17.096
  276TIP3    H125023   2.437   0.394  17.135
  276TIP3    H225024   2.467   0.322  17.006
  277TIP3   OH225025   5.289   0.171  17.086
  277TIP3    H125026   5.244   0.113  17.024
  277TIP3    H225027   5.321   0.243  17.032
  278TIP3   OH225028   5.457   0.556  16.959
  278TIP3    H125029   5.517   0.610  16.907
  278TIP3    H225030   5.382   0.613  16.976
  279TIP3   OH225031   7.158   1.858  16.971
  279TIP3    H125032   7.112   1.839  16.889
  279TIP3    H225033   7.231   1.914  16.945
  280TIP3   OH225034   7.499   1.690  17.133
  280TIP3    H125035   7.529   1.762  17.077
  280TIP3    H225036   7.481   1.618  17.072
  281TIP3   OH225037   7.427   1.051  16.710
  281TIP3    H125038   7.486   1.124  16.692
  281TIP3    H225039   7.476   0.995  16.770
  282TIP3   OH225040   1.007   0.232  17.033
  282TIP3    H125041   0.930   0.179  17.014
  282TIP3    H225042   0.999   0.254  17.126
  283TIP3   OH225043   1.463   0.451  16.917
  283TIP3    H125044   1.409   0.372  16.925
  283TIP3    H225045   1.438   0.489  16.833
  284TIP3   OH225046   4.164   3.651  12.852
  284TIP3    H125047   4.230   3.584  12.869
  284TIP3    H225048   4.175   3.714  12.924
  285TIP3   OH225049   4.473   3.959  12.926
  285TIP3    H125050   4.414   4.008  12.868
  285TIP3    H225051   4.559   3.966  12.885
  286TIP3   OH225052   5.016   3.685  12.981
  286TIP3    H125053   5.046   3.761  13.031
  286TIP3    H225054   5.088   3.622  12.987
  287TIP3   OH225055   4.832   4.056  12.982
  287TIP3    H125056   4.896   4.115  12.941
  287TIP3    H225057   4.774   4.114  13.031
  288TIP3   OH225058   3.219   5.203  13.027
  288TIP3    H125059   3.189   5.121  13.068
  288TIP3    H225060   3.140   5.239  12.985
  289TIP3   OH225061   3.784   5.275  12.953
  289TIP3    H125062   3.769   5.360  12.912
  289TIP3    H225063   3.707   5.261  13.009
  290TIP3   OH225064   4.523   5.431  12.964
  290TIP3    H125065   4.468   5.361  12.999
  290TIP3    H225066   4.596   5.438  13.026
  291TIP3   OH225067   4.340   4.988  12.956
  291TIP3    H125068   4.277   4.930  12.912
  291TIP3    H225069   4.424   4.944  12.944
  292TIP3   OH225070   2.934   5.203  12.956
  292TIP3    H125071   2.852   5.242  12.925
  292TIP3    H225072   2.909   5.115  12.983
  293TIP3   OH225073   2.394   5.280  12.837
  293TIP3    H125074   2.412   5.188  12.857
  293TIP3    H225075   2.409   5.326  12.920
  294TIP3   OH225076   2.555   5.466  13.006
  294TIP3    H125077   2.629   5.445  12.949
  294TIP3    H225078   2.557   5.398  13.074
  295TIP3   OH225079   2.511   5.025  12.880
  295TIP3    H125080   2.441   4.961  12.864
  295TIP3    H225081   2.576   5.006  12.812
  296TIP3   OH225082   2.682   5.306  12.798
  296TIP3    H125083   2.695   5.279  12.707
  296TIP3    H225084   2.587   5.303  12.811
  297TIP3   OH225085   2.474   1.632  13.089
  297TIP3    H125086   2.555   1.603  13.046
  297TIP3    H225087   2.500   1.647  13.180
  298TIP3   OH225088   2.606   1.889  13.096
  298TIP3    H125089   2.553   1.820  13.056
  298TIP3    H225090   2.576   1.892  13.187
  299TIP3   OH225091   1.923   1.509  12.956
  299TIP3    H125092   1.875   1.427  12.967
  299TIP3    H225093   2.005   1.483  12.914
  300TIP3   OH225094   2.154   1.439  12.833
  300TIP3    H125095   2.224   1.491  12.872
  300TIP3    H225096   2.170   1.350  12.862
  301TIP3   OH225097   2.005   1.952  12.925
  301TIP3    H125098   2.018   1.878  12.984
  301TIP3    H225099   1.972   2.022  12.982
  302TIP3   OH225100   2.280   1.680  12.904
  302TIP3    H125101   2.207   1.718  12.953
  302TIP3    H225102   2.348   1.664  12.969
  303TIP3   OH225103   5.813   6.057  12.904
  303TIP3    H125104   5.771   6.019  12.827
  303TIP3    H225105   5.839   6.145  12.877
  304TIP3   OH225106   2.823   6.532  12.953
  304TIP3    H125107   2.849   6.597  12.888
  304TIP3    H225108   2.896   6.470  12.957
  305TIP3   OH225109   2.374   6.715  13.089
  305TIP3    H125110   2.447   6.653  13.092
  305TIP3    H225111   2.315   6.679  13.023
  306TIP3   OH225112   0.766   5.479  12.976
  306TIP3    H125113   0.741   5.569  12.995
  306TIP3    H225114   0.859   5.475  13.000
  307TIP3   OH225115   0.578   5.105  12.879
  307TIP3    H125116   0.646   5.124  12.943
  307TIP3    H225117   0.585   5.010  12.864
  308TIP3   OH225118   0.733   4.866  12.887
  308TIP3    H125119   0.823   4.895  12.902
  308TIP3    H225120   0.733   4.774  12.912
  309TIP3   OH225121   3.962   7.274  12.957
  309TIP3    H125122   3.921   7.201  13.004
  309TIP3    H225123   4.042   7.238  12.920
  310TIP3   OH225124   3.599   7.228  12.931
  310TIP3    H125125   3.572   7.288  12.861
  310TIP3    H225126   3.520   7.219  12.985
  311TIP3   OH225127   1.055   2.370  12.898
  311TIP3    H125128   1.032   2.286  12.858
  311TIP3    H225129   1.150   2.375  12.888
  312TIP3   OH225130   0.691   2.514  12.867
  312TIP3    H125131   0.629   2.443  12.848
  312TIP3    H225132   0.737   2.485  12.946
  313TIP3   OH225133   7.088   2.520  12.754
  313TIP3    H125134   7.104   2.428  12.773
  313TIP3    H225135   7.039   2.552  12.830
  314TIP3   OH225136   6.734   2.285  13.023
  314TIP3    H125137   6.676   2.218  13.061
  314TIP3    H225138   6.716   2.281  12.929
  315TIP3   OH225139   6.764   2.798  13.029
  315TIP3    H125140   6.807   2.715  13.050
  315TIP3    H225141   6.745   2.837  13.115
  316TIP3   OH225142   5.451   0.211  12.948
  316TIP3    H125143   5.356   0.199  12.943
  316TIP3    H225144   5.463   0.291  12.999
  317TIP3   OH225145   5.758   0.247  13.024
  317TIP3    H125146   5.720   0.165  12.993
  317TIP3    H225147   5.683   0.306  13.033
  318TIP3   OH225148   5.912   0.473  12.945
  318TIP3    H125149   5.876   0.394  12.986
  318TIP3    H225150   5.961   0.516  13.015
  319TIP3   OH225151   6.992   1.180  12.868
  319TIP3    H125152   6.941   1.173  12.948
  319TIP3    H225153   6.953   1.116  12.809
  320TIP3   OH225154   0.220   6.700  12.858
  320TIP3    H125155   0.206   6.795  12.859
  320TIP3    H225156   0.244   6.679  12.948
  321TIP3   OH225157   7.302   0.269  12.953
  321TIP3    H125158   7.251   0.225  12.886
  321TIP3    H225159   7.371   0.314  12.905
  322TIP3   OH225160   6.997   0.371  12.850
  322TIP3    H125161   7.054   0.295  12.834
  322TIP3    H225162   7.022   0.401  12.938
  323TIP3   OH225163   1.203   1.001  17.657
  323TIP3    H125164   1.192   1.096  17.663
  323TIP3    H225165   1.150   0.975  17.582
  324TIP3   OH225166   1.092   0.891  18.020
  324TIP3    H125167   1.104   0.857  18.109
  324TIP3    H225168   1.051   0.819  17.972
  325TIP3   OH225169   0.330   0.896  18.174
  325TIP3    H125170   0.316   0.805  18.201
  325TIP3    H225171   0.380   0.935  18.246
  326TIP3   OH225172   1.431   1.210  17.847
  326TIP3    H125173   1.406   1.135  17.901
  326TIP3    H225174   1.464   1.274  17.910
  327TIP3   OH225175   0.412   1.324  17.984
  327TIP3    H125176   0.392   1.234  17.959
  327TIP3    H225177   0.507   1.325  17.997
  328TIP3   OH225178   0.126   0.754  17.554
  328TIP3    H125179   0.036   0.723  17.567
  328TIP3    H225180   0.161   0.698  17.485
  329TIP3   OH225181   0.128   0.892  17.802
  329TIP3    H125182   0.147   0.801  17.822
  329TIP3    H225183   0.128   0.896  17.706
  330TIP3   OH225184   1.175   1.728  17.853
  330TIP3    H125185   1.231   1.675  17.796
  330TIP3    H225186   1.160   1.672  17.929
  331TIP3   OH225187   0.920   1.172  18.048
  331TIP3    H125188   0.964   1.106  17.994
  331TIP3    H225189   0.987   1.201  18.110
  332TIP3   OH225190   1.804   0.304  18.102
  332TIP3    H125191   1.802   0.376  18.165
  332TIP3    H225192   1.876   0.326  18.043
  333TIP3   OH225193   1.267   0.597  18.092
  333TIP3    H125194   1.290   0.505  18.106
  333TIP3    H225195   1.257   0.605  17.997
  334TIP3   OH225196   1.349   0.438  17.627
  334TIP3    H125197   1.404   0.410  17.699
  334TIP3    H225198   1.408   0.486  17.568
  335TIP3   OH225199   0.174   0.613  17.864
  335TIP3    H125200   0.269   0.612  17.858
  335TIP3    H225201   0.144   0.577  17.781
  336TIP3   OH225202   1.816   0.460  18.339
  336TIP3    H125203   1.759   0.534  18.319
  336TIP3    H225204   1.839   0.471  18.432
  337TIP3   OH225205   0.450   0.344  18.234
  337TIP3    H125206   0.396   0.395  18.174
  337TIP3    H225207   0.394   0.327  18.309
  338TIP3   OH225208   1.111   1.261  17.557
  338TIP3    H125209   1.047   1.264  17.485
  338TIP3    H225210   1.129   1.353  17.577
  339TIP3   OH225211   0.716   1.077  18.209
  339TIP3    H125212   0.660   1.148  18.240
  339TIP3    H225213   0.785   1.121  18.160
  340TIP3   OH225214   1.502   0.397  17.853
  340TIP3    H125215   1.449   0.395  17.932
  340TIP3    H225216   1.584   0.439  17.879
  341TIP3   OH225217   0.571   1.300  18.280
  341TIP3    H125218   0.580   1.381  18.230
  341TIP3    H225219   0.481   1.304  18.315
  342TIP3   OH225220   0.089   1.211  17.444
  342TIP3    H125221   0.106   1.202  17.350
  342TIP3    H225222   0.141   1.286  17.472
  343TIP3   OH225223   1.503   1.409  18.047
  343TIP3    H125224   1.411   1.416  18.072
  343TIP3    H225225   1.527   1.498  18.022
  344TIP3   OH225226   1.570   0.190  18.214
  344TIP3    H125227   1.493   0.218  18.165
  344TIP3    H225228   1.644   0.218  18.161
  345TIP3   OH225229   0.852   0.125  17.945
  345TIP3    H125230   0.850   0.031  17.964
  345TIP3    H225231   0.773   0.159  17.986
  346TIP3   OH225232   1.323   1.573  17.682
  346TIP3    H125233   1.353   1.485  17.658
  346TIP3    H225234   1.403   1.624  17.690
  347TIP3   OH225235   1.429   1.337  17.598
  347TIP3    H125236   1.452   1.279  17.525
  347TIP3    H225237   1.436   1.282  17.676
  348TIP3   OH225238   1.619   1.215  18.425
  348TIP3    H125239   1.611   1.159  18.349
  348TIP3    H225240   1.629   1.303  18.389
  349TIP3   OH225241   1.086   0.928  17.417
  349TIP3    H125242   1.019   0.991  17.387
  349TIP3    H225243   1.146   0.920  17.342
  350TIP3   OH225244   1.094   0.806  17.123
  350TIP3    H125245   1.175   0.808  17.175
  350TIP3    H225246   1.123   0.820  17.033
  351TIP3   OH225247   1.795   0.891  18.252
  351TIP3    H125248   1.724   0.955  18.241
  351TIP3    H225249   1.851   0.904  18.175
  352TIP3   OH225250   1.427   0.934  17.511
  352TIP3    H125251   1.357   0.955  17.574
  352TIP3    H225252   1.493   0.888  17.563
  353TIP3   OH225253   1.384   0.752  18.433
  353TIP3    H125254   1.380   0.829  18.489
  353TIP3    H225255   1.317   0.767  18.366
  354TIP3   OH225256   0.592   0.956  17.692
  354TIP3    H125257   0.539   0.955  17.612
  354TIP3    H225258   0.676   0.919  17.666
  355TIP3   OH225259   0.696   1.338  17.967
  355TIP3    H125260   0.693   1.342  17.872
  355TIP3    H225261   0.773   1.285  17.986
  356TIP3   OH225262   0.626   0.883  18.037
  356TIP3    H125263   0.682   0.916  17.966
  356TIP3    H225264   0.644   0.941  18.111
  357TIP3   OH225265   1.248   1.430  18.142
  357TIP3    H125266   1.234   1.498  18.209
  357TIP3    H225267   1.205   1.353  18.177
  358TIP3   OH225268   0.708   1.329  18.520
  358TIP3    H125269   0.644   1.383  18.566
  358TIP3    H225270   0.666   1.308  18.436
  359TIP3   OH225271   1.326   0.871  17.265
  359TIP3    H125272   1.368   0.899  17.346
  359TIP3    H225273   1.379   0.910  17.195
  360TIP3   OH225274   0.439   0.946  18.432
  360TIP3    H125275   0.450   1.025  18.486
  360TIP3    H225276   0.351   0.916  18.452
  361TIP3   OH225277   1.052   1.563  17.556
  361TIP3    H125278   1.113   1.574  17.629
  361TIP3    H225279   1.020   1.652  17.539
  362TIP3   OH225280   0.509   1.503  18.608
  362TIP3    H125281   0.509   1.541  18.520
  362TIP3    H225282   0.417   1.484  18.626
  363TIP3   OH225283   1.693   0.083  17.249
  363TIP3    H125284   1.617   0.106  17.302
  363TIP3    H225285   1.679   0.127  17.166
  364TIP3   OH225286   0.463   0.916  17.448
  364TIP3    H125287   0.381   0.964  17.436
  364TIP3    H225288   0.449   0.833  17.402
  365TIP3   OH225289   0.162   1.129  18.381
  365TIP3    H125290   0.071   1.136  18.353
  365TIP3    H225291   0.172   1.038  18.408
  366TIP3   OH225292   0.138   1.424  18.041
  366TIP3    H125293   0.207   1.361  18.021
  366TIP3    H225294   0.169   1.469  18.119
  367TIP3   OH225295   1.880   1.494  18.617
  367TIP3    H125296   1.869   1.401  18.600
  367TIP3    H225297   1.794   1.524  18.645
  368TIP3   OH225298   0.958   1.438  18.488
  368TIP3    H125299   0.960   1.522  18.533
  368TIP3    H225300   0.870   1.404  18.506
  369TIP3   OH225301   1.014   1.827  17.457
  369TIP3    H125302   0.945   1.863  17.401
  369TIP3    H225303   1.036   1.898  17.517
  370TIP3   OH225304   1.293   1.738  17.440
  370TIP3    H125305   1.198   1.746  17.454
  370TIP3    H225306   1.321   1.675  17.507
  371TIP3   OH225307   1.560   0.636  18.643
  371TIP3    H125308   1.503   0.674  18.577
  371TIP3    H225309   1.570   0.545  18.617
  372TIP3   OH225310   0.333   1.333  18.412
  372TIP3    H125311   0.371   1.299  18.493
  372TIP3    H225312   0.268   1.267  18.386
  373TIP3   OH225313   0.589   0.211  18.029
  373TIP3    H125314   0.505   0.210  17.983
  373TIP3    H225315   0.573   0.263  18.107
  374TIP3   OH225316   0.998   0.158  18.410
  374TIP3    H125317   1.042   0.073  18.405
  374TIP3    H225318   0.914   0.145  18.367
  375TIP3   OH225319   1.328   0.475  18.455
  375TIP3    H125320   1.277   0.459  18.535
  375TIP3    H225321   1.339   0.570  18.452
  376TIP3   OH225322   0.577   0.624  18.108
  376TIP3    H125323   0.509   0.624  18.175
  376TIP3    H225324   0.588   0.716  18.084
  377TIP3   OH225325   1.121   0.656  17.475
  377TIP3    H125326   1.103   0.748  17.453
  377TIP3    H225327   1.197   0.634  17.421
  378TIP3   OH225328   1.033   0.701  18.659
  378TIP3    H125329   0.990   0.624  18.697
  378TIP3    H225330   1.116   0.708  18.706
  379TIP3   OH225331   1.242   0.617  17.816
  379TIP3    H125332   1.215   0.692  17.763
  379TIP3    H225333   1.262   0.548  17.752
  380TIP3   OH225334   0.379   0.635  18.304
  380TIP3    H125335   0.422   0.679  18.378
  380TIP3    H225336   0.324   0.569  18.346
  381TIP3   OH225337   1.140   0.760  18.264
  381TIP3    H125338   1.188   0.703  18.205
  381TIP3    H225339   1.085   0.700  18.316
  382TIP3   OH225340   1.306   0.321  18.049
  382TIP3    H125341   1.264   0.311  18.134
  382TIP3    H225342   1.235   0.308  17.985
  383TIP3   OH225343   1.611   1.873  18.717
  383TIP3    H125344   1.631   1.908  18.630
  383TIP3    H225345   1.686   1.900  18.771
  384TIP3   OH225346   0.422   1.155  18.624
  384TIP3    H125347   0.484   1.146  18.696
  384TIP3    H225348   0.336   1.149  18.665
  385TIP3   OH225349   0.975   0.635  17.930
  385TIP3    H125350   1.057   0.589  17.909
  385TIP3    H225351   0.943   0.592  18.009
  386TIP3   OH225352   0.852   0.544  18.168
  386TIP3    H125353   0.774   0.600  18.165
  386TIP3    H225354   0.899   0.572  18.247
  387TIP3   OH225355   0.882   1.106  17.351
  387TIP3    H125356   0.808   1.056  17.317
  387TIP3    H225357   0.852   1.137  17.436
  388TIP3   OH225358   1.597   1.074  18.192
  388TIP3    H125359   1.654   1.131  18.142
  388TIP3    H225360   1.522   1.057  18.134
  389TIP3   OH225361   1.200   0.411  17.209
  389TIP3    H125362   1.174   0.430  17.118
  389TIP3    H225363   1.259   0.483  17.233
  390TIP3   OH225364   1.013   1.154  18.474
  390TIP3    H125365   1.031   1.118  18.561
  390TIP3    H225366   0.994   1.246  18.489
  391TIP3   OH225367   1.357   0.603  17.333
  391TIP3    H125368   1.443   0.589  17.371
  391TIP3    H225369   1.361   0.689  17.293
  392TIP3   OH225370   0.433   1.058  17.908
  392TIP3    H125371   0.480   1.028  17.831
  392TIP3    H225372   0.451   0.992  17.975
  393TIP3   OH225373   0.184   0.870  18.487
  393TIP3    H125374   0.189   0.855  18.581
  393TIP3    H225375   0.093   0.850  18.464
  394TIP3   OH225376   0.809   0.868  18.644
  394TIP3    H125377   0.752   0.826  18.580
  394TIP3    H225378   0.893   0.823  18.635
  395TIP3   OH225379   1.242   1.399  18.483
  395TIP3    H125380   1.149   1.412  18.464
  395TIP3    H225381   1.254   1.433  18.572
  396TIP3   OH225382   1.794   0.637  17.304
  396TIP3    H125383   1.740   0.606  17.231
  396TIP3    H225384   1.811   0.729  17.285
  397TIP3   OH225385   1.851   1.213  18.570
  397TIP3    H125386   1.761   1.219  18.538
  397TIP3    H225387   1.903   1.193  18.491
  398TIP3   OH225388   1.653   1.475  17.287
  398TIP3    H125389   1.625   1.402  17.343
  398TIP3    H225390   1.734   1.444  17.247
  399TIP3   OH225391   1.374   0.986  18.020
  399TIP3    H125392   1.281   0.966  18.010
  399TIP3    H225393   1.419   0.911  17.981
  400TIP3   OH225394   0.643   1.392  17.695
  400TIP3    H125395   0.667   1.475  17.655
  400TIP3    H225396   0.548   1.385  17.679
  401TIP3   OH225397   0.197   0.892  17.128
  401TIP3    H125398   0.180   0.966  17.069
  401TIP3    H225399   0.123   0.833  17.114
  402TIP3   OH225400   0.761   1.165  17.590
  402TIP3    H125401   0.746   1.256  17.617
  402TIP3    H225402   0.702   1.113  17.645
  403TIP3   OH225403   0.843   1.596  18.270
  403TIP3    H125404   0.905   1.661  18.238
  403TIP3    H225405   0.894   1.540  18.328
  404TIP3   OH225406   0.652   1.646  17.577
  404TIP3    H125407   0.561   1.673  17.590
  404TIP3    H225408   0.704   1.722  17.603
  405TIP3   OH225409   1.132   1.188  18.228
  405TIP3    H125410   1.096   1.170  18.315
  405TIP3    H225411   1.207   1.129  18.220
  406TIP3   OH225412   1.458   1.617  18.444
  406TIP3    H125413   1.374   1.575  18.428
  406TIP3    H225414   1.460   1.691  18.384
  407TIP3   OH225415   0.212   0.438  18.423
  407TIP3    H125416   0.138   0.482  18.381
  407TIP3    H225417   0.197   0.345  18.406
  408TIP3   OH225418   1.505   1.166  17.385
  408TIP3    H125419   1.471   1.087  17.428
  408TIP3    H225420   1.598   1.148  17.374
  409TIP3   OH225421   0.242   1.553  18.259
  409TIP3    H125422   0.281   1.484  18.314
  409TIP3    H225423   0.273   1.635  18.299
  410TIP3   OH225424   0.702   1.355  17.226
  410TIP3    H125425   0.788   1.347  17.267
  410TIP3    H225426   0.677   1.446  17.241
  411TIP3   OH225427   1.178   0.323  18.286
  411TIP3    H125428   1.231   0.371  18.350
  411TIP3    H225429   1.117   0.272  18.339
  412TIP3   OH225430   1.231   0.265  17.436
  412TIP3    H125431   1.211   0.308  17.353
  412TIP3    H225432   1.256   0.337  17.495
  413TIP3   OH225433   0.949   1.453  17.318
  413TIP3    H125434   0.883   1.521  17.299
  413TIP3    H225435   0.996   1.487  17.395
  414TIP3   OH225436   0.960   0.462  17.578
  414TIP3    H125437   1.010   0.513  17.514
  414TIP3    H225438   0.976   0.507  17.661
  415TIP3   OH225439   0.994   0.579  18.411
  415TIP3    H125440   1.001   0.626  18.495
  415TIP3    H225441   1.021   0.489  18.432
  416TIP3   OH225442   0.997   0.188  17.555
  416TIP3    H125443   0.987   0.277  17.587
  416TIP3    H225444   1.083   0.187  17.514
  417TIP3   OH225445   0.726   1.624  17.302
  417TIP3    H125446   0.727   1.708  17.257
  417TIP3    H225447   0.696   1.643  17.390
  418TIP3   OH225448   1.585   0.398  18.509
  418TIP3    H125449   1.494   0.402  18.479
  418TIP3    H225450   1.633   0.367  18.433
  419TIP3   OH225451   1.479   0.748  17.905
  419TIP3    H125452   1.401   0.695  17.889
  419TIP3    H225453   1.537   0.691  17.956
  420TIP3   OH225454   1.579   1.683  18.043
  420TIP3    H125455   1.566   1.755  17.981
  420TIP3    H225456   1.673   1.682  18.060
  421TIP3   OH225457   0.324   0.203  17.944
  421TIP3    H125458   0.332   0.192  17.850
  421TIP3    H225459   0.301   0.116  17.977
  422TIP3   OH225460   0.213   1.451  17.529
  422TIP3    H125461   0.145   1.470  17.593
  422TIP3    H225462   0.211   1.525  17.468
  423TIP3   OH225463   0.144   1.768  18.717
  423TIP3    H125464   0.206   1.757  18.790
  423TIP3    H225465   0.133   1.680  18.682
  424TIP3   OH225466   0.589   1.640  18.836
  424TIP3    H125467   0.674   1.605  18.863
  424TIP3    H225468   0.569   1.594  18.754
  425TIP3   OH225469   1.238   1.492  18.743
  425TIP3    H125470   1.213   1.409  18.784
  425TIP3    H225471   1.319   1.517  18.789
  426TIP3   OH225472   1.531   1.538  17.022
  426TIP3    H125473   1.535   1.539  17.117
  426TIP3    H225474   1.620   1.515  16.994
  427TIP3   OH225475   0.199   1.144  18.794
  427TIP3    H125476   0.238   1.057  18.805
  427TIP3    H225477   0.106   1.126  18.779
  428TIP3   OH225478   0.785   1.143  18.709
  428TIP3    H125479   0.767   1.191  18.628
  428TIP3    H225480   0.802   1.053  18.680
  429TIP3   OH225481   1.359   1.141  18.493
  429TIP3    H125482   1.449   1.167  18.474
  429TIP3    H225483   1.309   1.222  18.485
  430TIP3   OH225484   0.271   0.851  18.759
  430TIP3    H125485   0.338   0.785  18.747
  430TIP3    H225486   0.261   0.858  18.854
  431TIP3   OH225487   0.631   0.750  18.442
  431TIP3    H125488   0.569   0.823  18.439
  431TIP3    H225489   0.703   0.777  18.385
  432TIP3   OH225490   1.145   1.012  18.780
  432TIP3    H125491   1.229   0.978  18.748
  432TIP3    H225492   1.116   0.947  18.844
  433TIP3   OH225493   1.745   1.028  16.984
  433TIP3    H125494   1.745   0.985  16.898
  433TIP3    H225495   1.770   1.119  16.965
  434TIP3   OH225496   0.663   0.509  18.568
  434TIP3    H125497   0.686   0.444  18.502
  434TIP3    H225498   0.657   0.591  18.520
  435TIP3   OH225499   0.710   0.360  18.322
  435TIP3    H125500   0.766   0.410  18.264
  435TIP3    H225501   0.621   0.374  18.289
  436TIP3   OH225502   0.842   0.852  18.307
  436TIP3    H125503   0.937   0.866  18.311
  436TIP3    H225504   0.806   0.937  18.280
  437TIP3   OH225505   1.269   0.644  18.840
  437TIP3    H125506   1.284   0.549  18.832
  437TIP3    H225507   1.357   0.682  18.836
  438TIP3   OH225508   1.411   0.944  18.670
  438TIP3    H125509   1.384   1.017  18.614
  438TIP3    H225510   1.505   0.935  18.654
  439TIP3   OH225511   0.458   0.632  18.744
  439TIP3    H125512   0.412   0.550  18.760
  439TIP3    H225513   0.530   0.608  18.685
  440TIP3   OH225514   0.733   0.089  18.332
  440TIP3    H125515   0.730   0.185  18.329
  440TIP3    H225516   0.644   0.061  18.311
  441TIP3   OH225517   0.903   0.475  18.736
  441TIP3    H125518   0.893   0.444  18.826
  441TIP3    H225519   0.815   0.471  18.699
  442TIP3   OH225520   1.171   0.408  18.664
  442TIP3    H125521   1.081   0.410  18.698
  442TIP3    H225522   1.221   0.359  18.729
  443TIP3   OH225523   1.343   0.313  18.863
  443TIP3    H125524   1.343   0.218  18.853
  443TIP3    H225525   1.310   0.328  18.951
  444TIP3   OH225526   0.349   0.381  18.782
  444TIP3    H125527   0.324   0.313  18.719
  444TIP3    H225528   0.340   0.339  18.868
  445TIP3   OH225529   0.738   0.060  18.628
  445TIP3    H125530   0.735  -0.035  18.621
  445TIP3    H225531   0.768   0.089  18.542
  446TIP3   OH225532   0.836   0.148  18.866
  446TIP3    H125533   0.821   0.113  18.779
  446TIP3    H225534   0.773   0.220  18.875
  447TIP3   OH225535   0.798   1.863  17.162
  447TIP3    H125536   0.822   1.951  17.190
  447TIP3    H225537   0.717   1.875  17.111
  448TIP3   OH225538   0.120   1.624  17.860
  448TIP3    H125539   0.110   1.548  17.917
  448TIP3    H225540   0.213   1.646  17.865
  449TIP3   OH225541   1.843   1.729  18.093
  449TIP3    H125542   1.876   1.750  18.181
  449TIP3    H225543   1.905   1.772  18.034
  450TIP3   OH225544   1.784   1.681  18.390
  450TIP3    H125545   1.744   1.615  18.332
  450TIP3    H225546   1.835   1.631  18.453
  451TIP3   OH225547   1.649   1.253  18.868
  451TIP3    H125548   1.563   1.259  18.911
  451TIP3    H225549   1.700   1.324  18.906
  452TIP3   OH225550   1.773   1.099  17.392
  452TIP3    H125551   1.850   1.153  17.377
  452TIP3    H225552   1.797   1.043  17.466
  453TIP3   OH225553   1.836   0.909  17.586
  453TIP3    H125554   1.755   0.875  17.622
  453TIP3    H225555   1.890   0.929  17.662
  454TIP3   OH225556   1.816   1.205  18.088
  454TIP3    H125557   1.866   1.133  18.050
  454TIP3    H225558   1.855   1.284  18.049
  455TIP3   OH225559   1.635   1.457  18.296
  455TIP3    H125560   1.563   1.506  18.335
  455TIP3    H225561   1.604   1.436  18.207
  456TIP3   OH225562   1.821   0.895  17.212
  456TIP3    H125563   1.790   0.929  17.128
  456TIP3    H225564   1.798   0.964  17.275
  457TIP3   OH225565   1.650   0.595  17.077
  457TIP3    H125566   1.689   0.651  17.011
  457TIP3    H225567   1.585   0.543  17.029
  458TIP3   OH225568   1.601   0.781  17.660
  458TIP3    H125569   1.594   0.693  17.623
  458TIP3    H225570   1.566   0.772  17.749
  459TIP3   OH225571   0.161   1.071  18.034
  459TIP3    H125572   0.187   1.049  17.945
  459TIP3    H225573   0.228   1.031  18.089
  460TIP3   OH225574   1.682   0.946  18.608
  460TIP3    H125575   1.738   0.868  18.599
  460TIP3    H225576   1.729   1.014  18.559
  461TIP3   OH225577   1.823   0.713  18.616
  461TIP3    H125578   1.736   0.677  18.629
  461TIP3    H225579   1.883   0.641  18.637
  462TIP3   OH225580   1.589   0.552  17.488
  462TIP3    H125581   1.615   0.460  17.500
  462TIP3    H225582   1.658   0.589  17.433
  463TIP3   OH225583   1.646   0.574  18.036
  463TIP3    H125584   1.739   0.593  18.026
  463TIP3    H225585   1.627   0.594  18.128
  464TIP3   OH225586   1.636   0.669  18.297
  464TIP3    H125587   1.556   0.702  18.337
  464TIP3    H225588   1.691   0.746  18.286
  465TIP3   OH225589   0.125   0.510  18.691
  465TIP3    H125590   0.199   0.478  18.742
  465TIP3    H225591   0.147   0.487  18.601
  466TIP3   OH225592   1.925   0.090  18.832
  466TIP3    H125593   2.008   0.085  18.785
  466TIP3    H225594   1.871   0.148  18.779
  467TIP3   OH225595   1.653   0.286  17.514
  467TIP3    H125596   1.671   0.245  17.599
  467TIP3    H225597   1.587   0.230  17.473
  468TIP3   OH225598   0.141   0.362  18.073
  468TIP3    H125599   0.192   0.311  18.010
  468TIP3    H225600   0.124   0.445  18.028
  469TIP3   OH225601   0.069   0.673  18.114
  469TIP3    H125602   0.119   0.667  18.033
  469TIP3    H225603   0.046   0.766  18.121
  470TIP3   OH225604   1.785   0.260  18.677
  470TIP3    H125605   1.714   0.310  18.716
  470TIP3    H225606   1.750   0.227  18.594
  471TIP3   OH225607   1.543   1.726  17.676
  471TIP3    H125608   1.605   1.724  17.603
  471TIP3    H225609   1.582   1.787  17.739
  472TIP3   OH225610   0.125   0.214  18.298
  472TIP3    H125611   0.035   0.183  18.306
  472TIP3    H225612   0.126   0.263  18.216
  473TIP3   OH225613   0.244   1.426  18.684
  473TIP3    H125614   0.173   1.407  18.623
  473TIP3    H225615   0.246   1.349  18.742
  474TIP3   OH225616   0.574   1.606  18.350
  474TIP3    H125617   0.551   1.680  18.294
  474TIP3    H225618   0.669   1.596  18.341
  475TIP3   OH225619   0.967   1.693  18.601
  475TIP3    H125620   0.977   1.670  18.694
  475TIP3    H225621   1.047   1.740  18.579
  476TIP3   OH225622   1.200   1.834  18.562
  476TIP3    H125623   1.267   1.784  18.515
  476TIP3    H225624   1.242   1.857  18.645
  477TIP3   OH225625   1.713   0.132  18.441
  477TIP3    H125626   1.654   0.152  18.369
  477TIP3    H225627   1.699   0.039  18.459
  478TIP3   OH225628   0.307   1.853  18.353
  478TIP3    H125629   0.231   1.904  18.327
  478TIP3    H225630   0.322   1.877  18.445
  479TIP3   OH225631   0.543   1.896  18.215
  479TIP3    H125632   0.462   1.866  18.257
  479TIP3    H225633   0.527   1.988  18.195
  480TIP3   OH225634   1.013   1.787  18.151
  480TIP3    H125635   1.010   1.826  18.063
  480TIP3    H225636   1.027   1.861  18.210
  481TIP3   OH225637   1.225   1.670  18.285
  481TIP3    H125638   1.149   1.704  18.238
  481TIP3    H225639   1.296   1.729  18.262
  482TIP3   OH225640   1.456   1.819  18.250
  482TIP3    H125641   1.468   1.912  18.231
  482TIP3    H225642   1.500   1.773  18.178
  483TIP3   OH225643   0.435   1.594  17.914
  483TIP3    H125644   0.415   1.503  17.936
  483TIP3    H225645   0.521   1.609  17.952
  484TIP3   OH225646   0.699   1.608  18.030
  484TIP3    H125647   0.706   1.517  18.000
  484TIP3    H225648   0.746   1.610  18.113
  485TIP3   OH225649   1.084   0.278  17.885
  485TIP3    H125650   1.006   0.228  17.908
  485TIP3    H225651   1.134   0.220  17.828
  486TIP3   OH225652   1.524   0.115  17.896
  486TIP3    H125653   1.606   0.133  17.851
  486TIP3    H225654   1.477   0.198  17.897
  487TIP3   OH225655   1.744   0.148  17.735
  487TIP3    H125656   1.801   0.077  17.705
  487TIP3    H225657   1.802   0.222  17.749
  488TIP3   OH225658   0.368   0.131  17.691
  488TIP3    H125659   0.358   0.176  17.607
  488TIP3    H225660   0.332   0.043  17.676
  489TIP3   OH225661   0.156   0.106  17.277
  489TIP3    H125662   0.119   0.170  17.215
  489TIP3    H225663   0.179   0.158  17.354
  490TIP3   OH225664   0.764   0.127  17.684
  490TIP3    H125665   0.841   0.138  17.628
  490TIP3    H225666   0.799   0.132  17.774
  491TIP3   OH225667   1.258   0.110  17.753
  491TIP3    H125668   1.303   0.138  17.673
  491TIP3    H225669   1.321   0.052  17.796
  492TIP3   OH225670   1.462   0.120  17.405
  492TIP3    H125671   1.381   0.170  17.406
  492TIP3    H225672   1.435   0.031  17.382
  493TIP3   OH225673   0.175   1.669  17.364
  493TIP3    H125674   0.114   1.644  17.294
  493TIP3    H225675   0.232   1.735  17.323
  494TIP3   OH225676   0.882   0.253  17.292
  494TIP3    H125677   0.910   0.244  17.383
  494TIP3    H225678   0.800   0.301  17.297
  495TIP3   OH225679   1.026   1.713  17.169
  495TIP3    H125680   1.064   1.746  17.250
  495TIP3    H225681   0.943   1.759  17.160
  496TIP3   OH225682   1.705   1.705  17.450
  496TIP3    H125683   1.684   1.624  17.405
  496TIP3    H225684   1.704   1.772  17.382
  497TIP3   OH225685   0.267   0.153  18.647
  497TIP3    H125686   0.241   0.085  18.585
  497TIP3    H225687   0.345   0.118  18.691
  498TIP3   OH225688   0.498   0.084  18.782
  498TIP3    H125689   0.582   0.108  18.742
  498TIP3    H225690   0.488  -0.009  18.763
  499TIP3   OH225691   1.347   0.045  18.823
  499TIP3    H125692   1.293  -0.031  18.840
  499TIP3    H225693   1.424   0.011  18.777
  500TIP3   OH225694   1.628   1.599  18.666
  500TIP3    H125695   1.573   1.592  18.588
  500TIP3    H225696   1.623   1.691  18.691
  501TIP3   OH225697   3.091   0.989  17.666
  501TIP3    H125698   3.044   1.009  17.747
  501TIP3    H225699   3.022   0.984  17.600
  502TIP3   OH225700   2.962   0.914  17.985
  502TIP3    H125701   2.982   0.887  18.075
  502TIP3    H225702   2.915   0.839  17.948
  503TIP3   OH225703   2.172   0.887  18.181
  503TIP3    H125704   2.176   0.795  18.210
  503TIP3    H225705   2.228   0.934  18.243
  504TIP3   OH225706   2.314   1.329  17.968
  504TIP3    H125707   2.284   1.241  17.946
  504TIP3    H225708   2.408   1.320  17.980
  505TIP3   OH225709   1.969   0.663  17.524
  505TIP3    H125710   1.944   0.750  17.556
  505TIP3    H225711   1.906   0.644  17.455
  506TIP3   OH225712   2.033   0.923  17.784
  506TIP3    H125713   2.064   0.835  17.807
  506TIP3    H225714   2.109   0.979  17.798
  507TIP3   OH225715   2.808   1.144  18.044
  507TIP3    H125716   2.850   1.068  18.004
  507TIP3    H225717   2.874   1.180  18.103
  508TIP3   OH225718   3.690   0.307  18.094
  508TIP3    H125719   3.684   0.375  18.161
  508TIP3    H225720   3.759   0.337  18.035
  509TIP3   OH225721   3.154   0.595  18.084
  509TIP3    H125722   3.181   0.505  18.103
  509TIP3    H225723   3.123   0.592  17.994
  510TIP3   OH225724   2.467   0.396  17.793
  510TIP3    H125725   2.479   0.484  17.757
  510TIP3    H225726   2.423   0.347  17.724
  511TIP3   OH225727   3.249   0.439  17.636
  511TIP3    H125728   3.296   0.419  17.717
  511TIP3    H225729   3.310   0.492  17.585
  512TIP3   OH225730   2.116   0.670  17.863
  512TIP3    H125731   2.184   0.637  17.922
  512TIP3    H225732   2.134   0.629  17.779
  513TIP3   OH225733   2.607   0.796  17.810
  513TIP3    H125734   2.689   0.756  17.839
  513TIP3    H225735   2.565   0.728  17.757
  514TIP3   OH225736   3.689   0.459  18.324
  514TIP3    H125737   3.631   0.534  18.312
  514TIP3    H225738   3.695   0.448  18.419
  515TIP3   OH225739   2.329   0.337  18.214
  515TIP3    H125740   2.299   0.391  18.141
  515TIP3    H225741   2.259   0.343  18.279
  516TIP3   OH225742   2.571   1.079  18.177
  516TIP3    H125743   2.522   1.155  18.209
  516TIP3    H225744   2.646   1.116  18.131
  517TIP3   OH225745   3.392   0.411  17.864
  517TIP3    H125746   3.379   0.333  17.919
  517TIP3    H225747   3.448   0.468  17.917
  518TIP3   OH225748   2.298   0.502  17.991
  518TIP3    H125749   2.358   0.551  18.047
  518TIP3    H225750   2.354   0.461  17.925
  519TIP3   OH225751   2.438   1.298  18.286
  519TIP3    H125752   2.444   1.390  18.262
  519TIP3    H225753   2.352   1.288  18.325
  520TIP3   OH225754   1.999   1.245  17.344
  520TIP3    H125755   2.001   1.287  17.258
  520TIP3    H225756   2.035   1.311  17.404
  521TIP3   OH225757   3.445   0.221  18.221
  521TIP3    H125758   3.363   0.246  18.178
  521TIP3    H225759   3.512   0.236  18.155
  522TIP3   OH225760   2.737   0.110  17.920
  522TIP3    H125761   2.741   0.019  17.949
  522TIP3    H225762   2.665   0.148  17.970
  523TIP3   OH225763   3.506   1.227  18.427
  523TIP3    H125764   3.500   1.168  18.352
  523TIP3    H225765   3.508   1.315  18.389
  524TIP3   OH225766   2.958   0.902  17.417
  524TIP3    H125767   2.883   0.950  17.383
  524TIP3    H225768   3.022   0.905  17.347
  525TIP3   OH225769   2.972   0.735  17.102
  525TIP3    H125770   3.039   0.785  17.149
  525TIP3    H225771   3.021   0.666  17.058
  526TIP3   OH225772   3.675   0.881  18.254
  526TIP3    H125773   3.604   0.945  18.249
  526TIP3    H225774   3.731   0.902  18.179
  527TIP3   OH225775   3.302   0.927  17.504
  527TIP3    H125776   3.235   0.950  17.568
  527TIP3    H225777   3.371   0.887  17.556
  528TIP3   OH225778   3.267   0.746  18.428
  528TIP3    H125779   3.263   0.834  18.466
  528TIP3    H225780   3.190   0.742  18.370
  529TIP3   OH225781   2.448   0.989  17.687
  529TIP3    H125782   2.431   0.959  17.598
  529TIP3    H225783   2.506   0.923  17.725
  530TIP3   OH225784   2.597   1.312  17.946
  530TIP3    H125785   2.601   1.336  17.853
  530TIP3    H225786   2.676   1.260  17.960
  531TIP3   OH225787   2.457   0.878  18.028
  531TIP3    H125788   2.517   0.864  17.955
  531TIP3    H225789   2.498   0.947  18.081
  532TIP3   OH225790   3.190   1.407  18.145
  532TIP3    H125791   3.154   1.486  18.186
  532TIP3    H225792   3.128   1.337  18.169
  533TIP3   OH225793   2.596   1.327  18.514
  533TIP3    H125794   2.533   1.385  18.558
  533TIP3    H225795   2.555   1.305  18.431
  534TIP3   OH225796   3.192   0.847  17.269
  534TIP3    H125797   3.228   0.879  17.352
  534TIP3    H225798   3.249   0.884  17.202
  535TIP3   OH225799   2.250   0.972  18.447
  535TIP3    H125800   2.259   1.037  18.517
  535TIP3    H225801   2.161   0.937  18.459
  536TIP3   OH225802   2.935   1.518  17.630
  536TIP3    H125803   2.987   1.596  17.650
  536TIP3    H225804   2.894   1.537  17.546
  537TIP3   OH225805   2.404   1.505  18.608
  537TIP3    H125806   2.405   1.536  18.518
  537TIP3    H225807   2.311   1.491  18.628
  538TIP3   OH225808   3.538   0.096  17.268
  538TIP3    H125809   3.474   0.078  17.337
  538TIP3    H225810   3.539   0.192  17.261
  539TIP3   OH225811   2.359   0.932  17.392
  539TIP3    H125812   2.266   0.950  17.410
  539TIP3    H225813   2.358   0.845  17.353
  540TIP3   OH225814   1.981   1.160  18.333
  540TIP3    H125815   1.936   1.172  18.250
  540TIP3    H225816   2.001   1.066  18.337
  541TIP3   OH225817   1.987   1.418  18.013
  541TIP3    H125818   2.079   1.396  17.998
  541TIP3    H225819   1.990   1.479  18.088
  542TIP3   OH225820   3.764   1.497  18.608
  542TIP3    H125821   3.754   1.402  18.597
  542TIP3    H225822   3.679   1.526  18.642
  543TIP3   OH225823   2.847   1.443  18.499
  543TIP3    H125824   2.843   1.529  18.541
  543TIP3    H225825   2.758   1.408  18.507
  544TIP3   OH225826   2.249   1.682  17.664
  544TIP3    H125827   2.300   1.662  17.743
  544TIP3    H225828   2.162   1.647  17.682
  545TIP3   OH225829   3.437   0.634  18.634
  545TIP3    H125830   3.374   0.670  18.572
  545TIP3    H225831   3.445   0.542  18.609
  546TIP3   OH225832   2.198   1.308  18.422
  546TIP3    H125833   2.216   1.268  18.506
  546TIP3    H225834   2.122   1.259  18.388
  547TIP3   OH225835   2.496   0.198  18.029
  547TIP3    H125836   2.439   0.230  17.960
  547TIP3    H225837   2.470   0.248  18.107
  548TIP3   OH225838   2.859   0.150  18.442
  548TIP3    H125839   2.909   0.070  18.424
  548TIP3    H225840   2.791   0.152  18.375
  549TIP3   OH225841   3.218   0.458  18.490
  549TIP3    H125842   3.159   0.443  18.564
  549TIP3    H225843   3.201   0.548  18.463
  550TIP3   OH225844   3.374   0.913  17.081
  550TIP3    H125845   3.324   0.904  17.000
  550TIP3    H225846   3.452   0.962  17.055
  551TIP3   OH225847   2.934   0.327  17.130
  551TIP3    H125848   2.868   0.310  17.198
  551TIP3    H225849   2.893   0.296  17.049
  552TIP3   OH225850   2.472   0.635  18.151
  552TIP3    H125851   2.455   0.654  18.243
  552TIP3    H225852   2.464   0.720  18.107
  553TIP3   OH225853   2.460   0.628  17.651
  553TIP3    H125854   2.364   0.619  17.646
  553TIP3    H225855   2.490   0.607  17.562
  554TIP3   OH225856   3.016   0.660  17.534
  554TIP3    H125857   2.991   0.747  17.502
  554TIP3    H225858   3.084   0.631  17.473
  555TIP3   OH225859   2.935   0.731  18.699
  555TIP3    H125860   2.888   0.652  18.673
  555TIP3    H225861   3.018   0.699  18.735
  556TIP3   OH225862   3.097   0.607  17.813
  556TIP3    H125863   3.070   0.669  17.745
  556TIP3    H225864   3.130   0.532  17.764
  557TIP3   OH225865   2.181   0.637  18.297
  557TIP3    H125866   2.259   0.668  18.344
  557TIP3    H225867   2.161   0.552  18.338
  558TIP3   OH225868   1.918   0.352  17.746
  558TIP3    H125869   1.965   0.372  17.827
  558TIP3    H225870   1.974   0.387  17.676
  559TIP3   OH225871   2.000   0.447  17.265
  559TIP3    H125872   2.072   0.496  17.225
  559TIP3    H225873   1.934   0.514  17.283
  560TIP3   OH225874   3.035   0.796  18.225
  560TIP3    H125875   3.083   0.732  18.173
  560TIP3    H225876   2.993   0.745  18.294
  561TIP3   OH225877   2.752   0.380  17.737
  561TIP3    H125878   2.664   0.379  17.774
  561TIP3    H225879   2.810   0.371  17.813
  562TIP3   OH225880   2.194   0.546  17.630
  562TIP3    H125881   2.122   0.577  17.576
  562TIP3    H225882   2.228   0.470  17.583
  563TIP3   OH225883   2.539   0.567  17.398
  563TIP3    H125884   2.634   0.564  17.405
  563TIP3    H225885   2.522   0.618  17.318
  564TIP3   OH225886   3.190   0.310  18.089
  564TIP3    H125887   3.136   0.309  18.169
  564TIP3    H225888   3.127   0.297  18.018
  565TIP3   OH225889   2.419   0.701  17.177
  565TIP3    H125890   2.346   0.684  17.117
  565TIP3    H225891   2.493   0.722  17.121
  566TIP3   OH225892   3.494   1.871  18.716
  566TIP3    H125893   3.517   1.902  18.629
  566TIP3    H225894   3.568   1.896  18.771
  567TIP3   OH225895   2.240   1.159  18.667
  567TIP3    H125896   2.311   1.144  18.729
  567TIP3    H225897   2.161   1.129  18.713
  568TIP3   OH225898   2.835   0.673  17.914
  568TIP3    H125899   2.913   0.623  17.887
  568TIP3    H225900   2.810   0.634  17.997
  569TIP3   OH225901   2.342   0.315  17.555
  569TIP3    H125902   2.290   0.239  17.580
  569TIP3    H225903   2.410   0.281  17.497
  570TIP3   OH225904   2.744   0.580  18.155
  570TIP3    H125905   2.649   0.586  18.145
  570TIP3    H225906   2.758   0.579  18.250
  571TIP3   OH225907   2.740   1.064  17.359
  571TIP3    H125908   2.710   1.065  17.449
  571TIP3    H225909   2.770   1.153  17.342
  572TIP3   OH225910   3.491   1.074  18.202
  572TIP3    H125911   3.537   1.128  18.138
  572TIP3    H225912   3.414   1.041  18.155
  573TIP3   OH225913   3.160   0.487  17.097
  573TIP3    H125914   3.088   0.424  17.091
  573TIP3    H225915   3.168   0.506  17.190
  574TIP3   OH225916   2.890   1.150  18.457
  574TIP3    H125917   2.843   1.084  18.508
  574TIP3    H225918   2.876   1.232  18.506
  575TIP3   OH225919   3.212   0.584  17.347
  575TIP3    H125920   3.300   0.577  17.385
  575TIP3    H225921   3.207   0.674  17.316
  576TIP3   OH225922   2.270   1.052  17.891
  576TIP3    H125923   2.333   1.045  17.819
  576TIP3    H225924   2.304   0.994  17.959
  577TIP3   OH225925   1.981   0.897  18.463
  577TIP3    H125926   1.964   0.833  18.533
  577TIP3    H225927   1.918   0.873  18.394
  578TIP3   OH225928   2.711   0.882  18.663
  578TIP3    H125929   2.678   0.862  18.575
  578TIP3    H225930   2.793   0.834  18.669
  579TIP3   OH225931   3.131   1.385  18.482
  579TIP3    H125932   3.039   1.399  18.456
  579TIP3    H225933   3.137   1.423  18.569
  580TIP3   OH225934   3.653   0.641  17.297
  580TIP3    H125935   3.590   0.629  17.225
  580TIP3    H225936   3.689   0.728  17.283
  581TIP3   OH225937   3.733   1.216  18.581
  581TIP3    H125938   3.640   1.222  18.558
  581TIP3    H225939   3.777   1.192  18.500
  582TIP3   OH225940   3.576   1.436  17.323
  582TIP3    H125941   3.510   1.367  17.319
  582TIP3    H225942   3.531   1.514  17.291
  583TIP3   OH225943   3.290   0.959  18.053
  583TIP3    H125944   3.195   0.963  18.038
  583TIP3    H225945   3.319   0.887  17.997
  584TIP3   OH225946   2.546   1.400  17.680
  584TIP3    H125947   2.577   1.482  17.641
  584TIP3    H225948   2.451   1.404  17.673
  585TIP3   OH225949   2.091   0.917  17.160
  585TIP3    H125950   2.090   1.010  17.138
  585TIP3    H225951   2.001   0.898  17.186
  586TIP3   OH225952   2.657   1.153  17.604
  586TIP3    H125953   2.646   1.246  17.621
  586TIP3    H225954   2.585   1.111  17.652
  587TIP3   OH225955   2.729   1.586  18.282
  587TIP3    H125956   2.782   1.659  18.250
  587TIP3    H225957   2.789   1.535  18.337
  588TIP3   OH225958   2.508   1.653  17.538
  588TIP3    H125959   2.422   1.680  17.569
  588TIP3    H225960   2.568   1.715  17.579
  589TIP3   OH225961   3.023   1.182  18.223
  589TIP3    H125962   2.974   1.176  18.304
  589TIP3    H225963   3.094   1.119  18.234
  590TIP3   OH225964   3.332   1.624  18.451
  590TIP3    H125965   3.251   1.579  18.427
  590TIP3    H225966   3.336   1.700  18.393
  591TIP3   OH225967   3.713   1.804  17.178
  591TIP3    H125968   3.691   1.856  17.100
  591TIP3    H225969   3.704   1.865  17.251
  592TIP3   OH225970   2.114   0.380  18.384
  592TIP3    H125971   2.025   0.386  18.351
  592TIP3    H225972   2.113   0.307  18.446
  593TIP3   OH225973   3.391   1.165  17.370
  593TIP3    H125974   3.344   1.088  17.403
  593TIP3    H225975   3.483   1.147  17.392
  594TIP3   OH225976   2.123   1.560  18.243
  594TIP3    H125977   2.160   1.485  18.290
  594TIP3    H225978   2.146   1.636  18.297
  595TIP3   OH225979   2.601   1.358  17.240
  595TIP3    H125980   2.692   1.367  17.213
  595TIP3    H225981   2.569   1.449  17.247
  596TIP3   OH225982   3.046   0.324  18.322
  596TIP3    H125983   3.113   0.352  18.385
  596TIP3    H225984   2.983   0.274  18.375
  597TIP3   OH225985   3.097   0.304  17.450
  597TIP3    H125986   3.073   0.361  17.376
  597TIP3    H225987   3.141   0.362  17.512
  598TIP3   OH225988   2.793   0.502  17.491
  598TIP3    H125989   2.868   0.560  17.504
  598TIP3    H225990   2.772   0.469  17.579
  599TIP3   OH225991   2.977   0.596  18.398
  599TIP3    H125992   2.890   0.596  18.438
  599TIP3    H225993   2.985   0.508  18.359
  600TIP3   OH225994   2.870   0.194  17.560
  600TIP3    H125995   2.848   0.262  17.624
  600TIP3    H225996   2.954   0.223  17.523
  601TIP3   OH225997   2.542   1.641  17.257
  601TIP3    H125998   2.597   1.716  17.233
  601TIP3    H225999   2.532   1.649  17.352
  602TIP3   OH226000   3.476   0.387  18.500
  602TIP3    H126001   3.381   0.397  18.499
  602TIP3    H226002   3.498   0.359  18.411
  603TIP3   OH226003   3.354   0.734  17.897
  603TIP3    H126004   3.271   0.686  17.896
  603TIP3    H226005   3.411   0.680  17.952
  604TIP3   OH226006   2.140   0.663  17.062
  604TIP3    H126007   2.129   0.751  17.098
  604TIP3    H226008   2.073   0.656  16.994
  605TIP3   OH226009   3.461   1.704  18.060
  605TIP3    H126010   3.443   1.760  17.985
  605TIP3    H226011   3.556   1.710  18.072
  606TIP3   OH226012   2.229   0.166  17.910
  606TIP3    H126013   2.210   0.163  17.816
  606TIP3    H226014   2.213   0.078  17.941
  607TIP3   OH226015   2.076   1.455  17.516
  607TIP3    H126016   1.999   1.511  17.522
  607TIP3    H226017   2.147   1.515  17.491
  608TIP3   OH226018   2.018   1.765  18.699
  608TIP3    H126019   2.082   1.739  18.765
  608TIP3    H226020   1.986   1.682  18.663
  609TIP3   OH226021   2.479   1.647  18.832
  609TIP3    H126022   2.562   1.606  18.857
  609TIP3    H226023   2.454   1.603  18.751
  610TIP3   OH226024   3.124   1.488  18.740
  610TIP3    H126025   3.100   1.404  18.779
  610TIP3    H226026   3.204   1.514  18.785
  611TIP3   OH226027   1.994   1.131  18.794
  611TIP3    H126028   1.961   1.044  18.816
  611TIP3    H226029   1.938   1.160  18.722
  612TIP3   OH226030   2.661   1.152  18.716
  612TIP3    H126031   2.642   1.193  18.632
  612TIP3    H226032   2.680   1.061  18.694
  613TIP3   OH226033   3.251   1.128  18.486
  613TIP3    H126034   3.339   1.164  18.471
  613TIP3    H226035   3.193   1.204  18.480
  614TIP3   OH226036   2.142   0.819  18.759
  614TIP3    H126037   2.226   0.775  18.745
  614TIP3    H226038   2.148   0.854  18.848
  615TIP3   OH226039   2.414   0.744  18.398
  615TIP3    H126040   2.390   0.834  18.421
  615TIP3    H226041   2.504   0.735  18.429
  616TIP3   OH226042   2.685   0.789  17.094
  616TIP3    H126043   2.693   0.847  17.018
  616TIP3    H226044   2.775   0.765  17.116
  617TIP3   OH226045   3.038   1.004  18.780
  617TIP3    H126046   3.122   0.978  18.742
  617TIP3    H226047   2.986   0.924  18.780
  618TIP3   OH226048   3.609   1.005  16.960
  618TIP3    H126049   3.596   0.983  16.868
  618TIP3    H226050   3.695   1.047  16.962
  619TIP3   OH226051   2.454   0.381  18.579
  619TIP3    H126052   2.486   0.301  18.537
  619TIP3    H226053   2.513   0.450  18.548
  620TIP3   OH226054   2.587   0.334  18.308
  620TIP3    H126055   2.624   0.413  18.348
  620TIP3    H226056   2.498   0.361  18.283
  621TIP3   OH226057   2.676   0.924  18.382
  621TIP3    H126058   2.755   0.892  18.339
  621TIP3    H226059   2.632   0.977  18.316
  622TIP3   OH226060   3.161   0.642  18.837
  622TIP3    H126061   3.170   0.548  18.827
  622TIP3    H226062   3.248   0.677  18.816
  623TIP3   OH226063   3.301   0.946  18.679
  623TIP3    H126064   3.274   1.014  18.617
  623TIP3    H226065   3.393   0.931  18.660
  624TIP3   OH226066   2.385   0.598  18.777
  624TIP3    H126067   2.309   0.541  18.764
  624TIP3    H226068   2.429   0.598  18.692
  625TIP3   OH226069   2.633   0.073  18.287
  625TIP3    H126070   2.623   0.168  18.293
  625TIP3    H226071   2.553   0.044  18.242
  626TIP3   OH226072   2.778   0.444  18.744
  626TIP3    H126073   2.699   0.430  18.797
  626TIP3    H226074   2.745   0.480  18.662
  627TIP3   OH226075   3.041   0.399  18.684
  627TIP3    H126076   2.948   0.410  18.703
  627TIP3    H226077   3.065   0.317  18.729
  628TIP3   OH226078   3.278   0.293  18.856
  628TIP3    H126079   3.245   0.206  18.835
  628TIP3    H226080   3.228   0.320  18.933
  629TIP3   OH226081   2.200   0.396  18.746
  629TIP3    H126082   2.266   0.354  18.692
  629TIP3    H226083   2.201   0.347  18.829
  630TIP3   OH226084   2.631   0.077  18.625
  630TIP3    H126085   2.626  -0.018  18.617
  630TIP3    H226086   2.702   0.103  18.566
  631TIP3   OH226087   2.675   0.123  18.892
  631TIP3    H126088   2.677   0.104  18.798
  631TIP3    H226089   2.632   0.208  18.898
  632TIP3   OH226090   2.701   1.891  17.162
  632TIP3    H126091   2.759   1.909  17.236
  632TIP3    H226092   2.684   1.977  17.123
  633TIP3   OH226093   1.895   1.826  17.623
  633TIP3    H126094   1.850   1.783  17.550
  633TIP3    H226095   1.922   1.755  17.680
  634TIP3   OH226096   1.984   1.633  17.797
  634TIP3    H126097   1.944   1.554  17.832
  634TIP3    H226098   2.034   1.669  17.870
  635TIP3   OH226099   3.726   1.745  18.116
  635TIP3    H126100   3.734   1.752  18.211
  635TIP3    H226101   3.805   1.787  18.082
  636TIP3   OH226102   3.681   1.674  18.393
  636TIP3    H126103   3.630   1.610  18.343
  636TIP3    H226104   3.721   1.622  18.463
  637TIP3   OH226105   3.537   1.251  18.874
  637TIP3    H126106   3.450   1.260  18.914
  637TIP3    H226107   3.586   1.326  18.908
  638TIP3   OH226108   3.642   1.112  17.459
  638TIP3    H126109   3.721   1.154  17.425
  638TIP3    H226110   3.671   1.024  17.484
  639TIP3   OH226111   3.729   0.876  17.591
  639TIP3    H126112   3.643   0.852  17.626
  639TIP3    H226113   3.779   0.905  17.667
  640TIP3   OH226114   3.678   1.203  18.045
  640TIP3    H126115   3.739   1.130  18.032
  640TIP3    H226116   3.729   1.281  18.027
  641TIP3   OH226117   3.506   1.473  18.296
  641TIP3    H126118   3.439   1.517  18.349
  641TIP3    H226119   3.469   1.473  18.208
  642TIP3   OH226120   3.726   0.884  17.204
  642TIP3    H126121   3.670   0.930  17.141
  642TIP3    H226122   3.813   0.887  17.166
  643TIP3   OH226123   3.479   0.778  17.658
  643TIP3    H126124   3.471   0.692  17.616
  643TIP3    H226125   3.439   0.766  17.745
  644TIP3   OH226126   1.958   0.977  18.043
  644TIP3    H126127   1.971   0.961  17.950
  644TIP3    H226128   2.041   0.952  18.084
  645TIP3   OH226129   3.572   0.942  18.610
  645TIP3    H126130   3.622   0.860  18.611
  645TIP3    H226131   3.624   1.001  18.555
  646TIP3   OH226132   3.700   0.705  18.648
  646TIP3    H126133   3.610   0.671  18.648
  646TIP3    H226134   3.755   0.626  18.645
  647TIP3   OH226135   3.458   0.558  17.478
  647TIP3    H126136   3.488   0.468  17.485
  647TIP3    H226137   3.525   0.602  17.426
  648TIP3   OH226138   3.526   0.575  18.040
  648TIP3    H126139   3.619   0.594  18.031
  648TIP3    H226140   3.506   0.593  18.131
  649TIP3   OH226141   3.509   0.664  18.300
  649TIP3    H126142   3.427   0.694  18.340
  649TIP3    H226143   3.561   0.744  18.290
  650TIP3   OH226144   1.952   0.477  18.655
  650TIP3    H126145   2.041   0.457  18.683
  650TIP3    H226146   1.902   0.397  18.673
  651TIP3   OH226147   3.808   0.094  18.834
  651TIP3    H126148   3.896   0.093  18.796
  651TIP3    H226149   3.757   0.148  18.775
  652TIP3   OH226150   3.525   0.296  17.490
  652TIP3    H126151   3.573   0.253  17.561
  652TIP3    H226152   3.445   0.243  17.480
  653TIP3   OH226153   2.053   0.361  17.985
  653TIP3    H126154   2.110   0.285  17.972
  653TIP3    H226155   2.113   0.434  17.999
  654TIP3   OH226156   1.910   0.646  18.051
  654TIP3    H126157   1.970   0.658  17.978
  654TIP3    H226158   1.961   0.671  18.128
  655TIP3   OH226159   3.678   0.256  18.661
  655TIP3    H126160   3.608   0.307  18.701
  655TIP3    H226161   3.641   0.223  18.579
  656TIP3   OH226162   1.938   0.250  17.454
  656TIP3    H126163   1.844   0.257  17.469
  656TIP3    H226164   1.957   0.319  17.390
  657TIP3   OH226165   1.942   0.158  18.292
  657TIP3    H126166   1.874   0.167  18.359
  657TIP3    H226167   1.908   0.207  18.216
  658TIP3   OH226168   2.145   1.457  18.700
  658TIP3    H126169   2.055   1.466  18.669
  658TIP3    H226170   2.154   1.364  18.721
  659TIP3   OH226171   2.460   1.578  18.347
  659TIP3    H126172   2.437   1.662  18.308
  659TIP3    H226173   2.555   1.571  18.334
  660TIP3   OH226174   2.846   1.703  18.610
  660TIP3    H126175   2.864   1.679  18.701
  660TIP3    H226176   2.925   1.749  18.581
  661TIP3   OH226177   3.081   1.841  18.560
  661TIP3    H126178   3.146   1.790  18.512
  661TIP3    H226179   3.125   1.864  18.642
  662TIP3   OH226180   3.610   0.128  18.422
  662TIP3    H126181   3.545   0.158  18.358
  662TIP3    H226182   3.583   0.040  18.445
  663TIP3   OH226183   2.165   1.850  18.332
  663TIP3    H126184   2.088   1.895  18.296
  663TIP3    H226185   2.183   1.897  18.414
  664TIP3   OH226186   2.430   1.829  18.245
  664TIP3    H126187   2.336   1.844  18.258
  664TIP3    H226188   2.450   1.878  18.165
  665TIP3   OH226189   2.881   1.790  18.173
  665TIP3    H126190   2.835   1.817  18.094
  665TIP3    H226191   2.905   1.872  18.217
  666TIP3   OH226192   3.109   1.659  18.267
  666TIP3    H126193   3.026   1.689  18.230
  666TIP3    H226194   3.172   1.726  18.242
  667TIP3   OH226195   3.347   1.835  18.272
  667TIP3    H126196   3.345   1.927  18.248
  667TIP3    H226197   3.384   1.791  18.196
  668TIP3   OH226198   2.140   1.713  18.011
  668TIP3    H126199   2.133   1.666  18.094
  668TIP3    H226200   2.223   1.683  17.973
  669TIP3   OH226201   2.358   1.595  17.900
  669TIP3    H126202   2.341   1.503  17.920
  669TIP3    H226203   2.443   1.613  17.939
  670TIP3   OH226204   2.588   1.574  18.041
  670TIP3    H126205   2.610   1.486  18.012
  670TIP3    H226206   2.640   1.587  18.121
  671TIP3   OH226207   2.965   0.271  17.898
  671TIP3    H126208   2.895   0.207  17.912
  671TIP3    H226209   3.032   0.223  17.849
  672TIP3   OH226210   3.437   0.127  17.887
  672TIP3    H126211   3.502   0.153  17.821
  672TIP3    H226212   3.353   0.147  17.847
  673TIP3   OH226213   3.641   0.145  17.691
  673TIP3    H126214   3.687   0.061  17.693
  673TIP3    H226215   3.709   0.210  17.709
  674TIP3   OH226216   2.163   0.129  17.643
  674TIP3    H126217   2.089   0.149  17.586
  674TIP3    H226218   2.167   0.034  17.645
  675TIP3   OH226219   2.121   0.081  17.340
  675TIP3    H126220   2.180   0.152  17.317
  675TIP3    H226221   2.043   0.124  17.375
  676TIP3   OH226222   2.634   0.097  17.660
  676TIP3    H126223   2.706   0.132  17.608
  676TIP3    H226224   2.658   0.117  17.750
  677TIP3   OH226225   3.180   0.147  17.770
  677TIP3    H126226   3.192   0.170  17.678
  677TIP3    H226227   3.174   0.051  17.770
  678TIP3   OH226228   3.313   0.130  17.445
  678TIP3    H126229   3.232   0.180  17.433
  678TIP3    H226230   3.290   0.042  17.415
  679TIP3   OH226231   2.017   1.676  17.347
  679TIP3    H126232   2.009   1.624  17.268
  679TIP3    H226233   2.030   1.766  17.316
  680TIP3   OH226234   2.745   0.274  17.324
  680TIP3    H126235   2.778   0.222  17.397
  680TIP3    H226236   2.730   0.361  17.361
  681TIP3   OH226237   2.134   0.083  18.655
  681TIP3    H126238   2.153  -0.004  18.620
  681TIP3    H226239   2.216   0.112  18.695
  682TIP3   OH226240   2.380   0.113  18.770
  682TIP3    H126241   2.464   0.142  18.734
  682TIP3    H226242   2.379   0.019  18.755
  683TIP3   OH226243   2.224   1.797  17.038
  683TIP3    H126244   2.181   1.846  17.108
  683TIP3    H226245   2.275   1.730  17.082
  684TIP3   OH226246   3.193   0.047  18.784
  684TIP3    H126247   3.148  -0.030  18.820
  684TIP3    H226248   3.269   0.011  18.740
  685TIP3   OH226249   3.512   1.597  18.664
  685TIP3    H126250   3.450   1.590  18.592
  685TIP3    H226251   3.505   1.688  18.694
  686TIP3   OH226252   4.959   0.981  17.643
  686TIP3    H126253   4.956   1.068  17.604
  686TIP3    H226254   4.887   0.980  17.707
  687TIP3   OH226255   4.802   0.880  18.055
  687TIP3    H126256   4.857   0.844  18.125
  687TIP3    H226257   4.769   0.803  18.008
  688TIP3   OH226258   4.073   0.882  18.168
  688TIP3    H126259   4.084   0.806  18.226
  688TIP3    H226260   4.162   0.902  18.139
  689TIP3   OH226261   4.170   1.316  17.969
  689TIP3    H126262   4.143   1.228  17.943
  689TIP3    H226263   4.264   1.319  17.950
  690TIP3   OH226264   3.842   0.629  17.519
  690TIP3    H126265   3.821   0.718  17.549
  690TIP3    H226266   3.793   0.619  17.438
  691TIP3   OH226267   3.912   0.917  17.800
  691TIP3    H126268   3.945   0.829  17.818
  691TIP3    H226269   3.990   0.972  17.804
  692TIP3   OH226270   4.840   1.141  17.978
  692TIP3    H126271   4.819   1.050  17.996
  692TIP3    H226272   4.769   1.191  18.018
  693TIP3   OH226273   5.576   0.299  18.108
  693TIP3    H126274   5.568   0.367  18.175
  693TIP3    H226275   5.635   0.337  18.043
  694TIP3   OH226276   5.039   0.585  18.077
  694TIP3    H126277   5.065   0.493  18.085
  694TIP3    H226278   5.015   0.596  17.986
  695TIP3   OH226279   4.359   0.386  17.796
  695TIP3    H126280   4.372   0.475  17.764
  695TIP3    H226281   4.312   0.342  17.726
  696TIP3   OH226282   5.124   0.433  17.649
  696TIP3    H126283   5.177   0.407  17.725
  696TIP3    H226284   5.185   0.480  17.593
  697TIP3   OH226285   4.004   0.665  17.871
  697TIP3    H126286   4.073   0.630  17.927
  697TIP3    H226287   4.023   0.630  17.784
  698TIP3   OH226288   4.491   0.795  17.835
  698TIP3    H126289   4.573   0.754  17.859
  698TIP3    H226290   4.450   0.732  17.775
  699TIP3   OH226291   5.576   0.461  18.332
  699TIP3    H126292   5.518   0.537  18.322
  699TIP3    H226293   5.611   0.469  18.421
  700TIP3   OH226294   4.211   0.328  18.209
  700TIP3    H126295   4.177   0.383  18.139
  700TIP3    H226296   4.145   0.334  18.279
  701TIP3   OH226297   4.930   1.228  17.528
  701TIP3    H126298   4.938   1.223  17.433
  701TIP3    H226299   4.918   1.321  17.546
  702TIP3   OH226300   4.438   1.055  18.242
  702TIP3    H126301   4.369   1.112  18.276
  702TIP3    H226302   4.506   1.115  18.212
  703TIP3   OH226303   5.280   0.397  17.869
  703TIP3    H126304   5.228   0.363  17.943
  703TIP3    H226305   5.348   0.450  17.911
  704TIP3   OH226306   4.190   0.499  17.991
  704TIP3    H126307   4.256   0.547  18.041
  704TIP3    H226308   4.239   0.456  17.921
  705TIP3   OH226309   4.286   1.268  18.310
  705TIP3    H126310   4.294   1.336  18.243
  705TIP3    H226311   4.204   1.287  18.355
  706TIP3   OH226312   3.879   1.227  17.374
  706TIP3    H126313   3.859   1.287  17.303
  706TIP3    H226314   3.911   1.283  17.445
  707TIP3   OH226315   5.280   1.407  18.072
  707TIP3    H126316   5.186   1.400  18.084
  707TIP3    H226317   5.294   1.493  18.034
  708TIP3   OH226318   5.333   0.197  18.220
  708TIP3    H126319   5.254   0.225  18.173
  708TIP3    H226320   5.405   0.212  18.158
  709TIP3   OH226321   4.623   0.112  17.920
  709TIP3    H126322   4.626   0.020  17.947
  709TIP3    H226323   4.549   0.149  17.969
  710TIP3   OH226324   5.158   1.574  17.658
  710TIP3    H126325   5.196   1.499  17.612
  710TIP3    H226326   5.183   1.650  17.605
  711TIP3   OH226327   5.397   1.236  18.447
  711TIP3    H126328   5.378   1.174  18.376
  711TIP3    H226329   5.398   1.321  18.404
  712TIP3   OH226330   4.812   0.869  17.347
  712TIP3    H126331   4.763   0.944  17.382
  712TIP3    H226332   4.898   0.905  17.325
  713TIP3   OH226333   4.907   0.742  17.097
  713TIP3    H126334   4.976   0.799  17.129
  713TIP3    H226335   4.925   0.732  17.004
  714TIP3   OH226336   5.570   0.901  18.259
  714TIP3    H126337   5.498   0.964  18.252
  714TIP3    H226338   5.621   0.915  18.179
  715TIP3   OH226339   5.161   0.755  18.434
  715TIP3    H126340   5.157   0.835  18.486
  715TIP3    H226341   5.091   0.764  18.369
  716TIP3   OH226342   4.339   0.991  17.680
  716TIP3    H126343   4.323   0.951  17.595
  716TIP3    H226344   4.404   0.934  17.721
  717TIP3   OH226345   4.438   1.330  17.910
  717TIP3    H126346   4.478   1.294  17.831
  717TIP3    H226347   4.499   1.306  17.980
  718TIP3   OH226348   4.333   0.892  18.048
  718TIP3    H126349   4.394   0.875  17.976
  718TIP3    H226350   4.381   0.952  18.105
  719TIP3   OH226351   5.018   1.433  18.124
  719TIP3    H126352   4.996   1.501  18.188
  719TIP3    H226353   4.988   1.351  18.164
  720TIP3   OH226354   4.491   1.313  18.506
  720TIP3    H126355   4.425   1.370  18.547
  720TIP3    H226356   4.455   1.294  18.419
  721TIP3   OH226357   5.106   0.918  17.255
  721TIP3    H126358   5.119   0.999  17.305
  721TIP3    H226359   5.170   0.925  17.184
  722TIP3   OH226360   4.171   0.868  18.482
  722TIP3    H126361   4.190   0.962  18.474
  722TIP3    H226362   4.093   0.865  18.538
  723TIP3   OH226363   4.291   1.483  18.606
  723TIP3    H126364   4.289   1.528  18.521
  723TIP3    H226365   4.199   1.474  18.630
  724TIP3   OH226366   5.473   0.112  17.283
  724TIP3    H126367   5.392   0.127  17.234
  724TIP3    H226368   5.531   0.184  17.256
  725TIP3   OH226369   4.286   0.874  17.419
  725TIP3    H126370   4.229   0.947  17.395
  725TIP3    H226371   4.241   0.797  17.386
  726TIP3   OH226372   3.842   1.140  18.342
  726TIP3    H126373   3.802   1.144  18.254
  726TIP3    H226374   3.863   1.047  18.355
  727TIP3   OH226375   3.858   1.415  18.008
  727TIP3    H126376   3.949   1.390  17.993
  727TIP3    H226377   3.860   1.471  18.085
  728TIP3   OH226378   5.664   1.498  18.621
  728TIP3    H126379   5.648   1.405  18.608
  728TIP3    H226380   5.578   1.535  18.640
  729TIP3   OH226381   4.751   1.417  18.508
  729TIP3    H126382   4.741   1.509  18.533
  729TIP3    H226383   4.661   1.387  18.493
  730TIP3   OH226384   5.079   1.736  17.119
  730TIP3    H126385   5.140   1.672  17.154
  730TIP3    H226386   5.067   1.800  17.189
  731TIP3   OH226387   5.337   0.633  18.649
  731TIP3    H126388   5.276   0.674  18.588
  731TIP3    H226389   5.343   0.542  18.620
  732TIP3   OH226390   4.047   1.296  18.434
  732TIP3    H126391   4.073   1.253  18.516
  732TIP3    H226392   3.973   1.246  18.402
  733TIP3   OH226393   4.386   0.214  18.023
  733TIP3    H126394   4.374   0.269  17.945
  733TIP3    H226395   4.325   0.250  18.087
  734TIP3   OH226396   4.760   0.178  18.406
  734TIP3    H126397   4.801   0.092  18.411
  734TIP3    H226398   4.677   0.162  18.362
  735TIP3   OH226399   5.098   0.475  18.452
  735TIP3    H126400   5.040   0.460  18.527
  735TIP3    H226401   5.106   0.571  18.447
  736TIP3   OH226402   4.703   0.479  17.141
  736TIP3    H126403   4.697   0.404  17.199
  736TIP3    H226404   4.634   0.465  17.076
  737TIP3   OH226405   4.360   0.636  18.157
  737TIP3    H126406   4.292   0.636  18.224
  737TIP3    H226407   4.360   0.726  18.123
  738TIP3   OH226408   4.354   0.625  17.664
  738TIP3    H126409   4.258   0.628  17.662
  738TIP3    H226410   4.378   0.605  17.573
  739TIP3   OH226411   4.911   0.659  17.507
  739TIP3    H126412   4.883   0.747  17.481
  739TIP3    H226413   4.983   0.638  17.447
  740TIP3   OH226414   4.805   0.693  18.674
  740TIP3    H126415   4.757   0.617  18.708
  740TIP3    H226416   4.890   0.689  18.717
  741TIP3   OH226417   4.987   0.621  17.805
  741TIP3    H126418   4.965   0.686  17.739
  741TIP3    H226419   5.018   0.545  17.755
  742TIP3   OH226420   4.132   0.643  18.314
  742TIP3    H126421   4.135   0.700  18.391
  742TIP3    H226422   4.086   0.564  18.345
  743TIP3   OH226423   4.448   0.418  17.028
  743TIP3    H126424   4.358   0.389  17.020
  743TIP3    H226425   4.490   0.389  16.947
  744TIP3   OH226426   3.829   0.343  17.712
  744TIP3    H126427   3.861   0.358  17.801
  744TIP3    H226428   3.825   0.430  17.672
  745TIP3   OH226429   4.931   0.744  18.268
  745TIP3    H126430   4.971   0.686  18.203
  745TIP3    H226431   4.871   0.688  18.316
  746TIP3   OH226432   4.632   0.396  17.700
  746TIP3    H126433   4.546   0.381  17.739
  746TIP3    H226434   4.694   0.386  17.772
  747TIP3   OH226435   4.085   0.556  17.635
  747TIP3    H126436   4.011   0.576  17.578
  747TIP3    H226437   4.120   0.473  17.601
  748TIP3   OH226438   4.395   0.552  17.400
  748TIP3    H126439   4.489   0.563  17.388
  748TIP3    H226440   4.356   0.592  17.321
  749TIP3   OH226441   5.107   0.301  18.057
  749TIP3    H126442   5.047   0.300  18.131
  749TIP3    H226443   5.062   0.251  17.989
  750TIP3   OH226444   4.255   0.651  17.185
  750TIP3    H126445   4.164   0.640  17.156
  750TIP3    H226446   4.303   0.673  17.105
  751TIP3   OH226447   5.373   1.879  18.718
  751TIP3    H126448   5.392   1.916  18.632
  751TIP3    H226449   5.442   1.913  18.774
  752TIP3   OH226450   4.116   1.151  18.668
  752TIP3    H126451   4.191   1.138  18.726
  752TIP3    H226452   4.042   1.114  18.716
  753TIP3   OH226453   4.722   0.644  17.926
  753TIP3    H126454   4.804   0.615  17.885
  753TIP3    H226455   4.703   0.576  17.990
  754TIP3   OH226456   4.216   0.315  17.572
  754TIP3    H126457   4.168   0.234  17.591
  754TIP3    H226458   4.262   0.297  17.490
  755TIP3   OH226459   4.616   0.518  18.175
  755TIP3    H126460   4.541   0.577  18.170
  755TIP3    H226461   4.668   0.551  18.248
  756TIP3   OH226462   5.374   1.091  18.212
  756TIP3    H126463   5.422   1.145  18.150
  756TIP3    H226464   5.282   1.113  18.197
  757TIP3   OH226465   4.996   0.434  17.135
  757TIP3    H126466   4.906   0.462  17.119
  757TIP3    H226467   5.038   0.509  17.177
  758TIP3   OH226468   4.849   1.159  18.486
  758TIP3    H126469   4.803   1.109  18.554
  758TIP3    H226470   4.813   1.247  18.493
  759TIP3   OH226471   5.109   0.624  17.314
  759TIP3    H126472   5.186   0.596  17.362
  759TIP3    H226473   5.124   0.717  17.297
  760TIP3   OH226474   4.154   1.044  17.880
  760TIP3    H126475   4.212   1.045  17.803
  760TIP3    H226476   4.202   0.992  17.945
  761TIP3   OH226477   3.855   0.878  18.467
  761TIP3    H126478   3.835   0.820  18.541
  761TIP3    H226479   3.791   0.854  18.400
  762TIP3   OH226480   4.587   0.865  18.658
  762TIP3    H126481   4.528   0.821  18.597
  762TIP3    H226482   4.670   0.819  18.649
  763TIP3   OH226483   5.039   1.430  18.482
  763TIP3    H126484   4.949   1.416  18.452
  763TIP3    H226485   5.030   1.448  18.576
  764TIP3   OH226486   5.619   0.609  17.319
  764TIP3    H126487   5.549   0.561  17.275
  764TIP3    H226488   5.604   0.701  17.294
  765TIP3   OH226489   5.628   1.217  18.580
  765TIP3    H126490   5.537   1.228  18.553
  765TIP3    H226491   5.675   1.196  18.499
  766TIP3   OH226492   4.532   1.237  17.659
  766TIP3    H126493   4.555   1.281  17.577
  766TIP3    H226494   4.462   1.177  17.636
  767TIP3   OH226495   4.571   1.563  18.261
  767TIP3    H126496   4.657   1.606  18.264
  767TIP3    H226497   4.590   1.474  18.233
  768TIP3   OH226498   4.968   1.183  18.230
  768TIP3    H126499   4.910   1.170  18.305
  768TIP3    H226500   4.914   1.163  18.154
  769TIP3   OH226501   5.228   1.626  18.449
  769TIP3    H126502   5.153   1.566  18.449
  769TIP3    H226503   5.208   1.689  18.381
  770TIP3   OH226504   5.637   1.780  17.222
  770TIP3    H126505   5.614   1.840  17.152
  770TIP3    H226506   5.558   1.727  17.236
  771TIP3   OH226507   4.005   0.386  18.389
  771TIP3    H126508   3.949   0.421  18.458
  771TIP3    H226509   3.956   0.311  18.355
  772TIP3   OH226510   3.983   1.530  18.249
  772TIP3    H126511   4.035   1.452  18.270
  772TIP3    H226512   3.970   1.573  18.334
  773TIP3   OH226513   4.109   1.066  17.337
  773TIP3    H126514   4.019   1.090  17.360
  773TIP3    H226515   4.134   1.130  17.270
  774TIP3   OH226516   4.956   0.318  18.276
  774TIP3    H126517   5.003   0.371  18.340
  774TIP3    H226518   4.885   0.277  18.326
  775TIP3   OH226519   4.982   0.326  17.435
  775TIP3    H126520   5.001   0.380  17.357
  775TIP3    H226521   5.027   0.371  17.506
  776TIP3   OH226522   4.672   0.531  17.462
  776TIP3    H126523   4.757   0.571  17.479
  776TIP3    H226524   4.646   0.494  17.547
  777TIP3   OH226525   4.777   0.572  18.420
  777TIP3    H126526   4.779   0.626  18.499
  777TIP3    H226527   4.793   0.483  18.451
  778TIP3   OH226528   4.773   0.200  17.553
  778TIP3    H126529   4.743   0.271  17.611
  778TIP3    H226530   4.852   0.234  17.513
  779TIP3   OH226531   4.345   0.283  17.332
  779TIP3    H126532   4.347   0.378  17.333
  779TIP3    H226533   4.434   0.258  17.307
  780TIP3   OH226534   5.353   0.398  18.507
  780TIP3    H126535   5.261   0.403  18.480
  780TIP3    H226536   5.399   0.371  18.427
  781TIP3   OH226537   5.249   0.726  17.873
  781TIP3    H126538   5.161   0.690  17.870
  781TIP3    H226539   5.296   0.669  17.934
  782TIP3   OH226540   4.209   1.260  17.156
  782TIP3    H126541   4.280   1.297  17.208
  782TIP3    H226542   4.248   1.185  17.111
  783TIP3   OH226543   4.002   0.613  17.050
  783TIP3    H126544   3.975   0.705  17.054
  783TIP3    H226545   4.013   0.596  16.957
  784TIP3   OH226546   5.350   1.682  18.014
  784TIP3    H126547   5.342   1.673  17.919
  784TIP3    H226548   5.445   1.682  18.030
  785TIP3   OH226549   4.098   0.163  17.918
  785TIP3    H126550   4.097   0.155  17.823
  785TIP3    H226551   4.085   0.073  17.949
  786TIP3   OH226552   3.947   1.447  17.523
  786TIP3    H126553   3.959   1.499  17.602
  786TIP3    H226554   3.934   1.511  17.453
  787TIP3   OH226555   3.910   1.764  18.700
  787TIP3    H126556   3.973   1.741  18.768
  787TIP3    H226557   3.878   1.680  18.667
  788TIP3   OH226558   4.355   1.631  18.833
  788TIP3    H126559   4.443   1.602  18.858
  788TIP3    H226560   4.336   1.583  18.752
  789TIP3   OH226561   5.014   1.495  18.749
  789TIP3    H126562   4.990   1.411  18.787
  789TIP3    H226563   5.094   1.521  18.794
  790TIP3   OH226564   3.871   1.125  18.804
  790TIP3    H126565   3.816   1.055  18.839
  790TIP3    H226566   3.822   1.159  18.730
  791TIP3   OH226567   4.555   1.142  18.710
  791TIP3    H126568   4.540   1.188  18.628
  791TIP3    H226569   4.571   1.051  18.684
  792TIP3   OH226570   5.122   1.113  18.498
  792TIP3    H126571   5.167   1.196  18.485
  792TIP3    H226572   5.030   1.131  18.481
  793TIP3   OH226573   4.046   0.815  18.751
  793TIP3    H126574   4.131   0.771  18.760
  793TIP3    H226575   4.033   0.857  18.836
  794TIP3   OH226576   4.508   0.837  17.239
  794TIP3    H126577   4.447   0.843  17.313
  794TIP3    H226578   4.473   0.897  17.174
  795TIP3   OH226579   4.421   0.737  18.471
  795TIP3    H126580   4.340   0.787  18.463
  795TIP3    H226581   4.478   0.772  18.403
  796TIP3   OH226582   4.916   1.005  18.795
  796TIP3    H126583   4.991   0.963  18.753
  796TIP3    H226584   4.880   0.938  18.853
  797TIP3   OH226585   4.451   0.489  18.576
  797TIP3    H126586   4.454   0.428  18.502
  797TIP3    H226587   4.447   0.576  18.535
  798TIP3   OH226588   4.455   0.354  18.333
  798TIP3    H126589   4.512   0.401  18.272
  798TIP3    H226590   4.368   0.358  18.292
  799TIP3   OH226591   4.607   0.852  18.308
  799TIP3    H126592   4.695   0.876  18.279
  799TIP3    H226593   4.553   0.928  18.287
  800TIP3   OH226594   5.040   0.637  18.836
  800TIP3    H126595   5.056   0.544  18.824
  800TIP3    H226596   5.125   0.678  18.823
  801TIP3   OH226597   5.189   0.932  18.682
  801TIP3    H126598   5.157   1.002  18.625
  801TIP3    H226599   5.283   0.926  18.664
  802TIP3   OH226600   4.268   0.566  18.773
  802TIP3    H126601   4.191   0.512  18.756
  802TIP3    H226602   4.325   0.552  18.698
  803TIP3   OH226603   4.502   0.090  18.320
  803TIP3    H126604   4.487   0.183  18.336
  803TIP3    H226605   4.439   0.066  18.252
  804TIP3   OH226606   4.672   0.465  18.743
  804TIP3    H126607   4.642   0.433  18.828
  804TIP3    H226608   4.594   0.463  18.688
  805TIP3   OH226609   4.932   0.409  18.655
  805TIP3    H126610   4.843   0.408  18.691
  805TIP3    H226611   4.984   0.357  18.716
  806TIP3   OH226612   5.119   0.319  18.848
  806TIP3    H126613   5.120   0.224  18.836
  806TIP3    H226614   5.083   0.332  18.935
  807TIP3   OH226615   4.063   0.376  18.748
  807TIP3    H126616   4.054   0.294  18.700
  807TIP3    H226617   4.077   0.350  18.838
  808TIP3   OH226618   4.510   0.062  18.628
  808TIP3    H126619   4.505  -0.034  18.626
  808TIP3    H226620   4.531   0.087  18.539
  809TIP3   OH226621   4.597   0.146  18.873
  809TIP3    H126622   4.584   0.112  18.784
  809TIP3    H226623   4.534   0.217  18.881
  810TIP3   OH226624   3.902   1.625  17.806
  810TIP3    H126625   3.850   1.552  17.840
  810TIP3    H226626   3.933   1.671  17.884
  811TIP3   OH226627   5.620   1.703  18.078
  811TIP3    H126628   5.606   1.716  18.172
  811TIP3    H226629   5.709   1.736  18.063
  812TIP3   OH226630   5.561   1.693  18.351
  812TIP3    H126631   5.509   1.615  18.333
  812TIP3    H226632   5.610   1.672  18.430
  813TIP3   OH226633   5.427   1.248  18.876
  813TIP3    H126634   5.338   1.257  18.912
  813TIP3    H226635   5.475   1.321  18.914
  814TIP3   OH226636   5.564   1.201  18.044
  814TIP3    H126637   5.634   1.136  18.039
  814TIP3    H226638   5.609   1.285  18.031
  815TIP3   OH226639   5.405   1.472  18.306
  815TIP3    H126640   5.334   1.518  18.351
  815TIP3    H226641   5.367   1.444  18.223
  816TIP3   OH226642   5.573   0.875  17.269
  816TIP3    H126643   5.516   0.909  17.200
  816TIP3    H226644   5.586   0.949  17.328
  817TIP3   OH226645   3.844   0.980  18.058
  817TIP3    H126646   3.853   0.960  17.965
  817TIP3    H226647   3.929   0.958  18.096
  818TIP3   OH226648   5.457   0.946  18.616
  818TIP3    H126649   5.515   0.871  18.600
  818TIP3    H226650   5.497   1.018  18.567
  819TIP3   OH226651   5.599   0.712  18.616
  819TIP3    H126652   5.511   0.680  18.633
  819TIP3    H226653   5.655   0.635  18.620
  820TIP3   OH226654   5.316   0.548  17.479
  820TIP3    H126655   5.353   0.460  17.482
  820TIP3    H226656   5.382   0.604  17.519
  821TIP3   OH226657   5.413   0.575  18.040
  821TIP3    H126658   5.505   0.602  18.031
  821TIP3    H226659   5.392   0.593  18.132
  822TIP3   OH226660   5.409   0.676  18.304
  822TIP3    H126661   5.326   0.706  18.343
  822TIP3    H226662   5.460   0.756  18.292
  823TIP3   OH226663   3.842   0.469  18.616
  823TIP3    H126664   3.921   0.455  18.668
  823TIP3    H226665   3.785   0.396  18.639
  824TIP3   OH226666   5.696   0.096  18.828
  824TIP3    H126667   5.781   0.090  18.785
  824TIP3    H226668   5.645   0.155  18.772
  825TIP3   OH226669   5.418   0.301  17.514
  825TIP3    H126670   5.446   0.263  17.597
  825TIP3    H226671   5.354   0.239  17.479
  826TIP3   OH226672   3.931   0.369  17.968
  826TIP3    H126673   3.987   0.291  17.962
  826TIP3    H226674   3.992   0.440  17.987
  827TIP3   OH226675   3.789   0.649  18.047
  827TIP3    H126676   3.856   0.653  17.979
  827TIP3    H226677   3.825   0.700  18.120
  828TIP3   OH226678   5.564   0.272  18.670
  828TIP3    H126679   5.493   0.313  18.718
  828TIP3    H226680   5.522   0.235  18.592
  829TIP3   OH226681   5.639   0.287  17.145
  829TIP3    H126682   5.655   0.202  17.106
  829TIP3    H226683   5.630   0.347  17.070
  830TIP3   OH226684   3.843   0.182  18.287
  830TIP3    H126685   3.770   0.178  18.349
  830TIP3    H226686   3.805   0.223  18.209
  831TIP3   OH226687   4.030   1.454  18.699
  831TIP3    H126688   3.941   1.463  18.664
  831TIP3    H226689   4.035   1.362  18.726
  832TIP3   OH226690   4.319   1.600  18.358
  832TIP3    H126691   4.299   1.683  18.314
  832TIP3    H226692   4.409   1.581  18.332
  833TIP3   OH226693   4.737   1.685  18.598
  833TIP3    H126694   4.747   1.667  18.692
  833TIP3    H226695   4.815   1.734  18.575
  834TIP3   OH226696   4.971   1.828  18.565
  834TIP3    H126697   5.036   1.765  18.535
  834TIP3    H226698   5.004   1.859  18.649
  835TIP3   OH226699   5.488   0.132  18.438
  835TIP3    H126700   5.425   0.157  18.370
  835TIP3    H226701   5.469   0.040  18.456
  836TIP3   OH226702   4.056   1.876  18.335
  836TIP3    H126703   3.973   1.912  18.304
  836TIP3    H226704   4.060   1.900  18.427
  837TIP3   OH226705   4.303   1.905  18.215
  837TIP3    H126706   4.219   1.872  18.246
  837TIP3    H226707   4.290   2.000  18.209
  838TIP3   OH226708   4.780   1.814  18.155
  838TIP3    H126709   4.716   1.858  18.098
  838TIP3    H226710   4.798   1.878  18.224
  839TIP3   OH226711   4.984   1.668  18.265
  839TIP3    H126712   4.907   1.711  18.230
  839TIP3    H226713   5.056   1.730  18.249
  840TIP3   OH226714   5.224   1.807  18.233
  840TIP3    H126715   5.240   1.900  18.219
  840TIP3    H226716   5.263   1.764  18.158
  841TIP3   OH226717   4.015   1.716  18.044
  841TIP3    H126718   3.993   1.676  18.128
  841TIP3    H226719   4.099   1.677  18.020
  842TIP3   OH226720   4.243   1.586  17.968
  842TIP3    H126721   4.199   1.501  17.958
  842TIP3    H226722   4.336   1.563  17.975
  843TIP3   OH226723   4.816   0.304  17.877
  843TIP3    H126724   4.756   0.236  17.908
  843TIP3    H226725   4.896   0.257  17.853
  844TIP3   OH226726   5.331   0.103  17.903
  844TIP3    H126727   5.404   0.137  17.852
  844TIP3    H226728   5.256   0.158  17.879
  845TIP3   OH226729   5.532   0.169  17.729
  845TIP3    H126730   5.587   0.102  17.690
  845TIP3    H226731   5.588   0.246  17.737
  846TIP3   OH226732   4.062   0.106  17.649
  846TIP3    H126733   3.971   0.125  17.628
  846TIP3    H226734   4.067   0.011  17.653
  847TIP3   OH226735   4.557   0.066  17.655
  847TIP3    H126736   4.628   0.104  17.602
  847TIP3    H226737   4.576   0.095  17.744
  848TIP3   OH226738   5.045   0.160  17.812
  848TIP3    H126739   5.065   0.189  17.723
  848TIP3    H226740   5.049   0.065  17.808
  849TIP3   OH226741   5.201   0.142  17.452
  849TIP3    H126742   5.123   0.183  17.416
  849TIP3    H226743   5.204   0.056  17.410
  850TIP3   OH226744   3.881   1.642  17.323
  850TIP3    H126745   3.821   1.668  17.253
  850TIP3    H226746   3.863   1.703  17.395
  851TIP3   OH226747   4.633   0.287  17.333
  851TIP3    H126748   4.676   0.228  17.394
  851TIP3    H226749   4.634   0.372  17.377
  852TIP3   OH226750   4.031   0.103  18.674
  852TIP3    H126751   4.025   0.023  18.622
  852TIP3    H226752   4.118   0.099  18.713
  853TIP3   OH226753   4.276   0.092  18.791
  853TIP3    H126754   4.357   0.120  18.747
  853TIP3    H226755   4.269  -0.002  18.770
  854TIP3   OH226756   4.086   1.718  17.074
  854TIP3    H126757   4.056   1.703  17.164
  854TIP3    H226758   4.167   1.768  17.083
  855TIP3   OH226759   5.121   0.050  18.824
  855TIP3    H126760   5.056  -0.017  18.845
  855TIP3    H226761   5.192   0.003  18.780
  856TIP3   OH226762   5.417   1.612  18.653
  856TIP3    H126763   5.351   1.603  18.585
  856TIP3    H226764   5.402   1.700  18.689
  857TIP3   OH226765   6.854   0.993  17.652
  857TIP3    H126766   6.851   1.088  17.659
  857TIP3    H226767   6.809   0.973  17.570
  858TIP3   OH226768   6.758   0.894  18.026
  858TIP3    H126769   6.778   0.845  18.105
  858TIP3    H226770   6.669   0.927  18.040
  859TIP3   OH226771   5.951   0.853  18.155
  859TIP3    H126772   5.962   0.786  18.222
  859TIP3    H226773   6.040   0.874  18.127
  860TIP3   OH226774   7.128   1.220  17.864
  860TIP3    H126775   7.089   1.145  17.908
  860TIP3    H226776   7.145   1.283  17.934
  861TIP3   OH226777   6.097   1.348  17.988
  861TIP3    H126778   6.059   1.266  17.958
  861TIP3    H226779   6.192   1.334  17.984
  862TIP3   OH226780   5.762   0.696  17.543
  862TIP3    H126781   5.696   0.733  17.602
  862TIP3    H226782   5.711   0.659  17.471
  863TIP3   OH226783   5.769   0.901  17.791
  863TIP3    H126784   5.812   0.819  17.813
  863TIP3    H226785   5.831   0.947  17.735
  864TIP3   OH226786   6.825   1.763  17.865
  864TIP3    H126787   6.867   1.691  17.818
  864TIP3    H226788   6.770   1.719  17.930
  865TIP3   OH226789   6.582   1.173  18.055
  865TIP3    H126790   6.632   1.163  17.973
  865TIP3    H226791   6.650   1.182  18.122
  866TIP3   OH226792   7.445   0.317  18.119
  866TIP3    H126793   7.478   0.391  18.170
  866TIP3    H226794   7.455   0.346  18.028
  867TIP3   OH226795   6.219   0.389  17.788
  867TIP3    H126796   6.249   0.470  17.746
  867TIP3    H226797   6.190   0.334  17.716
  868TIP3   OH226798   5.895   0.666  17.860
  868TIP3    H126799   5.959   0.628  17.920
  868TIP3    H226800   5.909   0.619  17.778
  869TIP3   OH226801   6.350   0.795  17.839
  869TIP3    H126802   6.436   0.756  17.858
  869TIP3    H226803   6.307   0.731  17.783
  870TIP3   OH226804   7.505   0.466  18.357
  870TIP3    H126805   7.434   0.527  18.337
  870TIP3    H226806   7.484   0.433  18.445
  871TIP3   OH226807   6.097   0.329  18.214
  871TIP3    H126808   6.057   0.382  18.145
  871TIP3    H226809   6.032   0.328  18.284
  872TIP3   OH226810   6.801   1.256  17.606
  872TIP3    H126811   6.799   1.264  17.510
  872TIP3    H226812   6.757   1.335  17.637
  873TIP3   OH226813   6.358   1.080  18.192
  873TIP3    H126814   6.303   1.150  18.227
  873TIP3    H226815   6.430   1.125  18.149
  874TIP3   OH226816   6.074   0.501  17.992
  874TIP3    H126817   6.142   0.544  18.043
  874TIP3    H226818   6.121   0.457  17.921
  875TIP3   OH226819   6.208   1.291  18.282
  875TIP3    H126820   6.196   1.366  18.223
  875TIP3    H226821   6.127   1.286  18.332
  876TIP3   OH226822   5.814   1.229  17.368
  876TIP3    H126823   5.749   1.263  17.306
  876TIP3    H226824   5.834   1.304  17.424
  877TIP3   OH226825   7.163   1.420  18.065
  877TIP3    H126826   7.069   1.422  18.084
  877TIP3    H226827   7.184   1.509  18.038
  878TIP3   OH226828   7.222   0.181  18.220
  878TIP3    H126829   7.153   0.174  18.154
  878TIP3    H226830   7.294   0.225  18.176
  879TIP3   OH226831   6.488   0.103  17.891
  879TIP3    H126832   6.501   0.015  17.927
  879TIP3    H226833   6.422   0.142  17.948
  880TIP3   OH226834   6.967   1.577  17.714
  880TIP3    H126835   7.004   1.490  17.698
  880TIP3    H226836   7.034   1.637  17.681
  881TIP3   OH226837   7.117   1.366  17.625
  881TIP3    H126838   7.130   1.314  17.546
  881TIP3    H226839   7.125   1.303  17.697
  882TIP3   OH226840   7.258   1.208  18.420
  882TIP3    H126841   7.255   1.155  18.340
  882TIP3    H226842   7.270   1.297  18.389
  883TIP3   OH226843   7.418   0.862  18.219
  883TIP3    H126844   7.354   0.932  18.207
  883TIP3    H226845   7.481   0.874  18.148
  884TIP3   OH226846   7.064   0.919  17.483
  884TIP3    H126847   7.006   0.955  17.550
  884TIP3    H226848   7.131   0.872  17.532
  885TIP3   OH226849   7.055   0.755  18.434
  885TIP3    H126850   7.039   0.821  18.501
  885TIP3    H226851   7.001   0.784  18.359
  886TIP3   OH226852   6.220   0.998  17.695
  886TIP3    H126853   6.184   0.962  17.614
  886TIP3    H226854   6.269   0.926  17.733
  887TIP3   OH226855   6.375   1.342  17.959
  887TIP3    H126856   6.383   1.335  17.864
  887TIP3    H226857   6.444   1.286  17.993
  888TIP3   OH226858   6.208   0.894  18.057
  888TIP3    H126859   6.261   0.872  17.980
  888TIP3    H226860   6.260   0.960  18.103
  889TIP3   OH226861   6.905   1.426  18.150
  889TIP3    H126862   6.881   1.499  18.207
  889TIP3    H226863   6.855   1.351  18.184
  890TIP3   OH226864   6.371   1.327  18.504
  890TIP3    H126865   6.310   1.381  18.555
  890TIP3    H226866   6.324   1.310  18.422
  891TIP3   OH226867   6.047   0.910  18.474
  891TIP3    H126868   6.058   0.993  18.521
  891TIP3    H226869   5.953   0.892  18.479
  892TIP3   OH226870   6.705   1.518  17.637
  892TIP3    H126871   6.793   1.544  17.664
  892TIP3    H226872   6.702   1.536  17.543
  893TIP3   OH226873   6.183   1.498  18.611
  893TIP3    H126874   6.180   1.535  18.523
  893TIP3    H226875   6.092   1.484  18.635
  894TIP3   OH226876   7.317   0.068  17.258
  894TIP3    H126877   7.243   0.115  17.296
  894TIP3    H226878   7.373   0.137  17.222
  895TIP3   OH226879   6.099   0.907  17.459
  895TIP3    H126880   6.088   0.979  17.396
  895TIP3    H226881   6.011   0.871  17.469
  896TIP3   OH226882   5.766   1.136  18.354
  896TIP3    H126883   5.740   1.122  18.263
  896TIP3    H226884   5.779   1.047  18.389
  897TIP3   OH226885   5.713   1.438  18.015
  897TIP3    H126886   5.799   1.435  18.057
  897TIP3    H226887   5.670   1.515  18.052
  898TIP3   OH226888   7.535   1.488  18.602
  898TIP3    H126889   7.536   1.393  18.595
  898TIP3    H226890   7.450   1.509  18.640
  899TIP3   OH226891   6.621   1.435  18.489
  899TIP3    H126892   6.620   1.520  18.535
  899TIP3    H226893   6.532   1.402  18.499
  900TIP3   OH226894   6.748   1.823  17.479
  900TIP3    H126895   6.678   1.759  17.460
  900TIP3    H226896   6.703   1.894  17.524
  901TIP3   OH226897   6.045   1.682  17.667
  901TIP3    H126898   6.074   1.654  17.754
  901TIP3    H226899   5.962   1.637  17.654
  902TIP3   OH226900   6.966   1.809  17.170
  902TIP3    H126901   7.031   1.810  17.100
  902TIP3    H226902   6.934   1.719  17.173
  903TIP3   OH226903   6.992   1.698  17.448
  903TIP3    H126904   6.907   1.740  17.460
  903TIP3    H226905   6.972   1.604  17.451
  904TIP3   OH226906   7.218   0.631  18.640
  904TIP3    H126907   7.156   0.667  18.576
  904TIP3    H226908   7.236   0.543  18.609
  905TIP3   OH226909   5.975   1.299  18.424
  905TIP3    H126910   5.993   1.270  18.514
  905TIP3    H226911   5.899   1.248  18.397
  906TIP3   OH226912   6.260   0.212  18.018
  906TIP3    H126913   6.243   0.264  17.940
  906TIP3    H226914   6.201   0.248  18.084
  907TIP3   OH226915   6.663   0.169  18.369
  907TIP3    H126916   6.700   0.082  18.382
  907TIP3    H226917   6.570   0.154  18.351
  908TIP3   OH226918   7.003   0.480  18.453
  908TIP3    H126919   6.940   0.459  18.522
  908TIP3    H226920   7.001   0.575  18.447
  909TIP3   OH226921   6.240   0.639  18.162
  909TIP3    H126922   6.173   0.632  18.230
  909TIP3    H226923   6.235   0.730  18.133
  910TIP3   OH226924   6.227   0.640  17.652
  910TIP3    H126925   6.136   0.611  17.649
  910TIP3    H226926   6.245   0.674  17.564
  911TIP3   OH226927   6.692   0.691  18.665
  911TIP3    H126928   6.644   0.615  18.699
  911TIP3    H226929   6.777   0.687  18.709
  912TIP3   OH226930   6.012   0.631  18.323
  912TIP3    H126931   6.019   0.675  18.407
  912TIP3    H226932   5.968   0.548  18.342
  913TIP3   OH226933   6.323   0.408  17.032
  913TIP3    H126934   6.303   0.356  17.110
  913TIP3    H226935   6.402   0.368  16.995
  914TIP3   OH226936   5.703   0.381  17.735
  914TIP3    H126937   5.742   0.393  17.821
  914TIP3    H226938   5.777   0.360  17.678
  915TIP3   OH226939   5.844   0.429  17.348
  915TIP3    H126940   5.867   0.374  17.273
  915TIP3    H226941   5.769   0.481  17.318
  916TIP3   OH226942   6.827   0.736  18.241
  916TIP3    H126943   6.864   0.654  18.208
  916TIP3    H226944   6.756   0.708  18.298
  917TIP3   OH226945   5.974   0.544  17.616
  917TIP3    H126946   5.898   0.590  17.579
  917TIP3    H226947   5.985   0.467  17.561
  918TIP3   OH226948   7.268   1.848  18.726
  918TIP3    H126949   7.291   1.886  18.642
  918TIP3    H226950   7.345   1.862  18.781
  919TIP3   OH226951   6.015   1.143  18.665
  919TIP3    H126952   6.082   1.134  18.732
  919TIP3    H226953   5.933   1.120  18.710
  920TIP3   OH226954   6.115   0.281  17.552
  920TIP3    H126955   6.040   0.235  17.589
  920TIP3    H226956   6.147   0.224  17.482
  921TIP3   OH226957   6.493   0.523  18.178
  921TIP3    H126958   6.414   0.578  18.173
  921TIP3    H226959   6.545   0.561  18.249
  922TIP3   OH226960   6.494   1.154  17.369
  922TIP3    H126961   6.492   1.059  17.359
  922TIP3    H226962   6.477   1.168  17.463
  923TIP3   OH226963   7.244   1.071  18.182
  923TIP3    H126964   7.304   1.121  18.127
  923TIP3    H226965   7.171   1.051  18.123
  924TIP3   OH226966   6.672   1.150  18.485
  924TIP3    H126967   6.678   1.113  18.573
  924TIP3    H226968   6.650   1.242  18.499
  925TIP3   OH226969   6.054   1.090  17.896
  925TIP3    H126970   6.106   1.070  17.818
  925TIP3    H226971   6.072   1.017  17.956
  926TIP3   OH226972   6.727   1.312  17.350
  926TIP3    H126973   6.701   1.395  17.310
  926TIP3    H226974   6.654   1.253  17.332
  927TIP3   OH226975   5.764   0.881  18.462
  927TIP3    H126976   5.738   0.830  18.539
  927TIP3    H226977   5.695   0.866  18.398
  928TIP3   OH226978   6.467   0.860  18.646
  928TIP3    H126979   6.403   0.816  18.590
  928TIP3    H226980   6.547   0.808  18.637
  929TIP3   OH226981   6.901   1.392  18.486
  929TIP3    H126982   6.808   1.404  18.467
  929TIP3    H226983   6.912   1.425  18.575
  930TIP3   OH226984   7.526   0.608  17.298
  930TIP3    H126985   7.481   0.557  17.231
  930TIP3    H226986   7.583   0.667  17.249
  931TIP3   OH226987   7.488   1.212  18.568
  931TIP3    H126988   7.398   1.227  18.541
  931TIP3    H226989   7.533   1.185  18.488
  932TIP3   OH226990   7.302   1.446  17.327
  932TIP3    H126991   7.249   1.374  17.361
  932TIP3    H226992   7.346   1.411  17.250
  933TIP3   OH226993   7.036   0.983  18.011
  933TIP3    H126994   6.940   0.976  18.007
  933TIP3    H226995   7.068   0.906  17.964
  934TIP3   OH226996   6.275   1.425  17.654
  934TIP3    H126997   6.305   1.512  17.629
  934TIP3    H226998   6.181   1.425  17.633
  935TIP3   OH226999   6.408   1.188  17.626
  935TIP3    H127000   6.369   1.275  17.632
  935TIP3    H227001   6.339   1.129  17.655
  936TIP3   OH227002   6.498   1.596  18.279
  936TIP3    H127003   6.556   1.668  18.254
  936TIP3    H227004   6.551   1.542  18.337
  937TIP3   OH227005   6.298   1.693  17.566
  937TIP3    H127006   6.207   1.701  17.594
  937TIP3    H227007   6.342   1.769  17.604
  938TIP3   OH227008   6.790   1.178  18.239
  938TIP3    H127009   6.751   1.164  18.325
  938TIP3    H227010   6.874   1.132  18.243
  939TIP3   OH227011   7.102   1.616  18.448
  939TIP3    H127012   7.020   1.570  18.434
  939TIP3    H227013   7.100   1.690  18.386
  940TIP3   OH227014   5.893   0.374  18.395
  940TIP3    H127015   5.840   0.410  18.466
  940TIP3    H227016   5.843   0.297  18.365
  941TIP3   OH227017   7.171   1.213  17.394
  941TIP3    H127018   7.112   1.152  17.349
  941TIP3    H227019   7.256   1.168  17.393
  942TIP3   OH227020   5.901   1.551  18.249
  942TIP3    H127021   5.929   1.471  18.293
  942TIP3    H227022   5.912   1.619  18.315
  943TIP3   OH227023   6.409   1.375  17.226
  943TIP3    H127024   6.425   1.303  17.288
  943TIP3    H227025   6.395   1.451  17.282
  944TIP3   OH227026   6.026   1.092  17.259
  944TIP3    H127027   5.950   1.134  17.301
  944TIP3    H227028   6.043   1.145  17.182
  945TIP3   OH227029   6.804   0.387  18.283
  945TIP3    H127030   6.884   0.385  18.336
  945TIP3    H227031   6.756   0.309  18.309
  946TIP3   OH227032   6.653   1.592  17.315
  946TIP3    H127033   6.558   1.601  17.311
  946TIP3    H227034   6.680   1.573  17.225
  947TIP3   OH227035   6.655   0.597  18.400
  947TIP3    H127036   6.666   0.615  18.493
  947TIP3    H227037   6.696   0.512  18.386
  948TIP3   OH227038   6.383   1.640  17.316
  948TIP3    H127039   6.302   1.646  17.265
  948TIP3    H227040   6.357   1.658  17.406
  949TIP3   OH227041   6.273   0.279  17.272
  949TIP3    H127042   6.280   0.331  17.352
  949TIP3    H227043   6.348   0.219  17.276
  950TIP3   OH227044   7.257   0.397  18.501
  950TIP3    H127045   7.168   0.416  18.471
  950TIP3    H227046   7.279   0.314  18.458
  951TIP3   OH227047   7.090   0.724  17.891
  951TIP3    H127048   7.031   0.657  17.857
  951TIP3    H227049   7.149   0.677  17.951
  952TIP3   OH227050   7.251   1.690  18.054
  952TIP3    H127051   7.243   1.757  17.987
  952TIP3    H227052   7.346   1.683  18.070
  953TIP3   OH227053   5.957   0.157  17.927
  953TIP3    H127054   5.944   0.157  17.833
  953TIP3    H227055   5.957   0.064  17.952
  954TIP3   OH227056   5.862   1.465  17.516
  954TIP3    H127057   5.808   1.492  17.591
  954TIP3    H227058   5.863   1.542  17.459
  955TIP3   OH227059   5.796   1.765  18.700
  955TIP3    H127060   5.857   1.742  18.769
  955TIP3    H227061   5.760   1.681  18.670
  956TIP3   OH227062   6.266   1.645  18.830
  956TIP3    H127063   6.344   1.595  18.856
  956TIP3    H227064   6.234   1.600  18.751
  957TIP3   OH227065   6.719   1.524  17.053
  957TIP3    H127066   6.680   1.554  16.970
  957TIP3    H227067   6.783   1.458  17.027
  958TIP3   OH227068   6.896   1.487  18.745
  958TIP3    H127069   6.872   1.404  18.786
  958TIP3    H227070   6.974   1.516  18.791
  959TIP3   OH227071   5.764   1.129  18.801
  959TIP3    H127072   5.712   1.057  18.836
  959TIP3    H227073   5.712   1.163  18.728
  960TIP3   OH227074   6.432   1.137  18.698
  960TIP3    H127075   6.415   1.182  18.616
  960TIP3    H227076   6.448   1.046  18.673
  961TIP3   OH227077   7.004   1.126  18.490
  961TIP3    H127078   7.094   1.152  18.470
  961TIP3    H227079   6.955   1.208  18.489
  962TIP3   OH227080   5.923   0.809  18.750
  962TIP3    H127081   6.008   0.765  18.753
  962TIP3    H227082   5.916   0.854  18.834
  963TIP3   OH227083   6.278   0.754  18.462
  963TIP3    H127084   6.202   0.812  18.459
  963TIP3    H227085   6.335   0.786  18.392
  964TIP3   OH227086   6.786   1.006  18.780
  964TIP3    H127087   6.863   0.966  18.740
  964TIP3    H227088   6.753   0.940  18.841
  965TIP3   OH227089   6.329   0.509  18.569
  965TIP3    H127090   6.335   0.444  18.499
  965TIP3    H227091   6.314   0.592  18.524
  966TIP3   OH227092   6.340   0.356  18.337
  966TIP3    H127093   6.398   0.400  18.275
  966TIP3    H227094   6.255   0.355  18.294
  967TIP3   OH227095   6.475   0.860  18.303
  967TIP3    H127096   6.554   0.889  18.348
  967TIP3    H227097   6.436   0.941  18.269
  968TIP3   OH227098   6.933   0.628  18.840
  968TIP3    H127099   6.943   0.533  18.833
  968TIP3    H227100   7.022   0.662  18.836
  969TIP3   OH227101   7.045   0.929  18.670
  969TIP3    H127102   7.019   1.002  18.613
  969TIP3    H227103   7.140   0.923  18.660
  970TIP3   OH227104   6.158   0.579  18.779
  970TIP3    H127105   6.081   0.524  18.764
  970TIP3    H227106   6.214   0.564  18.702
  971TIP3   OH227107   6.387   0.090  18.335
  971TIP3    H127108   6.374   0.185  18.341
  971TIP3    H227109   6.316   0.060  18.278
  972TIP3   OH227110   6.552   0.469  18.733
  972TIP3    H127111   6.521   0.437  18.817
  972TIP3    H227112   6.473   0.473  18.678
  973TIP3   OH227113   6.820   0.411  18.641
  973TIP3    H127114   6.729   0.405  18.671
  973TIP3    H227115   6.870   0.363  18.707
  974TIP3   OH227116   6.983   0.318  18.845
  974TIP3    H127117   6.985   0.223  18.833
  974TIP3    H227118   6.954   0.330  18.935
  975TIP3   OH227119   5.958   0.387  18.740
  975TIP3    H127120   5.959   0.307  18.688
  975TIP3    H227121   5.964   0.357  18.831
  976TIP3   OH227122   6.398   0.069  18.624
  976TIP3    H127123   6.398  -0.026  18.631
  976TIP3    H227124   6.404   0.087  18.530
  977TIP3   OH227125   6.490   0.157  18.866
  977TIP3    H127126   6.475   0.123  18.778
  977TIP3    H227127   6.423   0.225  18.877
  978TIP3   OH227128   5.789   1.605  17.780
  978TIP3    H127129   5.733   1.537  17.819
  978TIP3    H227130   5.820   1.656  17.854
  979TIP3   OH227131   7.516   1.707  18.138
  979TIP3    H127132   7.513   1.684  18.231
  979TIP3    H227133   7.526   1.802  18.137
  980TIP3   OH227134   7.449   1.665  18.404
  980TIP3    H127135   7.393   1.596  18.368
  980TIP3    H227136   7.501   1.622  18.471
  981TIP3   OH227137   7.311   1.257  18.884
  981TIP3    H127138   7.226   1.272  18.925
  981TIP3    H227139   7.365   1.331  18.914
  982TIP3   OH227140   7.434   1.123  17.405
  982TIP3    H127141   7.525   1.152  17.394
  982TIP3    H227142   7.441   1.041  17.455
  983TIP3   OH227143   7.453   0.915  17.587
  983TIP3    H127144   7.367   0.878  17.606
  983TIP3    H227145   7.479   0.959  17.668
  984TIP3   OH227146   7.474   1.187  18.077
  984TIP3    H127147   7.545   1.150  18.026
  984TIP3    H227148   7.476   1.281  18.056
  985TIP3   OH227149   7.285   1.460  18.312
  985TIP3    H127150   7.211   1.506  18.351
  985TIP3    H227151   7.257   1.441  18.222
  986TIP3   OH227152   7.382   0.528  17.069
  986TIP3    H127153   7.383   0.623  17.081
  986TIP3    H227154   7.406   0.514  16.978
  987TIP3   OH227155   7.231   0.776  17.651
  987TIP3    H127156   7.241   0.692  17.607
  987TIP3    H227157   7.193   0.754  17.737
  988TIP3   OH227158   5.740   0.990  18.052
  988TIP3    H127159   5.742   0.966  17.959
  988TIP3    H227160   5.819   0.951  18.089
  989TIP3   OH227161   7.313   0.957  18.613
  989TIP3    H127162   7.380   0.889  18.603
  989TIP3    H227163   7.344   1.029  18.558
  990TIP3   OH227164   7.470   0.730  18.638
  990TIP3    H127165   7.381   0.695  18.635
  990TIP3    H227166   7.518   0.668  18.693
  991TIP3   OH227167   7.259   0.549  17.500
  991TIP3    H127168   7.274   0.456  17.516
  991TIP3    H227169   7.322   0.572  17.432
  992TIP3   OH227170   7.240   0.563  18.043
  992TIP3    H127171   7.331   0.565  18.014
  992TIP3    H227172   7.245   0.564  18.139
  993TIP3   OH227173   7.291   0.638  18.305
  993TIP3    H127174   7.215   0.673  18.352
  993TIP3    H227175   7.336   0.715  18.271
  994TIP3   OH227176   5.735   0.472  18.605
  994TIP3    H127177   5.811   0.462  18.662
  994TIP3    H227178   5.675   0.403  18.633
  995TIP3   OH227179   7.597   0.096  18.844
  995TIP3    H127180   7.690   0.115  18.828
  995TIP3    H227181   7.551   0.152  18.782
  996TIP3   OH227182   7.294   0.280  17.534
  996TIP3    H127183   7.321   0.215  17.599
  996TIP3    H227184   7.221   0.238  17.487
  997TIP3   OH227185   5.821   0.381  17.983
  997TIP3    H127186   5.858   0.293  17.977
  997TIP3    H227187   5.897   0.438  17.993
  998TIP3   OH227188   5.672   0.668  18.042
  998TIP3    H127189   5.738   0.657  17.973
  998TIP3    H227190   5.721   0.697  18.118
  999TIP3   OH227191   7.449   0.260  18.684
  999TIP3    H127192   7.375   0.293  18.735
  999TIP3    H227193   7.409   0.219  18.607
 1000TIP3   OH227194   7.482   0.277  17.159
 1000TIP3    H127195   7.566   0.270  17.113
 1000TIP3    H227196   7.443   0.357  17.126
 1001TIP3   OH227197   5.718   0.210  17.471
 1001TIP3    H127198   5.624   0.216  17.455
 1001TIP3    H227199   5.755   0.283  17.422
 1002TIP3   OH227200   7.217   1.715  17.652
 1002TIP3    H127201   7.264   1.631  17.654
 1002TIP3    H227202   7.240   1.757  17.735
 1003TIP3   OH227203   5.723   0.171  18.302
 1003TIP3    H127204   5.650   0.168  18.364
 1003TIP3    H227205   5.686   0.211  18.223
 1004TIP3   OH227206   5.926   1.458  18.698
 1004TIP3    H127207   5.838   1.473  18.665
 1004TIP3    H227208   5.918   1.381  18.755
 1005TIP3   OH227209   6.228   1.591  18.355
 1005TIP3    H127210   6.204   1.675  18.316
 1005TIP3    H227211   6.322   1.583  18.338
 1006TIP3   OH227212   6.621   1.690  18.602
 1006TIP3    H127213   6.629   1.671  18.695
 1006TIP3    H227214   6.698   1.743  18.582
 1007TIP3   OH227215   6.852   1.839  18.569
 1007TIP3    H127216   6.918   1.785  18.526
 1007TIP3    H227217   6.893   1.865  18.652
 1008TIP3   OH227218   7.332   0.123  18.464
 1008TIP3    H127219   7.277   0.134  18.386
 1008TIP3    H227220   7.331   0.029  18.481
 1009TIP3   OH227221   5.946   1.870  18.348
 1009TIP3    H127222   5.864   1.906  18.315
 1009TIP3    H227223   5.954   1.906  18.436
 1010TIP3   OH227224   6.198   1.840  18.244
 1010TIP3    H127225   6.109   1.854  18.275
 1010TIP3    H227226   6.206   1.895  18.166
 1011TIP3   OH227227   6.656   1.799  18.157
 1011TIP3    H127228   6.595   1.831  18.091
 1011TIP3    H227229   6.672   1.874  18.214
 1012TIP3   OH227230   6.874   1.675  18.277
 1012TIP3    H127231   6.796   1.711  18.235
 1012TIP3    H227232   6.944   1.736  18.255
 1013TIP3   OH227233   7.118   1.824  18.256
 1013TIP3    H127234   7.128   1.916  18.232
 1013TIP3    H227235   7.162   1.776  18.186
 1014TIP3   OH227236   5.900   1.715  18.023
 1014TIP3    H127237   5.897   1.668  18.107
 1014TIP3    H227238   5.983   1.687  17.984
 1015TIP3   OH227239   6.126   1.609  17.917
 1015TIP3    H127240   6.108   1.518  17.938
 1015TIP3    H227241   6.213   1.626  17.952
 1016TIP3   OH227242   6.381   1.617  18.026
 1016TIP3    H127243   6.389   1.527  17.995
 1016TIP3    H227244   6.410   1.614  18.117
 1017TIP3   OH227245   7.180   0.154  17.900
 1017TIP3    H127246   7.259   0.151  17.845
 1017TIP3    H227247   7.108   0.158  17.838
 1018TIP3   OH227248   7.397   0.103  17.731
 1018TIP3    H127249   7.428   0.020  17.696
 1018TIP3    H227250   7.476   0.157  17.739
 1019TIP3   OH227251   5.905   0.140  17.654
 1019TIP3    H127252   5.837   0.156  17.590
 1019TIP3    H227253   5.917   0.045  17.654
 1020TIP3   OH227254   5.761  -0.013  17.187
 1020TIP3    H127255   5.850  -0.016  17.151
 1020TIP3    H227256   5.769   0.043  17.264
 1021TIP3   OH227257   6.470   0.130  17.616
 1021TIP3    H127258   6.555   0.153  17.579
 1021TIP3    H227259   6.484   0.131  17.711
 1022TIP3   OH227260   6.952   0.157  17.726
 1022TIP3    H127261   6.910   0.169  17.640
 1022TIP3    H227262   6.950   0.062  17.740
 1023TIP3   OH227263   7.088   0.174  17.395
 1023TIP3    H127264   7.012   0.224  17.365
 1023TIP3    H227265   7.058   0.083  17.394
 1024TIP3   OH227266   5.851   1.706  17.380
 1024TIP3    H127267   5.768   1.712  17.333
 1024TIP3    H227268   5.904   1.777  17.344
 1025TIP3   OH227269   6.002   0.202  17.202
 1025TIP3    H127270   6.001   0.119  17.154
 1025TIP3    H227271   6.095   0.220  17.217
 1026TIP3   OH227272   7.385   1.697  17.384
 1026TIP3    H127273   7.359   1.604  17.383
 1026TIP3    H227274   7.431   1.710  17.301
 1027TIP3   OH227275   5.915   0.092  18.664
 1027TIP3    H127276   5.912   0.007  18.621
 1027TIP3    H227277   6.003   0.097  18.702
 1028TIP3   OH227278   6.162   0.106  18.778
 1028TIP3    H127279   6.244   0.133  18.734
 1028TIP3    H227280   6.157   0.012  18.762
 1029TIP3   OH227281   7.007   0.052  18.815
 1029TIP3    H127282   6.954  -0.028  18.821
 1029TIP3    H227283   7.096   0.020  18.798
 1030TIP3   OH227284   7.277   1.576  18.666
 1030TIP3    H127285   7.219   1.571  18.590
 1030TIP3    H227286   7.274   1.668  18.692
 1031TIP3   OH227287   7.554   0.659  17.570
 1031TIP3    H127288   7.513   0.745  17.562
 1031TIP3    H227289   7.546   0.621  17.483
 1032TIP3   OH227290   7.573   1.115  18.330
 1032TIP3    H127291   7.535   1.135  18.244
 1032TIP3    H227292   7.572   1.019  18.335
 1033TIP3   OH227293   7.544   1.451  18.018
 1033TIP3    H127294   7.637   1.430  18.026
 1033TIP3    H227295   7.535   1.537  18.059
 1034TIP3   OH227296   7.610   0.300  17.731
 1034TIP3    H127297   7.692   0.350  17.730
 1034TIP3    H227298   7.590   0.285  17.638
 1035TIP3   OH227299   7.596   0.845  18.426
 1035TIP3    H127300   7.561   0.799  18.502
 1035TIP3    H227301   7.536   0.823  18.355
 1036TIP3   OH227302   7.620   1.077  18.769
 1036TIP3    H127303   7.552   1.028  18.815
 1036TIP3    H227304   7.572   1.126  18.702
 1037TIP3   OH227305   7.523   1.822  17.599
 1037TIP3    H127306   7.496   1.778  17.518
 1037TIP3    H227307   7.528   1.752  17.663
 1038TIP3   OH227308   7.531   1.623  17.787
 1038TIP3    H127309   7.502   1.547  17.838
 1038TIP3    H227310   7.624   1.632  17.808
 1039TIP3   OH227311   7.622   0.917  18.042
 1039TIP3    H127312   7.625   0.896  17.948
 1039TIP3    H227313   7.696   0.977  18.056
 1040TIP3   OH227314   7.549   0.504  18.779
 1040TIP3    H127315   7.642   0.506  18.756
 1040TIP3    H227316   7.517   0.421  18.742
 1041TIP3   OH227317   7.511   0.583  18.001
 1041TIP3    H127318   7.550   0.579  17.914
 1041TIP3    H227319   7.583   0.612  18.058
 1042TIP3   OH227320   7.576   0.253  17.466
 1042TIP3    H127321   7.484   0.240  17.445
 1042TIP3    H227322   7.610   0.306  17.394
 1043TIP3   OH227323   7.544   0.130  18.288
 1043TIP3    H127324   7.483   0.141  18.361
 1043TIP3    H227325   7.516   0.196  18.224
 1044TIP3   OH227326   1.207   2.892  17.629
 1044TIP3    H127327   1.195   2.986  17.621
 1044TIP3    H227328   1.148   2.854  17.564
 1045TIP3   OH227329   1.119   2.779  18.016
 1045TIP3    H127330   1.116   2.768  18.111
 1045TIP3    H227331   1.054   2.717  17.983
 1046TIP3   OH227332   0.320   2.749  18.184
 1046TIP3    H127333   0.327   2.670  18.237
 1046TIP3    H227334   0.410   2.773  18.163
 1047TIP3   OH227335   1.412   3.081  17.814
 1047TIP3    H127336   1.356   3.004  17.819
 1047TIP3    H227337   1.367   3.147  17.866
 1048TIP3   OH227338   0.417   3.216  17.966
 1048TIP3    H127339   0.390   3.126  17.946
 1048TIP3    H227340   0.511   3.211  17.981
 1049TIP3   OH227341   0.130   2.608  17.533
 1049TIP3    H127342   0.133   2.678  17.598
 1049TIP3    H227343   0.044   2.567  17.545
 1050TIP3   OH227344   0.120   2.755  17.777
 1050TIP3    H127345   0.173   2.683  17.810
 1050TIP3    H227346   0.178   2.831  17.778
 1051TIP3   OH227347   1.200   3.605  17.850
 1051TIP3    H127348   1.246   3.558  17.780
 1051TIP3    H227349   1.184   3.539  17.917
 1052TIP3   OH227350   0.921   3.050  18.047
 1052TIP3    H127351   0.970   3.025  17.970
 1052TIP3    H227352   0.985   3.047  18.119
 1053TIP3   OH227353   1.790   2.166  18.119
 1053TIP3    H127354   1.790   2.233  18.187
 1053TIP3    H227355   1.862   2.190  18.061
 1054TIP3   OH227356   1.265   2.466  18.079
 1054TIP3    H127357   1.291   2.374  18.080
 1054TIP3    H227358   1.242   2.484  17.988
 1055TIP3   OH227359   0.576   2.277  17.752
 1055TIP3    H127360   0.595   2.367  17.727
 1055TIP3    H227361   0.545   2.234  17.672
 1056TIP3   OH227362   1.347   2.326  17.652
 1056TIP3    H127363   1.399   2.297  17.727
 1056TIP3    H227364   1.410   2.371  17.596
 1057TIP3   OH227365   0.271   2.529  17.847
 1057TIP3    H127366   0.330   2.475  17.900
 1057TIP3    H227367   0.279   2.494  17.758
 1058TIP3   OH227368   0.725   2.691  17.844
 1058TIP3    H127369   0.812   2.657  17.867
 1058TIP3    H227370   0.691   2.629  17.779
 1059TIP3   OH227371   1.783   2.331  18.343
 1059TIP3    H127372   1.736   2.411  18.318
 1059TIP3    H227373   1.854   2.362  18.399
 1060TIP3   OH227374   0.462   2.163  18.188
 1060TIP3    H127375   0.449   2.220  18.113
 1060TIP3    H227376   0.402   2.196  18.255
 1061TIP3   OH227377   1.193   3.159  17.546
 1061TIP3    H127378   1.167   3.143  17.455
 1061TIP3    H227379   1.134   3.228  17.576
 1062TIP3   OH227380   0.718   2.958  18.208
 1062TIP3    H127381   0.664   3.032  18.234
 1062TIP3    H227382   0.788   2.997  18.155
 1063TIP3   OH227383   1.518   2.269  17.859
 1063TIP3    H127384   1.563   2.186  17.874
 1063TIP3    H227385   1.564   2.332  17.915
 1064TIP3   OH227386   0.443   2.346  17.982
 1064TIP3    H127387   0.502   2.405  18.029
 1064TIP3    H227388   0.491   2.322  17.903
 1065TIP3   OH227389   0.565   3.179  18.272
 1065TIP3    H127390   0.584   3.256  18.219
 1065TIP3    H227391   0.476   3.194  18.305
 1066TIP3   OH227392   0.091   3.119  17.380
 1066TIP3    H127393   0.172   3.110  17.330
 1066TIP3    H227394   0.110   3.185  17.446
 1067TIP3   OH227395   1.533   3.309  18.093
 1067TIP3    H127396   1.448   3.283  18.060
 1067TIP3    H227397   1.547   3.397  18.059
 1068TIP3   OH227398   1.518   2.082  18.196
 1068TIP3    H127399   1.449   2.127  18.148
 1068TIP3    H227400   1.599   2.111  18.153
 1069TIP3   OH227401   0.769   1.871  17.943
 1069TIP3    H127402   0.750   1.778  17.955
 1069TIP3    H227403   0.737   1.912  18.024
 1070TIP3   OH227404   1.329   3.458  17.657
 1070TIP3    H127405   1.342   3.367  17.686
 1070TIP3    H227406   1.413   3.500  17.671
 1071TIP3   OH227407   1.469   3.204  17.569
 1071TIP3    H127408   1.376   3.189  17.549
 1071TIP3    H227409   1.482   3.161  17.653
 1072TIP3   OH227410   1.621   3.100  18.433
 1072TIP3    H127411   1.611   3.044  18.355
 1072TIP3    H227412   1.629   3.189  18.398
 1073TIP3   OH227413   1.064   2.777  17.397
 1073TIP3    H127414   1.001   2.847  17.383
 1073TIP3    H227415   1.054   2.720  17.320
 1074TIP3   OH227416   1.072   2.596  17.188
 1074TIP3    H127417   1.126   2.520  17.167
 1074TIP3    H227418   1.007   2.599  17.117
 1075TIP3   OH227419   1.807   2.773  18.244
 1075TIP3    H127420   1.734   2.834  18.238
 1075TIP3    H227421   1.860   2.790  18.166
 1076TIP3   OH227422   1.447   2.858  17.497
 1076TIP3    H127423   1.376   2.882  17.556
 1076TIP3    H227424   1.504   2.802  17.549
 1077TIP3   OH227425   1.397   2.651  18.413
 1077TIP3    H127426   1.396   2.737  18.455
 1077TIP3    H227427   1.330   2.655  18.346
 1078TIP3   OH227428   0.565   2.883  17.711
 1078TIP3    H127429   0.523   2.837  17.639
 1078TIP3    H227430   0.628   2.820  17.746
 1079TIP3   OH227431   0.696   3.200  17.967
 1079TIP3    H127432   0.701   3.215  17.872
 1079TIP3    H227433   0.775   3.151  17.988
 1080TIP3   OH227434   0.579   2.774  18.062
 1080TIP3    H127435   0.632   2.755  17.985
 1080TIP3    H227436   0.632   2.836  18.113
 1081TIP3   OH227437   1.109   3.341  18.249
 1081TIP3    H127438   1.159   3.422  18.255
 1081TIP3    H227439   1.134   3.304  18.164
 1082TIP3   OH227440   0.699   3.205  18.515
 1082TIP3    H127441   0.636   3.265  18.556
 1082TIP3    H227442   0.663   3.188  18.428
 1083TIP3   OH227443   1.332   2.737  17.284
 1083TIP3    H127444   1.359   2.776  17.367
 1083TIP3    H227445   1.239   2.759  17.277
 1084TIP3   OH227446   0.446   2.817  18.462
 1084TIP3    H127447   0.445   2.905  18.499
 1084TIP3    H227448   0.354   2.795  18.449
 1085TIP3   OH227449   1.036   3.381  17.623
 1085TIP3    H127450   1.098   3.408  17.691
 1085TIP3    H227451   1.018   3.460  17.573
 1086TIP3   OH227452   0.510   3.388  18.611
 1086TIP3    H127453   0.519   3.423  18.523
 1086TIP3    H227454   0.416   3.374  18.622
 1087TIP3   OH227455   1.679   1.888  17.246
 1087TIP3    H127456   1.599   1.926  17.282
 1087TIP3    H227457   1.724   1.962  17.206
 1088TIP3   OH227458   0.435   2.766  17.497
 1088TIP3    H127459   0.452   2.814  17.417
 1088TIP3    H227460   0.432   2.674  17.470
 1089TIP3   OH227461   0.172   3.008  18.363
 1089TIP3    H127462   0.078   3.015  18.344
 1089TIP3    H227463   0.187   2.914  18.375
 1090TIP3   OH227464   0.161   3.345  17.997
 1090TIP3    H127465   0.238   3.291  17.979
 1090TIP3    H227466   0.178   3.384  18.083
 1091TIP3   OH227467   1.890   3.392  18.617
 1091TIP3    H127468   1.878   3.300  18.591
 1091TIP3    H227469   1.803   3.421  18.643
 1092TIP3   OH227470   0.951   3.313  18.548
 1092TIP3    H127471   0.951   3.409  18.542
 1092TIP3    H227472   0.863   3.287  18.524
 1093TIP3   OH227473   1.000   3.687  17.438
 1093TIP3    H127474   1.008   3.687  17.343
 1093TIP3    H227475   1.004   3.780  17.462
 1094TIP3   OH227476   0.404   3.559  17.653
 1094TIP3    H127477   0.444   3.537  17.737
 1094TIP3    H227478   0.310   3.566  17.672
 1095TIP3   OH227479   1.273   3.622  17.442
 1095TIP3    H127480   1.178   3.624  17.445
 1095TIP3    H227481   1.297   3.556  17.508
 1096TIP3   OH227482   1.568   2.516  18.638
 1096TIP3    H127483   1.513   2.558  18.571
 1096TIP3    H227484   1.567   2.424  18.614
 1097TIP3   OH227485   0.326   3.221  18.413
 1097TIP3    H127486   0.374   3.178  18.484
 1097TIP3    H227487   0.266   3.154  18.380
 1098TIP3   OH227488   1.060   1.962  18.358
 1098TIP3    H127489   1.104   1.922  18.433
 1098TIP3    H227490   0.966   1.955  18.379
 1099TIP3   OH227491   1.331   2.367  18.470
 1099TIP3    H127492   1.267   2.356  18.540
 1099TIP3    H227493   1.328   2.461  18.450
 1100TIP3   OH227494   0.921   2.256  17.138
 1100TIP3    H127495   0.930   2.197  17.212
 1100TIP3    H227496   0.981   2.222  17.072
 1101TIP3   OH227497   0.597   2.509  18.141
 1101TIP3    H127498   0.529   2.510  18.208
 1101TIP3    H227499   0.603   2.599  18.111
 1102TIP3   OH227500   0.599   2.531  17.660
 1102TIP3    H127501   0.506   2.523  17.639
 1102TIP3    H227502   0.644   2.520  17.577
 1103TIP3   OH227503   1.090   2.520  17.509
 1103TIP3    H127504   1.070   2.610  17.482
 1103TIP3    H227505   1.166   2.496  17.455
 1104TIP3   OH227506   1.031   2.575  18.665
 1104TIP3    H127507   0.980   2.500  18.696
 1104TIP3    H227508   1.114   2.568  18.711
 1105TIP3   OH227509   1.212   2.518  17.811
 1105TIP3    H127510   1.198   2.596  17.758
 1105TIP3    H227511   1.234   2.450  17.748
 1106TIP3   OH227512   0.378   2.508  18.311
 1106TIP3    H127513   0.429   2.533  18.389
 1106TIP3    H227514   0.344   2.421  18.332
 1107TIP3   OH227515   0.670   2.159  17.069
 1107TIP3    H127516   0.642   2.167  17.160
 1107TIP3    H227517   0.753   2.208  17.065
 1108TIP3   OH227518   0.112   2.296  17.723
 1108TIP3    H127519   0.032   2.302  17.776
 1108TIP3    H227520   0.086   2.326  17.636
 1109TIP3   OH227521   1.160   2.640  18.261
 1109TIP3    H127522   1.199   2.585  18.193
 1109TIP3    H227523   1.097   2.583  18.305
 1110TIP3   OH227524   0.858   2.260  17.761
 1110TIP3    H127525   0.766   2.260  17.787
 1110TIP3    H227526   0.901   2.204  17.825
 1111TIP3   OH227527   0.352   2.451  17.572
 1111TIP3    H127528   0.277   2.501  17.542
 1111TIP3    H227529   0.365   2.384  17.505
 1112TIP3   OH227530   0.689   2.468  17.413
 1112TIP3    H127531   0.768   2.413  17.409
 1112TIP3    H227532   0.665   2.481  17.322
 1113TIP3   OH227533   1.282   2.184  18.067
 1113TIP3    H127534   1.195   2.184  18.108
 1113TIP3    H227535   1.268   2.140  17.983
 1114TIP3   OH227536   1.611   3.764  18.721
 1114TIP3    H127537   1.635   3.794  18.633
 1114TIP3    H227538   1.684   3.792  18.777
 1115TIP3   OH227539   0.416   3.049  18.620
 1115TIP3    H127540   0.484   3.040  18.686
 1115TIP3    H227541   0.334   3.043  18.669
 1116TIP3   OH227542   0.955   2.555  17.936
 1116TIP3    H127543   1.031   2.528  17.884
 1116TIP3    H227544   0.934   2.480  17.990
 1117TIP3   OH227545   0.844   2.384  18.177
 1117TIP3    H127546   0.769   2.443  18.167
 1117TIP3    H227547   0.898   2.425  18.245
 1118TIP3   OH227548   0.875   2.967  17.343
 1118TIP3    H127549   0.805   2.950  17.280
 1118TIP3    H227550   0.830   3.002  17.420
 1119TIP3   OH227551   1.601   2.948  18.209
 1119TIP3    H127552   1.643   3.008  18.148
 1119TIP3    H227553   1.524   2.916  18.161
 1120TIP3   OH227554   1.041   3.056  18.506
 1120TIP3    H127555   1.031   3.020  18.595
 1120TIP3    H227556   1.016   3.148  18.515
 1121TIP3   OH227557   1.316   2.469  17.359
 1121TIP3    H127558   1.407   2.451  17.385
 1121TIP3    H227559   1.321   2.551  17.310
 1122TIP3   OH227560   0.388   2.944  17.910
 1122TIP3    H127561   0.441   2.939  17.831
 1122TIP3    H227562   0.433   2.886  17.972
 1123TIP3   OH227563   1.113   3.113  17.289
 1123TIP3    H127564   1.079   3.202  17.275
 1123TIP3    H227565   1.035   3.057  17.284
 1124TIP3   OH227566   0.180   2.746  18.474
 1124TIP3    H127567   0.188   2.719  18.566
 1124TIP3    H227568   0.088   2.732  18.453
 1125TIP3   OH227569   0.817   2.750  18.648
 1125TIP3    H127570   0.771   2.729  18.567
 1125TIP3    H227571   0.901   2.705  18.641
 1126TIP3   OH227572   1.271   3.292  18.468
 1126TIP3    H127573   1.203   3.295  18.401
 1126TIP3    H227574   1.228   3.321  18.548
 1127TIP3   OH227575   1.759   2.489  17.294
 1127TIP3    H127576   1.718   2.460  17.213
 1127TIP3    H227577   1.780   2.581  17.279
 1128TIP3   OH227578   1.859   3.117  18.565
 1128TIP3    H127579   1.767   3.115  18.539
 1128TIP3    H227580   1.906   3.087  18.487
 1129TIP3   OH227581   1.629   3.351  17.392
 1129TIP3    H127582   1.563   3.310  17.449
 1129TIP3    H227583   1.712   3.309  17.418
 1130TIP3   OH227584   1.395   2.827  18.071
 1130TIP3    H127585   1.301   2.831  18.051
 1130TIP3    H227586   1.431   2.768  18.006
 1131TIP3   OH227587   0.662   3.283  17.702
 1131TIP3    H127588   0.704   3.364  17.672
 1131TIP3    H227589   0.580   3.279  17.653
 1132TIP3   OH227590   0.739   3.048  17.568
 1132TIP3    H127591   0.742   3.133  17.612
 1132TIP3    H227592   0.681   2.995  17.622
 1133TIP3   OH227593   0.858   3.459  18.280
 1133TIP3    H127594   0.901   3.542  18.258
 1133TIP3    H227595   0.928   3.394  18.280
 1134TIP3   OH227596   0.669   3.543  17.583
 1134TIP3    H127597   0.575   3.558  17.592
 1134TIP3    H227598   0.709   3.619  17.626
 1135TIP3   OH227599   1.103   2.994  18.246
 1135TIP3    H127600   1.087   3.015  18.338
 1135TIP3    H227601   1.196   3.013  18.233
 1136TIP3   OH227602   1.464   3.501  18.452
 1136TIP3    H127603   1.390   3.440  18.445
 1136TIP3    H227604   1.444   3.570  18.389
 1137TIP3   OH227605   1.833   3.625  17.153
 1137TIP3    H127606   1.916   3.671  17.142
 1137TIP3    H227607   1.775   3.689  17.194
 1138TIP3   OH227608   0.280   2.250  18.382
 1138TIP3    H127609   0.222   2.296  18.442
 1138TIP3    H227610   0.248   2.159  18.382
 1139TIP3   OH227611   0.252   3.456  18.240
 1139TIP3    H127612   0.284   3.381  18.290
 1139TIP3    H227613   0.261   3.530  18.300
 1140TIP3   OH227614   0.783   3.244  17.009
 1140TIP3    H127615   0.873   3.269  16.991
 1140TIP3    H227616   0.736   3.263  16.928
 1141TIP3   OH227617   0.638   3.279  17.248
 1141TIP3    H127618   0.691   3.253  17.172
 1141TIP3    H227619   0.678   3.360  17.278
 1142TIP3   OH227620   1.130   2.228  18.325
 1142TIP3    H127621   1.220   2.241  18.353
 1142TIP3    H227622   1.115   2.134  18.335
 1143TIP3   OH227623   1.258   2.167  17.439
 1143TIP3    H127624   1.252   2.224  17.362
 1143TIP3    H227625   1.285   2.226  17.510
 1144TIP3   OH227626   1.002   3.362  17.283
 1144TIP3    H127627   0.907   3.371  17.294
 1144TIP3    H227628   1.029   3.446  17.245
 1145TIP3   OH227629   0.918   2.306  17.500
 1145TIP3    H127630   0.978   2.379  17.490
 1145TIP3    H227631   0.890   2.310  17.591
 1146TIP3   OH227632   1.002   2.462  18.395
 1146TIP3    H127633   1.017   2.484  18.487
 1146TIP3    H227634   1.046   2.377  18.384
 1147TIP3   OH227635   1.060   2.064  17.602
 1147TIP3    H127636   1.000   2.139  17.598
 1147TIP3    H227637   1.131   2.087  17.542
 1148TIP3   OH227638   0.753   3.524  17.325
 1148TIP3    H127639   0.831   3.579  17.317
 1148TIP3    H227640   0.730   3.528  17.418
 1149TIP3   OH227641   1.577   2.262  18.520
 1149TIP3    H127642   1.488   2.278  18.490
 1149TIP3    H227643   1.630   2.267  18.440
 1150TIP3   OH227644   1.477   2.624  17.891
 1150TIP3    H127645   1.392   2.579  17.885
 1150TIP3    H227646   1.533   2.563  17.939
 1151TIP3   OH227647   0.394   3.178  17.145
 1151TIP3    H127648   0.460   3.221  17.199
 1151TIP3    H227649   0.445   3.130  17.079
 1152TIP3   OH227650   1.599   3.585  18.064
 1152TIP3    H127651   1.579   3.649  17.996
 1152TIP3    H227652   1.695   3.581  18.066
 1153TIP3   OH227653   0.182   3.348  17.513
 1153TIP3    H127654   0.124   3.407  17.466
 1153TIP3    H227655   0.269   3.384  17.499
 1154TIP3   OH227656   0.150   3.652  18.713
 1154TIP3    H127657   0.208   3.641  18.788
 1154TIP3    H227658   0.141   3.564  18.676
 1155TIP3   OH227659   0.587   3.523  18.840
 1155TIP3    H127660   0.674   3.489  18.862
 1155TIP3    H227661   0.565   3.481  18.757
 1156TIP3   OH227662   1.232   3.380  18.738
 1156TIP3    H127663   1.214   3.293  18.774
 1156TIP3    H227664   1.317   3.405  18.775
 1157TIP3   OH227665   0.203   3.044  18.798
 1157TIP3    H127666   0.240   2.972  18.848
 1157TIP3    H227667   0.116   3.012  18.771
 1158TIP3   OH227668   0.562   3.031  16.992
 1158TIP3    H127669   0.653   3.048  17.018
 1158TIP3    H227670   0.569   2.962  16.926
 1159TIP3   OH227671   0.785   3.026  18.706
 1159TIP3    H127672   0.769   3.075  18.625
 1159TIP3    H227673   0.806   2.938  18.676
 1160TIP3   OH227674   1.361   3.018  18.496
 1160TIP3    H127675   1.447   3.056  18.473
 1160TIP3    H227676   1.300   3.091  18.486
 1161TIP3   OH227677   0.244   2.676  18.740
 1161TIP3    H127678   0.335   2.645  18.738
 1161TIP3    H227679   0.238   2.728  18.821
 1162TIP3   OH227680   0.621   2.613  18.437
 1162TIP3    H127681   0.564   2.690  18.447
 1162TIP3    H227682   0.697   2.645  18.389
 1163TIP3   OH227683   1.137   2.896  18.779
 1163TIP3    H127684   1.209   2.861  18.726
 1163TIP3    H227685   1.111   2.823  18.835
 1164TIP3   OH227686   0.651   2.374  18.561
 1164TIP3    H127687   0.667   2.307  18.495
 1164TIP3    H227688   0.650   2.456  18.513
 1165TIP3   OH227689   0.698   2.208  18.332
 1165TIP3    H127690   0.760   2.257  18.279
 1165TIP3    H227691   0.621   2.199  18.277
 1166TIP3   OH227692   0.835   2.744  18.334
 1166TIP3    H127693   0.930   2.752  18.321
 1166TIP3    H227694   0.799   2.823  18.294
 1167TIP3   OH227695   1.266   2.523  18.825
 1167TIP3    H127696   1.256   2.434  18.791
 1167TIP3    H227697   1.358   2.544  18.809
 1168TIP3   OH227698   1.425   2.831  18.676
 1168TIP3    H127699   1.393   2.899  18.618
 1168TIP3    H227700   1.518   2.823  18.656
 1169TIP3   OH227701   0.479   2.485  18.769
 1169TIP3    H127702   0.414   2.415  18.763
 1169TIP3    H227703   0.538   2.470  18.695
 1170TIP3   OH227704   0.780   1.947  18.363
 1170TIP3    H127705   0.760   2.041  18.357
 1170TIP3    H227706   0.711   1.905  18.312
 1171TIP3   OH227707   0.878   2.355  18.727
 1171TIP3    H127708   0.841   2.325  18.810
 1171TIP3    H227709   0.804   2.357  18.666
 1172TIP3   OH227710   1.161   2.305  18.679
 1172TIP3    H127711   1.068   2.294  18.700
 1172TIP3    H227712   1.205   2.234  18.726
 1173TIP3   OH227713   1.331   2.151  18.837
 1173TIP3    H127714   1.326   2.056  18.828
 1173TIP3    H227715   1.307   2.168  18.928
 1174TIP3   OH227716   0.318   2.261  18.765
 1174TIP3    H127717   0.332   2.183  18.711
 1174TIP3    H227718   0.314   2.228  18.854
 1175TIP3   OH227719   0.776   1.895  18.633
 1175TIP3    H127720   0.831   1.817  18.632
 1175TIP3    H227721   0.769   1.921  18.541
 1176TIP3   OH227722   0.807   2.037  18.863
 1176TIP3    H127723   0.800   1.993  18.779
 1176TIP3    H227724   0.746   2.111  18.857
 1177TIP3   OH227725   0.125   3.167  17.077
 1177TIP3    H127726   0.115   3.260  17.099
 1177TIP3    H227727   0.219   3.150  17.088
 1178TIP3   OH227728   0.088   3.717  17.526
 1178TIP3    H127729  -0.003   3.730  17.553
 1178TIP3    H227730   0.131   3.683  17.604
 1179TIP3   OH227731   0.158   3.557  17.788
 1179TIP3    H127732   0.162   3.462  17.800
 1179TIP3    H227733   0.188   3.593  17.871
 1180TIP3   OH227734   1.869   3.618  18.106
 1180TIP3    H127735   1.873   3.606  18.201
 1180TIP3    H227736   1.921   3.697  18.089
 1181TIP3   OH227737   1.830   3.559  18.387
 1181TIP3    H127738   1.770   3.497  18.346
 1181TIP3    H227739   1.865   3.512  18.462
 1182TIP3   OH227740   1.661   3.131  18.873
 1182TIP3    H127741   1.571   3.141  18.905
 1182TIP3    H227742   1.706   3.211  18.903
 1183TIP3   OH227743   1.797   2.980  17.352
 1183TIP3    H127744   1.872   3.038  17.363
 1183TIP3    H227745   1.792   2.931  17.434
 1184TIP3   OH227746   1.822   2.800  17.572
 1184TIP3    H127747   1.740   2.759  17.600
 1184TIP3    H227748   1.875   2.805  17.652
 1185TIP3   OH227749   1.835   3.076  18.106
 1185TIP3    H127750   1.878   3.006  18.056
 1185TIP3    H227751   1.845   3.153  18.051
 1186TIP3   OH227752   1.658   3.353  18.327
 1186TIP3    H127753   1.585   3.400  18.366
 1186TIP3    H227754   1.628   3.330  18.240
 1187TIP3   OH227755   1.818   2.742  17.217
 1187TIP3    H127756   1.877   2.763  17.144
 1187TIP3    H227757   1.817   2.822  17.270
 1188TIP3   OH227758   1.590   2.664  17.640
 1188TIP3    H127759   1.579   2.576  17.603
 1188TIP3    H227760   1.556   2.656  17.729
 1189TIP3   OH227761   0.150   2.923  18.059
 1189TIP3    H127762   0.213   2.957  17.995
 1189TIP3    H227763   0.202   2.872  18.120
 1190TIP3   OH227764   1.697   2.835  18.613
 1190TIP3    H127765   1.752   2.758  18.596
 1190TIP3    H227766   1.723   2.898  18.547
 1191TIP3   OH227767   1.832   2.596  18.605
 1191TIP3    H127768   1.742   2.565  18.618
 1191TIP3    H227769   1.886   2.517  18.612
 1192TIP3   OH227770   1.565   2.416  17.487
 1192TIP3    H127771   1.588   2.323  17.495
 1192TIP3    H227772   1.630   2.451  17.425
 1193TIP3   OH227773   1.642   2.451  18.031
 1193TIP3    H127774   1.736   2.465  18.021
 1193TIP3    H227775   1.623   2.474  18.122
 1194TIP3   OH227776   1.638   2.556  18.292
 1194TIP3    H127777   1.556   2.594  18.323
 1194TIP3    H227778   1.694   2.632  18.274
 1195TIP3   OH227779   0.110   2.303  18.595
 1195TIP3    H127780   0.180   2.323  18.657
 1195TIP3    H227781   0.105   2.207  18.595
 1196TIP3   OH227782   1.866   1.959  18.819
 1196TIP3    H127783   1.919   1.890  18.779
 1196TIP3    H227784   1.858   2.026  18.752
 1197TIP3   OH227785   1.631   2.147  17.493
 1197TIP3    H127786   1.659   2.108  17.576
 1197TIP3    H227787   1.572   2.082  17.454
 1198TIP3   OH227788   0.096   2.501  18.061
 1198TIP3    H127789   0.150   2.504  17.982
 1198TIP3    H227790   0.141   2.559  18.123
 1199TIP3   OH227791   1.799   2.134  18.622
 1199TIP3    H127792   1.718   2.185  18.627
 1199TIP3    H227793   1.784   2.072  18.551
 1200TIP3   OH227794   1.849   2.065  17.100
 1200TIP3    H127795   1.920   2.020  17.145
 1200TIP3    H227796   1.864   2.158  17.118
 1201TIP3   OH227797   1.554   3.601  17.690
 1201TIP3    H127798   1.621   3.615  17.624
 1201TIP3    H227799   1.574   3.665  17.759
 1202TIP3   OH227800   0.083   2.013  18.328
 1202TIP3    H127801   0.030   1.961  18.389
 1202TIP3    H227802   0.023   2.036  18.257
 1203TIP3   OH227803   0.238   3.325  18.679
 1203TIP3    H127804   0.203   3.297  18.595
 1203TIP3    H227805   0.237   3.246  18.733
 1204TIP3   OH227806   0.588   3.471  18.359
 1204TIP3    H127807   0.569   3.554  18.315
 1204TIP3    H227808   0.681   3.457  18.344
 1205TIP3   OH227809   0.963   3.592  18.605
 1205TIP3    H127810   0.983   3.561  18.693
 1205TIP3    H227811   1.042   3.637  18.576
 1206TIP3   OH227812   1.193   3.732  18.553
 1206TIP3    H127813   1.246   3.680  18.492
 1206TIP3    H227814   1.249   3.742  18.630
 1207TIP3   OH227815   1.700   1.938  18.449
 1207TIP3    H127816   1.631   1.962  18.387
 1207TIP3    H227817   1.722   1.847  18.427
 1208TIP3   OH227818   0.287   3.733  18.351
 1208TIP3    H127819   0.217   3.789  18.315
 1208TIP3    H227820   0.300   3.765  18.440
 1209TIP3   OH227821   0.549   3.720  18.246
 1209TIP3    H127822   0.455   3.729  18.265
 1209TIP3    H227823   0.559   3.758  18.159
 1210TIP3   OH227824   0.988   3.682  18.174
 1210TIP3    H127825   0.945   3.708  18.093
 1210TIP3    H227826   1.004   3.765  18.220
 1211TIP3   OH227827   1.227   3.595  18.291
 1211TIP3    H127828   1.149   3.620  18.241
 1211TIP3    H227829   1.299   3.641  18.247
 1212TIP3   OH227830   1.484   3.724  18.270
 1212TIP3    H127831   1.485   3.815  18.238
 1212TIP3    H227832   1.522   3.674  18.198
 1213TIP3   OH227833   0.293   3.636  18.021
 1213TIP3    H127834   0.269   3.589  18.101
 1213TIP3    H227835   0.367   3.586  17.985
 1214TIP3   OH227836   0.481   3.482  17.903
 1214TIP3    H127837   0.460   3.389  17.914
 1214TIP3    H227838   0.567   3.492  17.943
 1215TIP3   OH227839   0.710   3.465  18.044
 1215TIP3    H127840   0.728   3.376  18.014
 1215TIP3    H227841   0.766   3.476  18.121
 1216TIP3   OH227842   0.988   2.046  17.882
 1216TIP3    H127843   0.929   1.970  17.888
 1216TIP3    H227844   1.032   2.035  17.798
 1217TIP3   OH227845   1.568   1.911  17.890
 1217TIP3    H127846   1.630   1.963  17.840
 1217TIP3    H227847   1.482   1.945  17.864
 1218TIP3   OH227848   1.741   2.033  17.718
 1218TIP3    H127849   1.797   1.963  17.683
 1218TIP3    H227850   1.801   2.107  17.731
 1219TIP3   OH227851   0.750   1.884  17.660
 1219TIP3    H127852   0.775   1.965  17.616
 1219TIP3    H227853   0.765   1.902  17.753
 1220TIP3   OH227854   1.310   1.972  17.810
 1220TIP3    H127855   1.291   1.996  17.719
 1220TIP3    H227856   1.260   1.892  17.825
 1221TIP3   OH227857   1.449   1.963  17.387
 1221TIP3    H127858   1.377   2.026  17.388
 1221TIP3    H227859   1.406   1.879  17.404
 1222TIP3   OH227860   0.084   3.538  17.314
 1222TIP3    H127861   0.014   3.564  17.254
 1222TIP3    H227862   0.085   3.607  17.381
 1223TIP3   OH227863   0.866   2.074  17.354
 1223TIP3    H127864   0.771   2.066  17.365
 1223TIP3    H227865   0.888   2.155  17.398
 1224TIP3   OH227866   1.020   3.612  17.172
 1224TIP3    H127867   1.103   3.647  17.138
 1224TIP3    H227868   0.970   3.592  17.093
 1225TIP3   OH227869   1.718   3.607  17.467
 1225TIP3    H127870   1.679   3.525  17.439
 1225TIP3    H227871   1.707   3.666  17.392
 1226TIP3   OH227872   0.269   2.002  18.627
 1226TIP3    H127873   0.211   1.930  18.652
 1226TIP3    H227874   0.350   1.984  18.676
 1227TIP3   OH227875   0.478   1.937  18.797
 1227TIP3    H127876   0.567   1.914  18.770
 1227TIP3    H227877   0.444   1.857  18.837
 1228TIP3   OH227878   1.344   1.878  18.798
 1228TIP3    H127879   1.336   1.826  18.878
 1228TIP3    H227880   1.436   1.869  18.773
 1229TIP3   OH227881   1.639   3.494  18.664
 1229TIP3    H127882   1.579   3.483  18.591
 1229TIP3    H227883   1.625   3.584  18.694
 1230TIP3   OH227884   3.091   2.936  17.610
 1230TIP3    H127885   3.073   3.023  17.574
 1230TIP3    H227886   3.034   2.877  17.560
 1231TIP3   OH227887   2.972   2.801  18.028
 1231TIP3    H127888   2.981   2.753  18.111
 1231TIP3    H227889   2.937   2.736  17.967
 1232TIP3   OH227890   2.193   2.748  18.177
 1232TIP3    H127891   2.193   2.668  18.230
 1232TIP3    H227892   2.278   2.748  18.134
 1233TIP3   OH227893   2.337   3.209  18.006
 1233TIP3    H127894   2.305   3.127  17.970
 1233TIP3    H227895   2.431   3.209  17.985
 1234TIP3   OH227896   1.960   2.543  17.508
 1234TIP3    H127897   1.932   2.633  17.528
 1234TIP3    H227898   1.890   2.507  17.454
 1235TIP3   OH227899   2.021   2.775  17.777
 1235TIP3    H127900   2.043   2.684  17.797
 1235TIP3    H227901   2.098   2.810  17.732
 1236TIP3   OH227902   3.072   3.589  17.771
 1236TIP3    H127903   3.080   3.537  17.691
 1236TIP3    H227904   3.038   3.528  17.836
 1237TIP3   OH227905   2.806   3.037  18.055
 1237TIP3    H127906   2.845   2.963  18.009
 1237TIP3    H227907   2.877   3.074  18.108
 1238TIP3   OH227908   3.657   2.171  18.128
 1238TIP3    H127909   3.672   2.232  18.201
 1238TIP3    H227910   3.680   2.222  18.050
 1239TIP3   OH227911   3.155   2.490  18.097
 1239TIP3    H127912   3.168   2.396  18.098
 1239TIP3    H227913   3.131   2.510  18.006
 1240TIP3   OH227914   2.446   2.369  17.853
 1240TIP3    H127915   2.467   2.424  17.778
 1240TIP3    H227916   2.470   2.281  17.826
 1241TIP3   OH227917   3.248   2.335  17.695
 1241TIP3    H127918   3.325   2.294  17.736
 1241TIP3    H227919   3.237   2.288  17.612
 1242TIP3   OH227920   2.112   2.526  17.856
 1242TIP3    H127921   2.172   2.484  17.918
 1242TIP3    H227922   2.141   2.495  17.770
 1243TIP3   OH227923   2.588   2.680  17.841
 1243TIP3    H127924   2.673   2.642  17.863
 1243TIP3    H227925   2.553   2.623  17.772
 1244TIP3   OH227926   3.686   2.330  18.349
 1244TIP3    H127927   3.633   2.408  18.335
 1244TIP3    H227928   3.742   2.352  18.424
 1245TIP3   OH227929   2.328   2.188  18.223
 1245TIP3    H127930   2.299   2.244  18.151
 1245TIP3    H227931   2.262   2.199  18.291
 1246TIP3   OH227932   2.583   2.953  18.190
 1246TIP3    H127933   2.532   3.030  18.218
 1246TIP3    H227934   2.655   2.989  18.139
 1247TIP3   OH227935   3.455   2.249  17.855
 1247TIP3    H127936   3.446   2.167  17.904
 1247TIP3    H227937   3.476   2.315  17.922
 1248TIP3   OH227938   2.264   2.385  18.044
 1248TIP3    H127939   2.315   2.436  18.107
 1248TIP3    H227940   2.325   2.369  17.972
 1249TIP3   OH227941   2.429   3.168  18.275
 1249TIP3    H127942   2.399   3.199  18.190
 1249TIP3    H227943   2.350   3.167  18.329
 1250TIP3   OH227944   2.019   3.161  17.367
 1250TIP3    H127945   2.076   3.197  17.298
 1250TIP3    H227946   2.043   3.210  17.445
 1251TIP3   OH227947   3.386   2.101  18.207
 1251TIP3    H127948   3.316   2.142  18.155
 1251TIP3    H227949   3.467   2.127  18.164
 1252TIP3   OH227950   2.736   1.915  17.971
 1252TIP3    H127951   2.714   1.875  17.886
 1252TIP3    H227952   2.656   1.959  17.999
 1253TIP3   OH227953   3.501   3.114  18.415
 1253TIP3    H127954   3.495   3.050  18.344
 1253TIP3    H227955   3.503   3.199  18.372
 1254TIP3   OH227956   2.963   2.792  17.412
 1254TIP3    H127957   2.893   2.854  17.392
 1254TIP3    H227958   3.021   2.796  17.336
 1255TIP3   OH227959   2.942   2.581  17.087
 1255TIP3    H127960   3.006   2.613  17.151
 1255TIP3    H227961   2.923   2.491  17.114
 1256TIP3   OH227962   3.686   2.763  18.261
 1256TIP3    H127963   3.615   2.826  18.250
 1256TIP3    H227964   3.740   2.774  18.183
 1257TIP3   OH227965   3.344   2.846  17.529
 1257TIP3    H127966   3.257   2.858  17.566
 1257TIP3    H227967   3.377   2.765  17.569
 1258TIP3   OH227968   3.281   2.648  18.408
 1258TIP3    H127969   3.265   2.735  18.445
 1258TIP3    H227970   3.227   2.645  18.329
 1259TIP3   OH227971   2.465   2.886  17.690
 1259TIP3    H127972   2.424   2.850  17.612
 1259TIP3    H227973   2.518   2.814  17.725
 1260TIP3   OH227974   2.608   3.220  17.955
 1260TIP3    H127975   2.604   3.225  17.860
 1260TIP3    H227976   2.679   3.158  17.973
 1261TIP3   OH227977   2.442   2.756  18.057
 1261TIP3    H127978   2.491   2.732  17.979
 1261TIP3    H227979   2.496   2.823  18.099
 1262TIP3   OH227980   3.198   3.305  18.153
 1262TIP3    H127981   3.155   3.380  18.196
 1262TIP3    H227982   3.139   3.231  18.170
 1263TIP3   OH227983   2.596   3.209  18.495
 1263TIP3    H127984   2.528   3.262  18.537
 1263TIP3    H227985   2.561   3.189  18.409
 1264TIP3   OH227986   3.173   2.754  17.225
 1264TIP3    H127987   3.205   2.679  17.276
 1264TIP3    H227988   3.237   2.823  17.241
 1265TIP3   OH227989   2.283   2.831  18.471
 1265TIP3    H127990   2.293   2.897  18.402
 1265TIP3    H227991   2.195   2.796  18.458
 1266TIP3   OH227992   2.383   3.362  18.601
 1266TIP3    H127993   2.416   3.410  18.525
 1266TIP3    H227994   2.288   3.358  18.589
 1267TIP3   OH227995   2.333   2.786  17.472
 1267TIP3    H127996   2.307   2.853  17.409
 1267TIP3    H227997   2.317   2.703  17.427
 1268TIP3   OH227998   3.809   3.342  17.171
 1268TIP3    H127999   3.723   3.376  17.147
 1268TIP3    H228000   3.868   3.375  17.103
 1269TIP3   OH228001   1.988   3.025  18.340
 1269TIP3    H128002   1.938   3.037  18.259
 1269TIP3    H228003   1.995   2.930  18.350
 1270TIP3   OH228004   1.979   3.303  17.993
 1270TIP3    H128005   2.068   3.268  17.985
 1270TIP3    H228006   1.983   3.359  18.071
 1271TIP3   OH228007   3.753   3.362  18.617
 1271TIP3    H128008   3.731   3.322  18.533
 1271TIP3    H228009   3.677   3.416  18.639
 1272TIP3   OH228010   2.847   3.326  18.493
 1272TIP3    H128011   2.842   3.412  18.535
 1272TIP3    H228012   2.757   3.292  18.498
 1273TIP3   OH228013   2.826   3.766  17.433
 1273TIP3    H128014   2.870   3.732  17.355
 1273TIP3    H228015   2.889   3.826  17.472
 1274TIP3   OH228016   2.256   3.567  17.672
 1274TIP3    H128017   2.286   3.534  17.756
 1274TIP3    H228018   2.199   3.499  17.638
 1275TIP3   OH228019   3.444   2.524  18.627
 1275TIP3    H128020   3.389   2.565  18.560
 1275TIP3    H228021   3.445   2.431  18.605
 1276TIP3   OH228022   2.207   3.153  18.440
 1276TIP3    H128023   2.210   3.110  18.525
 1276TIP3    H228024   2.130   3.116  18.397
 1277TIP3   OH228025   2.479   2.015  18.052
 1277TIP3    H128026   2.477   2.035  17.958
 1277TIP3    H228027   2.414   2.073  18.090
 1278TIP3   OH228028   2.937   1.987  18.368
 1278TIP3    H128029   2.980   1.936  18.437
 1278TIP3    H228030   2.844   1.969  18.380
 1279TIP3   OH228031   3.203   2.372  18.479
 1279TIP3    H128032   3.142   2.360  18.551
 1279TIP3    H228033   3.202   2.466  18.461
 1280TIP3   OH228034   2.481   2.508  18.180
 1280TIP3    H128035   2.463   2.547  18.266
 1280TIP3    H228036   2.477   2.582  18.119
 1281TIP3   OH228037   2.462   2.541  17.639
 1281TIP3    H128038   2.370   2.517  17.626
 1281TIP3    H228039   2.503   2.528  17.553
 1282TIP3   OH228040   3.029   2.570  17.558
 1282TIP3    H128041   2.995   2.648  17.513
 1282TIP3    H228042   3.095   2.535  17.498
 1283TIP3   OH228043   2.908   2.583  18.675
 1283TIP3    H128044   2.861   2.505  18.704
 1283TIP3    H228045   2.995   2.575  18.715
 1284TIP3   OH228046   3.115   2.528  17.824
 1284TIP3    H128047   3.071   2.571  17.751
 1284TIP3    H228048   3.152   2.449  17.787
 1285TIP3   OH228049   2.218   2.516  18.331
 1285TIP3    H128050   2.288   2.519  18.396
 1285TIP3    H228051   2.187   2.426  18.333
 1286TIP3   OH228052   1.931   2.224  17.738
 1286TIP3    H128053   1.971   2.234  17.825
 1286TIP3    H228054   2.005   2.227  17.678
 1287TIP3   OH228055   1.973   2.317  17.221
 1287TIP3    H128056   2.034   2.362  17.163
 1287TIP3    H228057   1.912   2.385  17.250
 1288TIP3   OH228058   3.019   2.657  18.260
 1288TIP3    H128059   3.066   2.598  18.200
 1288TIP3    H228060   2.962   2.599  18.310
 1289TIP3   OH228061   2.762   2.286  17.765
 1289TIP3    H128062   2.684   2.232  17.756
 1289TIP3    H228063   2.821   2.234  17.821
 1290TIP3   OH228064   2.201   2.440  17.611
 1290TIP3    H128065   2.123   2.463  17.560
 1290TIP3    H228066   2.223   2.351  17.583
 1291TIP3   OH228067   2.557   2.485  17.384
 1291TIP3    H128068   2.644   2.465  17.418
 1291TIP3    H228069   2.548   2.430  17.307
 1292TIP3   OH228070   3.151   2.209  18.078
 1292TIP3    H128071   3.085   2.217  18.147
 1292TIP3    H228072   3.104   2.171  18.004
 1293TIP3   OH228073   3.491   3.767  18.715
 1293TIP3    H128074   3.511   3.805  18.629
 1293TIP3    H228075   3.565   3.792  18.770
 1294TIP3   OH228076   2.225   3.028  18.691
 1294TIP3    H128077   2.252   2.941  18.659
 1294TIP3    H228078   2.138   3.014  18.728
 1295TIP3   OH228079   2.823   2.557  17.934
 1295TIP3    H128080   2.858   2.503  17.863
 1295TIP3    H228081   2.797   2.495  18.001
 1296TIP3   OH228082   2.267   2.176  17.565
 1296TIP3    H128083   2.222   2.096  17.595
 1296TIP3    H228084   2.357   2.164  17.594
 1297TIP3   OH228085   2.738   2.406  18.156
 1297TIP3    H128086   2.648   2.439  18.159
 1297TIP3    H228087   2.777   2.435  18.238
 1298TIP3   OH228088   2.766   2.975  17.366
 1298TIP3    H128089   2.684   2.943  17.328
 1298TIP3    H228090   2.740   3.016  17.448
 1299TIP3   OH228091   3.488   2.945  18.203
 1299TIP3    H128092   3.533   2.995  18.135
 1299TIP3    H228093   3.411   2.908  18.160
 1300TIP3   OH228094   2.909   3.050  18.471
 1300TIP3    H128095   2.916   3.010  18.558
 1300TIP3    H228096   2.889   3.142  18.489
 1301TIP3   OH228097   3.215   2.501  17.352
 1301TIP3    H128098   3.303   2.478  17.385
 1301TIP3    H228099   3.193   2.429  17.293
 1302TIP3   OH228100   2.306   2.956  17.902
 1302TIP3    H128101   2.352   2.945  17.819
 1302TIP3    H228102   2.330   2.880  17.954
 1303TIP3   OH228103   2.003   2.762  18.443
 1303TIP3    H128104   1.974   2.710  18.518
 1303TIP3    H228105   1.941   2.741  18.374
 1304TIP3   OH228106   2.683   2.738  18.657
 1304TIP3    H128107   2.640   2.715  18.575
 1304TIP3    H228108   2.769   2.697  18.652
 1305TIP3   OH228109   3.137   3.288  18.482
 1305TIP3    H128110   3.048   3.298  18.447
 1305TIP3    H228111   3.130   3.321  18.572
 1306TIP3   OH228112   3.691   2.467  17.298
 1306TIP3    H128113   3.657   2.398  17.242
 1306TIP3    H228114   3.786   2.457  17.294
 1307TIP3   OH228115   3.729   3.081  18.553
 1307TIP3    H128116   3.643   3.093  18.514
 1307TIP3    H228117   3.786   3.058  18.480
 1308TIP3   OH228118   3.276   2.828  18.068
 1308TIP3    H128119   3.184   2.830  18.042
 1308TIP3    H228120   3.316   2.763  18.010
 1309TIP3   OH228121   2.524   3.294  17.693
 1309TIP3    H128122   2.545   3.379  17.655
 1309TIP3    H228123   2.444   3.266  17.649
 1310TIP3   OH228124   2.662   3.065  17.609
 1310TIP3    H128125   2.627   3.151  17.631
 1310TIP3    H228126   2.594   3.003  17.636
 1311TIP3   OH228127   2.733   3.478  18.274
 1311TIP3    H128128   2.789   3.550  18.246
 1311TIP3    H228129   2.790   3.420  18.324
 1312TIP3   OH228130   2.512   3.547  17.571
 1312TIP3    H128131   2.420   3.562  17.590
 1312TIP3    H228132   2.556   3.627  17.600
 1313TIP3   OH228133   3.028   3.082  18.223
 1313TIP3    H128134   2.989   3.064  18.308
 1313TIP3    H228135   3.077   3.003  18.201
 1314TIP3   OH228136   3.334   3.492  18.462
 1314TIP3    H128137   3.258   3.435  18.450
 1314TIP3    H228138   3.323   3.560  18.395
 1315TIP3   OH228139   3.687   3.695  17.204
 1315TIP3    H128140   3.780   3.686  17.184
 1315TIP3    H228141   3.661   3.776  17.161
 1316TIP3   OH228142   2.144   2.248  18.424
 1316TIP3    H128143   2.075   2.295  18.472
 1316TIP3    H228144   2.137   2.158  18.454
 1317TIP3   OH228145   3.367   2.959  17.284
 1317TIP3    H128146   3.369   2.919  17.371
 1317TIP3    H228147   3.383   3.052  17.300
 1318TIP3   OH228148   2.108   3.432  18.222
 1318TIP3    H128149   2.167   3.362  18.252
 1318TIP3    H228150   2.087   3.481  18.302
 1319TIP3   OH228151   2.560   3.248  17.238
 1319TIP3    H128152   2.639   3.195  17.230
 1319TIP3    H228153   2.592   3.336  17.257
 1320TIP3   OH228154   2.228   2.976  17.304
 1320TIP3    H128155   2.147   3.017  17.334
 1320TIP3    H228156   2.272   3.043  17.252
 1321TIP3   OH228157   3.010   2.247  18.321
 1321TIP3    H128158   3.094   2.257  18.366
 1321TIP3    H228159   2.986   2.155  18.334
 1322TIP3   OH228160   3.066   2.136  17.379
 1322TIP3    H128161   3.094   2.179  17.298
 1322TIP3    H228162   3.123   2.060  17.387
 1323TIP3   OH228163   2.791   2.418  17.520
 1323TIP3    H128164   2.876   2.462  17.529
 1323TIP3    H228165   2.778   2.373  17.604
 1324TIP3   OH228166   2.873   2.473  18.399
 1324TIP3    H128167   2.889   2.486  18.492
 1324TIP3    H228168   2.916   2.390  18.379
 1325TIP3   OH228169   2.931   2.087  17.631
 1325TIP3    H128170   2.857   2.143  17.608
 1325TIP3    H228171   2.987   2.087  17.553
 1326TIP3   OH228172   2.634   3.507  17.325
 1326TIP3    H128173   2.725   3.521  17.349
 1326TIP3    H228174   2.586   3.509  17.408
 1327TIP3   OH228175   3.453   2.270  18.515
 1327TIP3    H128176   3.361   2.282  18.491
 1327TIP3    H228177   3.498   2.257  18.431
 1328TIP3   OH228178   3.366   2.625  17.897
 1328TIP3    H128179   3.280   2.589  17.872
 1328TIP3    H228180   3.410   2.553  17.942
 1329TIP3   OH228181   2.285   3.215  17.168
 1329TIP3    H128182   2.379   3.228  17.183
 1329TIP3    H228183   2.269   3.251  17.081
 1330TIP3   OH228184   2.122   2.502  17.027
 1330TIP3    H128185   2.217   2.490  17.016
 1330TIP3    H228186   2.111   2.597  17.034
 1331TIP3   OH228187   3.470   3.570  18.044
 1331TIP3    H128188   3.456   3.632  17.972
 1331TIP3    H228189   3.566   3.567  18.054
 1332TIP3   OH228190   2.166   1.986  17.953
 1332TIP3    H128191   2.184   1.984  17.859
 1332TIP3    H228192   2.165   1.894  17.979
 1333TIP3   OH228193   2.078   3.375  17.555
 1333TIP3    H128194   2.008   3.405  17.614
 1333TIP3    H228195   2.071   3.432  17.478
 1334TIP3   OH228196   2.022   3.658  18.698
 1334TIP3    H128197   2.079   3.625  18.768
 1334TIP3    H228198   1.979   3.580  18.662
 1335TIP3   OH228199   2.443   3.495  18.845
 1335TIP3    H128200   2.531   3.475  18.877
 1335TIP3    H228201   2.446   3.474  18.752
 1336TIP3   OH228202   3.116   3.384  18.740
 1336TIP3    H128203   3.088   3.300  18.777
 1336TIP3    H228204   3.197   3.405  18.786
 1337TIP3   OH228205   1.971   3.019  18.798
 1337TIP3    H128206   1.926   2.937  18.817
 1337TIP3    H228207   1.924   3.056  18.723
 1338TIP3   OH228208   2.665   3.017  18.691
 1338TIP3    H128209   2.656   3.060  18.606
 1338TIP3    H228210   2.680   2.925  18.669
 1339TIP3   OH228211   3.249   3.023  18.494
 1339TIP3    H128212   3.336   3.055  18.469
 1339TIP3    H228213   3.192   3.099  18.480
 1340TIP3   OH228214   2.138   2.741  18.748
 1340TIP3    H128215   2.211   2.684  18.722
 1340TIP3    H228216   2.150   2.754  18.842
 1341TIP3   OH228217   2.547   2.842  17.259
 1341TIP3    H128218   2.519   2.776  17.323
 1341TIP3    H228219   2.598   2.793  17.195
 1342TIP3   OH228220   2.476   2.631  18.433
 1342TIP3    H128221   2.415   2.702  18.451
 1342TIP3    H228222   2.554   2.674  18.397
 1343TIP3   OH228223   2.687   2.684  17.090
 1343TIP3    H128224   2.647   2.642  17.013
 1343TIP3    H228225   2.776   2.649  17.093
 1344TIP3   OH228226   3.028   2.898  18.783
 1344TIP3    H128227   3.108   2.864  18.742
 1344TIP3    H228228   2.997   2.827  18.839
 1345TIP3   OH228229   2.551   2.383  18.540
 1345TIP3    H128230   2.566   2.317  18.473
 1345TIP3    H228231   2.538   2.465  18.492
 1346TIP3   OH228232   2.587   2.217  18.316
 1346TIP3    H128233   2.643   2.248  18.244
 1346TIP3    H228234   2.501   2.204  18.275
 1347TIP3   OH228235   2.697   2.761  18.350
 1347TIP3    H128236   2.789   2.751  18.326
 1347TIP3    H228237   2.666   2.832  18.294
 1348TIP3   OH228238   3.149   2.527  18.829
 1348TIP3    H128239   3.135   2.437  18.797
 1348TIP3    H228240   3.243   2.542  18.817
 1349TIP3   OH228241   3.295   2.834  18.680
 1349TIP3    H128242   3.271   2.902  18.617
 1349TIP3    H228243   3.387   2.816  18.662
 1350TIP3   OH228244   2.383   2.445  18.761
 1350TIP3    H128245   2.308   2.389  18.744
 1350TIP3    H228246   2.439   2.436  18.684
 1351TIP3   OH228247   2.659   1.952  18.367
 1351TIP3    H128248   2.635   2.042  18.342
 1351TIP3    H228249   2.597   1.897  18.320
 1352TIP3   OH228250   2.756   2.361  18.727
 1352TIP3    H128251   2.708   2.330  18.804
 1352TIP3    H228252   2.692   2.362  18.656
 1353TIP3   OH228253   3.035   2.313  18.686
 1353TIP3    H128254   2.942   2.300  18.707
 1353TIP3    H228255   3.080   2.240  18.729
 1354TIP3   OH228256   3.216   2.161  18.835
 1354TIP3    H128257   3.213   2.066  18.822
 1354TIP3    H228258   3.195   2.174  18.927
 1355TIP3   OH228259   2.178   2.256  18.750
 1355TIP3    H128260   2.181   2.182  18.689
 1355TIP3    H228261   2.182   2.216  18.837
 1356TIP3   OH228262   2.648   1.898  18.636
 1356TIP3    H128263   2.703   1.820  18.634
 1356TIP3    H228264   2.641   1.925  18.544
 1357TIP3   OH228265   2.696   2.038  18.864
 1357TIP3    H128266   2.684   1.990  18.781
 1357TIP3    H228267   2.641   2.116  18.854
 1358TIP3   OH228268   1.915   3.717  17.631
 1358TIP3    H128269   1.864   3.678  17.560
 1358TIP3    H228270   1.934   3.644  17.689
 1359TIP3   OH228271   1.964   3.514  17.809
 1359TIP3    H128272   1.943   3.429  17.848
 1359TIP3    H228273   1.989   3.569  17.883
 1360TIP3   OH228274   3.740   3.580  18.095
 1360TIP3    H128275   3.741   3.621  18.182
 1360TIP3    H228276   3.803   3.631  18.044
 1361TIP3   OH228277   3.663   3.594  18.374
 1361TIP3    H128278   3.617   3.518  18.337
 1361TIP3    H228279   3.741   3.556  18.416
 1362TIP3   OH228280   3.548   3.150  18.895
 1362TIP3    H128281   3.457   3.144  18.923
 1362TIP3    H228282   3.583   3.227  18.941
 1363TIP3   OH228283   3.669   3.017  17.439
 1363TIP3    H128284   3.758   3.045  17.419
 1363TIP3    H228285   3.679   2.933  17.482
 1364TIP3   OH228286   3.708   2.781  17.583
 1364TIP3    H128287   3.626   2.736  17.602
 1364TIP3    H228288   3.754   2.783  17.667
 1365TIP3   OH228289   3.658   3.085  18.037
 1365TIP3    H128290   3.722   3.015  18.029
 1365TIP3    H228291   3.709   3.165  18.026
 1366TIP3   OH228292   3.514   3.365  18.298
 1366TIP3    H128293   3.445   3.402  18.354
 1366TIP3    H228294   3.477   3.368  18.210
 1367TIP3   OH228295   3.483   2.627  17.640
 1367TIP3    H128296   3.467   2.545  17.593
 1367TIP3    H228297   3.444   2.615  17.726
 1368TIP3   OH228298   1.977   2.848  18.040
 1368TIP3    H128299   1.988   2.830  17.947
 1368TIP3    H228300   2.061   2.825  18.079
 1369TIP3   OH228301   3.574   2.835  18.624
 1369TIP3    H128302   3.622   2.752  18.621
 1369TIP3    H228303   3.624   2.894  18.568
 1370TIP3   OH228304   3.707   2.594  18.641
 1370TIP3    H128305   3.618   2.560  18.635
 1370TIP3    H228306   3.762   2.515  18.639
 1371TIP3   OH228307   3.464   2.413  17.448
 1371TIP3    H128308   3.450   2.325  17.412
 1371TIP3    H228309   3.538   2.448  17.398
 1372TIP3   OH228310   3.528   2.445  18.041
 1372TIP3    H128311   3.620   2.470  18.030
 1372TIP3    H228312   3.508   2.469  18.131
 1373TIP3   OH228313   3.524   2.545  18.304
 1373TIP3    H128314   3.441   2.582  18.335
 1373TIP3    H228315   3.580   2.621  18.288
 1374TIP3   OH228316   1.963   2.354  18.609
 1374TIP3    H128317   2.036   2.335  18.668
 1374TIP3    H228318   1.903   2.280  18.620
 1375TIP3   OH228319   3.748   1.951  18.817
 1375TIP3    H128320   3.804   1.886  18.777
 1375TIP3    H228321   3.742   2.022  18.753
 1376TIP3   OH228322   2.039   2.220  17.996
 1376TIP3    H128323   2.082   2.135  17.986
 1376TIP3    H228324   2.109   2.281  18.015
 1377TIP3   OH228325   1.908   2.517  18.048
 1377TIP3    H128326   1.964   2.500  17.972
 1377TIP3    H228327   1.953   2.587  18.095
 1378TIP3   OH228328   3.678   2.143  18.636
 1378TIP3    H128329   3.600   2.190  18.665
 1378TIP3    H228330   3.648   2.094  18.559
 1379TIP3   OH228331   1.915   2.109  17.402
 1379TIP3    H128332   1.829   2.132  17.438
 1379TIP3    H228333   1.943   2.188  17.355
 1380TIP3   OH228334   1.929   1.985  18.284
 1380TIP3    H128335   1.856   1.972  18.344
 1380TIP3    H228336   1.895   2.042  18.215
 1381TIP3   OH228337   2.137   3.333  18.747
 1381TIP3    H128338   2.054   3.332  18.700
 1381TIP3    H228339   2.131   3.408  18.806
 1382TIP3   OH228340   2.474   3.485  18.379
 1382TIP3    H128341   2.446   3.565  18.334
 1382TIP3    H228342   2.561   3.467  18.344
 1383TIP3   OH228343   2.841   3.585  18.607
 1383TIP3    H128344   2.857   3.563  18.699
 1383TIP3    H228345   2.919   3.632  18.579
 1384TIP3   OH228346   3.075   3.723  18.560
 1384TIP3    H128347   3.138   3.667  18.514
 1384TIP3    H228348   3.120   3.746  18.642
 1385TIP3   OH228349   3.584   1.929  18.453
 1385TIP3    H128350   3.508   1.938  18.396
 1385TIP3    H228351   3.616   1.840  18.436
 1386TIP3   OH228352   2.182   3.778  18.345
 1386TIP3    H128353   2.099   3.807  18.305
 1386TIP3    H228354   2.180   3.816  18.433
 1387TIP3   OH228355   2.435   3.724  18.250
 1387TIP3    H128356   2.344   3.742  18.274
 1387TIP3    H228357   2.445   3.766  18.164
 1388TIP3   OH228358   2.888   3.684  18.164
 1388TIP3    H128359   2.838   3.715  18.089
 1388TIP3    H228360   2.906   3.763  18.216
 1389TIP3   OH228361   3.100   3.545  18.276
 1389TIP3    H128362   3.026   3.585  18.231
 1389TIP3    H228363   3.174   3.601  18.256
 1390TIP3   OH228364   3.339   3.682  18.257
 1390TIP3    H128365   3.369   3.773  18.252
 1390TIP3    H228366   3.380   3.639  18.182
 1391TIP3   OH228367   2.154   3.624  18.024
 1391TIP3    H128368   2.129   3.566  18.096
 1391TIP3    H228369   2.226   3.578  17.980
 1392TIP3   OH228370   2.354   3.475  17.914
 1392TIP3    H128371   2.343   3.383  17.935
 1392TIP3    H228372   2.444   3.495  17.940
 1393TIP3   OH228373   2.613   3.494  18.020
 1393TIP3    H128374   2.623   3.403  17.991
 1393TIP3    H228375   2.645   3.493  18.111
 1394TIP3   OH228376   2.954   2.092  17.906
 1394TIP3    H128377   2.888   2.028  17.932
 1394TIP3    H228378   2.965   2.079  17.812
 1395TIP3   OH228379   3.435   1.884  17.853
 1395TIP3    H128380   3.510   1.926  17.812
 1395TIP3    H228381   3.363   1.897  17.792
 1396TIP3   OH228382   3.644   2.012  17.725
 1396TIP3    H128383   3.697   1.972  17.656
 1396TIP3    H228384   3.635   2.104  17.698
 1397TIP3   OH228385   2.147   1.947  17.672
 1397TIP3    H128386   2.060   1.920  17.642
 1397TIP3    H228387   2.202   1.870  17.656
 1398TIP3   OH228388   2.062   1.937  17.241
 1398TIP3    H128389   2.124   2.005  17.214
 1398TIP3    H228390   2.017   1.976  17.316
 1399TIP3   OH228391   2.671   1.840  17.660
 1399TIP3    H128392   2.756   1.874  17.632
 1399TIP3    H228393   2.619   1.917  17.678
 1400TIP3   OH228394   2.027   3.551  17.354
 1400TIP3    H128395   1.955   3.538  17.292
 1400TIP3    H228396   2.064   3.636  17.329
 1401TIP3   OH228397   2.228   2.135  17.151
 1401TIP3    H128398   2.312   2.147  17.107
 1401TIP3    H228399   2.229   2.199  17.222
 1402TIP3   OH228400   2.773   2.116  17.348
 1402TIP3    H128401   2.867   2.134  17.354
 1402TIP3    H228402   2.734   2.200  17.324
 1403TIP3   OH228403   2.960   3.699  17.198
 1403TIP3    H128404   3.005   3.746  17.129
 1403TIP3    H228405   3.007   3.616  17.205
 1404TIP3   OH228406   3.597   3.634  17.470
 1404TIP3    H128407   3.624   3.638  17.379
 1404TIP3    H228408   3.529   3.701  17.477
 1405TIP3   OH228409   2.156   2.005  18.610
 1405TIP3    H128410   2.094   1.932  18.623
 1405TIP3    H228411   2.233   1.980  18.661
 1406TIP3   OH228412   2.353   1.932  18.797
 1406TIP3    H128413   2.439   1.906  18.764
 1406TIP3    H228414   2.316   1.851  18.833
 1407TIP3   OH228415   3.228   1.888  18.795
 1407TIP3    H128416   3.220   1.837  18.875
 1407TIP3    H228417   3.319   1.877  18.769
 1408TIP3   OH228418   3.518   3.494  18.667
 1408TIP3    H128419   3.454   3.485  18.596
 1408TIP3    H228420   3.514   3.585  18.693
 1409TIP3   OH228421   4.969   2.895  17.643
 1409TIP3    H128422   4.956   2.989  17.640
 1409TIP3    H228423   4.909   2.860  17.577
 1410TIP3   OH228424   4.863   2.767  18.025
 1410TIP3    H128425   4.880   2.745  18.116
 1410TIP3    H228426   4.793   2.708  17.998
 1411TIP3   OH228427   4.052   2.756  18.167
 1411TIP3    H128428   4.059   2.667  18.199
 1411TIP3    H228429   4.112   2.807  18.221
 1412TIP3   OH228430   5.226   3.041  17.826
 1412TIP3    H128431   5.190   2.982  17.892
 1412TIP3    H228432   5.239   3.124  17.872
 1413TIP3   OH228433   4.201   3.218  17.972
 1413TIP3    H128434   4.171   3.130  17.950
 1413TIP3    H228435   4.296   3.210  17.978
 1414TIP3   OH228436   3.853   2.548  17.528
 1414TIP3    H128437   3.806   2.631  17.533
 1414TIP3    H228438   3.787   2.484  17.502
 1415TIP3   OH228439   3.893   2.781  17.801
 1415TIP3    H128440   3.926   2.692  17.816
 1415TIP3    H228441   3.971   2.834  17.788
 1416TIP3   OH228442   4.930   3.597  17.911
 1416TIP3    H128443   4.971   3.573  17.828
 1416TIP3    H228444   4.933   3.518  17.964
 1417TIP3   OH228445   4.679   3.052  18.058
 1417TIP3    H128446   4.721   2.997  17.992
 1417TIP3    H228447   4.749   3.072  18.120
 1418TIP3   OH228448   5.595   2.181  18.138
 1418TIP3    H128449   5.583   2.251  18.203
 1418TIP3    H228450   5.664   2.213  18.080
 1419TIP3   OH228451   5.040   2.460  18.099
 1419TIP3    H128452   5.062   2.366  18.101
 1419TIP3    H228453   5.014   2.476  18.008
 1420TIP3   OH228454   4.366   2.307  17.767
 1420TIP3    H128455   4.369   2.401  17.750
 1420TIP3    H228456   4.361   2.268  17.679
 1421TIP3   OH228457   5.074   2.293  17.658
 1421TIP3    H128458   5.127   2.233  17.605
 1421TIP3    H228459   5.027   2.346  17.594
 1422TIP3   OH228460   4.001   2.523  17.860
 1422TIP3    H128461   4.063   2.475  17.915
 1422TIP3    H228462   4.019   2.493  17.771
 1423TIP3   OH228463   4.497   2.682  17.828
 1423TIP3    H128464   4.578   2.637  17.849
 1423TIP3    H228465   4.458   2.630  17.757
 1424TIP3   OH228466   5.549   2.340  18.360
 1424TIP3    H128467   5.500   2.418  18.333
 1424TIP3    H228468   5.612   2.373  18.424
 1425TIP3   OH228469   4.227   2.176  18.204
 1425TIP3    H128470   4.199   2.229  18.129
 1425TIP3    H228471   4.163   2.197  18.272
 1426TIP3   OH228472   4.901   3.151  17.564
 1426TIP3    H128473   4.908   3.130  17.470
 1426TIP3    H228474   4.873   3.242  17.566
 1427TIP3   OH228475   4.454   2.965  18.192
 1427TIP3    H128476   4.399   3.039  18.221
 1427TIP3    H228477   4.527   3.006  18.147
 1428TIP3   OH228478   4.194   2.351  17.986
 1428TIP3    H128479   4.247   2.408  18.042
 1428TIP3    H228480   4.252   2.330  17.913
 1429TIP3   OH228481   4.304   3.177  18.293
 1429TIP3    H128482   4.311   3.268  18.263
 1429TIP3    H228483   4.217   3.172  18.332
 1430TIP3   OH228484   3.911   3.146  17.354
 1430TIP3    H128485   3.868   3.206  17.293
 1430TIP3    H228486   3.937   3.201  17.427
 1431TIP3   OH228487   5.269   3.366  17.989
 1431TIP3    H128488   5.246   3.303  18.057
 1431TIP3    H228489   5.192   3.369  17.933
 1432TIP3   OH228490   5.296   2.072  18.175
 1432TIP3    H128491   5.217   2.110  18.137
 1432TIP3    H228492   5.361   2.141  18.172
 1433TIP3   OH228493   4.603   1.938  17.981
 1433TIP3    H128494   4.542   1.872  17.945
 1433TIP3    H228495   4.546   2.008  18.013
 1434TIP3   OH228496   5.073   3.474  17.697
 1434TIP3    H128497   5.115   3.389  17.686
 1434TIP3    H228498   5.102   3.525  17.621
 1435TIP3   OH228499   5.203   3.244  17.627
 1435TIP3    H128500   5.201   3.234  17.532
 1435TIP3    H228501   5.204   3.154  17.661
 1436TIP3   OH228502   5.395   3.089  18.449
 1436TIP3    H128503   5.397   3.024  18.379
 1436TIP3    H228504   5.337   3.158  18.417
 1437TIP3   OH228505   4.832   2.770  17.435
 1437TIP3    H128506   4.766   2.836  17.414
 1437TIP3    H228507   4.888   2.767  17.358
 1438TIP3   OH228508   5.580   2.749  18.279
 1438TIP3    H128509   5.509   2.812  18.272
 1438TIP3    H228510   5.628   2.758  18.197
 1439TIP3   OH228511   5.200   2.802  17.531
 1439TIP3    H128512   5.128   2.838  17.582
 1439TIP3    H228513   5.264   2.774  17.597
 1440TIP3   OH228514   5.166   2.658  18.418
 1440TIP3    H128515   5.168   2.741  18.466
 1440TIP3    H228516   5.094   2.669  18.356
 1441TIP3   OH228517   4.322   2.873  17.705
 1441TIP3    H128518   4.297   2.837  17.620
 1441TIP3    H228519   4.391   2.814  17.737
 1442TIP3   OH228520   4.480   3.230  17.956
 1442TIP3    H128521   4.487   3.238  17.861
 1442TIP3    H228522   4.555   3.175  17.981
 1443TIP3   OH228523   4.347   2.758  18.046
 1443TIP3    H128524   4.402   2.747  17.968
 1443TIP3    H228525   4.386   2.832  18.092
 1444TIP3   OH228526   4.976   3.385  18.096
 1444TIP3    H128527   4.998   3.426  18.180
 1444TIP3    H228528   5.011   3.296  18.102
 1445TIP3   OH228529   4.480   3.205  18.503
 1445TIP3    H128530   4.418   3.262  18.549
 1445TIP3    H228531   4.434   3.178  18.424
 1446TIP3   OH228532   5.082   2.746  17.287
 1446TIP3    H128533   5.125   2.775  17.367
 1446TIP3    H228534   5.061   2.827  17.240
 1447TIP3   OH228535   4.099   2.885  18.418
 1447TIP3    H128536   4.174   2.884  18.478
 1447TIP3    H228537   4.035   2.825  18.458
 1448TIP3   OH228538   4.827   3.428  17.556
 1448TIP3    H128539   4.911   3.447  17.599
 1448TIP3    H228540   4.797   3.514  17.525
 1449TIP3   OH228541   4.293   3.386  18.598
 1449TIP3    H128542   4.297   3.420  18.508
 1449TIP3    H228543   4.199   3.384  18.618
 1450TIP3   OH228544   4.232   2.772  17.456
 1450TIP3    H128545   4.189   2.843  17.408
 1450TIP3    H228546   4.195   2.692  17.419
 1451TIP3   OH228547   5.598   3.321  17.196
 1451TIP3    H128548   5.584   3.410  17.164
 1451TIP3    H228549   5.667   3.286  17.140
 1452TIP3   OH228550   3.874   3.024  18.322
 1452TIP3    H128551   3.844   3.003  18.234
 1452TIP3    H228552   3.938   2.956  18.343
 1453TIP3   OH228553   3.817   3.316  18.022
 1453TIP3    H128554   3.908   3.304  18.050
 1453TIP3    H228555   3.790   3.398  18.065
 1454TIP3   OH228556   5.656   3.394  18.606
 1454TIP3    H128557   5.644   3.301  18.590
 1454TIP3    H228558   5.570   3.425  18.636
 1455TIP3   OH228559   4.727   3.328  18.497
 1455TIP3    H128560   4.720   3.414  18.539
 1455TIP3    H228561   4.639   3.291  18.504
 1456TIP3   OH228562   4.748   3.665  17.431
 1456TIP3    H128563   4.771   3.643  17.341
 1456TIP3    H228564   4.773   3.757  17.441
 1457TIP3   OH228565   4.138   3.578  17.657
 1457TIP3    H128566   4.174   3.541  17.738
 1457TIP3    H228567   4.091   3.506  17.617
 1458TIP3   OH228568   5.342   2.496  18.614
 1458TIP3    H128569   5.284   2.548  18.558
 1458TIP3    H228570   5.320   2.405  18.592
 1459TIP3   OH228571   4.061   3.193  18.440
 1459TIP3    H128572   4.094   3.139  18.511
 1459TIP3    H228573   3.999   3.137  18.394
 1460TIP3   OH228574   4.833   1.974  18.374
 1460TIP3    H128575   4.878   1.928  18.444
 1460TIP3    H228576   4.739   1.961  18.392
 1461TIP3   OH228577   5.098   2.372  18.471
 1461TIP3    H128578   5.038   2.349  18.543
 1461TIP3    H228579   5.085   2.466  18.458
 1462TIP3   OH228580   4.360   2.504  18.146
 1462TIP3    H128581   4.334   2.525  18.236
 1462TIP3    H228582   4.354   2.588  18.100
 1463TIP3   OH228583   4.351   2.543  17.638
 1463TIP3    H128584   4.257   2.534  17.624
 1463TIP3    H228585   4.390   2.535  17.551
 1464TIP3   OH228586   4.924   2.538  17.553
 1464TIP3    H128587   4.885   2.623  17.530
 1464TIP3    H228588   4.987   2.521  17.484
 1465TIP3   OH228589   4.830   2.559  18.666
 1465TIP3    H128590   4.771   2.489  18.694
 1465TIP3    H228591   4.841   2.613  18.744
 1466TIP3   OH228592   4.978   2.489  17.833
 1466TIP3    H128593   4.958   2.551  17.762
 1466TIP3    H228594   5.008   2.410  17.788
 1467TIP3   OH228595   4.078   2.516  18.304
 1467TIP3    H128596   4.154   2.553  18.348
 1467TIP3    H228597   4.074   2.426  18.335
 1468TIP3   OH228598   4.926   2.639  18.267
 1468TIP3    H128599   4.971   2.576  18.209
 1468TIP3    H228600   4.865   2.585  18.317
 1469TIP3   OH228601   4.648   2.269  17.760
 1469TIP3    H128602   4.553   2.259  17.768
 1469TIP3    H228603   4.670   2.336  17.824
 1470TIP3   OH228604   4.083   2.432  17.602
 1470TIP3    H128605   4.009   2.486  17.574
 1470TIP3    H228606   4.062   2.344  17.570
 1471TIP3   OH228607   4.458   2.463  17.395
 1471TIP3    H128608   4.542   2.452  17.439
 1471TIP3    H228609   4.476   2.441  17.303
 1472TIP3   OH228610   5.065   2.173  18.056
 1472TIP3    H128611   5.015   2.184  18.137
 1472TIP3    H228612   5.002   2.136  17.994
 1473TIP3   OH228613   4.285   2.534  17.173
 1473TIP3    H128614   4.270   2.496  17.259
 1473TIP3    H228615   4.372   2.503  17.148
 1474TIP3   OH228616   5.374   3.768  18.720
 1474TIP3    H128617   5.393   3.793  18.630
 1474TIP3    H228618   5.454   3.788  18.768
 1475TIP3   OH228619   4.134   3.043  18.681
 1475TIP3    H128620   4.215   3.046  18.732
 1475TIP3    H228621   4.100   2.954  18.694
 1476TIP3   OH228622   4.709   2.511  17.924
 1476TIP3    H128623   4.802   2.504  17.906
 1476TIP3    H228624   4.698   2.470  18.010
 1477TIP3   OH228625   4.621   2.405  18.170
 1477TIP3    H128626   4.539   2.453  18.166
 1477TIP3    H228627   4.664   2.437  18.249
 1478TIP3   OH228628   4.637   2.954  17.371
 1478TIP3    H128629   4.559   2.932  17.320
 1478TIP3    H228630   4.603   2.996  17.450
 1479TIP3   OH228631   5.385   2.925  18.228
 1479TIP3    H128632   5.437   2.981  18.171
 1479TIP3    H228633   5.294   2.945  18.205
 1480TIP3   OH228634   4.826   3.046  18.495
 1480TIP3    H128635   4.808   3.003  18.579
 1480TIP3    H228636   4.786   3.132  18.504
 1481TIP3   OH228637   5.101   2.477  17.348
 1481TIP3    H128638   5.089   2.567  17.317
 1481TIP3    H228639   5.072   2.422  17.275
 1482TIP3   OH228640   4.152   2.944  17.909
 1482TIP3    H128641   4.209   2.931  17.833
 1482TIP3    H228642   4.177   2.876  17.971
 1483TIP3   OH228643   4.882   3.070  17.298
 1483TIP3    H128644   4.898   3.123  17.220
 1483TIP3    H228645   4.788   3.053  17.297
 1484TIP3   OH228646   3.853   2.772  18.485
 1484TIP3    H128647   3.823   2.702  18.544
 1484TIP3    H228648   3.803   2.758  18.404
 1485TIP3   OH228649   4.530   2.610  18.564
 1485TIP3    H128650   4.565   2.664  18.493
 1485TIP3    H228651   4.552   2.658  18.644
 1486TIP3   OH228652   5.056   3.307  18.504
 1486TIP3    H128653   5.006   3.284  18.426
 1486TIP3    H228654   4.990   3.334  18.568
 1487TIP3   OH228655   5.624   3.114  18.595
 1487TIP3    H128656   5.532   3.112  18.569
 1487TIP3    H228657   5.671   3.085  18.517
 1488TIP3   OH228658   5.136   2.848  18.008
 1488TIP3    H128659   5.041   2.836  18.004
 1488TIP3    H228660   5.172   2.770  17.966
 1489TIP3   OH228661   4.427   3.301  17.687
 1489TIP3    H128662   4.462   3.381  17.649
 1489TIP3    H228663   4.338   3.295  17.652
 1490TIP3   OH228664   4.507   3.051  17.591
 1490TIP3    H128665   4.501   3.141  17.622
 1490TIP3    H228666   4.441   3.004  17.642
 1491TIP3   OH228667   4.611   3.480  18.273
 1491TIP3    H128668   4.672   3.546  18.241
 1491TIP3    H228669   4.666   3.418  18.322
 1492TIP3   OH228670   4.406   3.559  17.569
 1492TIP3    H128671   4.313   3.579  17.575
 1492TIP3    H228672   4.450   3.643  17.585
 1493TIP3   OH228673   4.894   3.064  18.225
 1493TIP3    H128674   4.882   3.046  18.319
 1493TIP3    H228675   4.987   3.083  18.216
 1494TIP3   OH228676   5.137   3.236  17.241
 1494TIP3    H128677   5.181   3.152  17.250
 1494TIP3    H228678   5.154   3.263  17.151
 1495TIP3   OH228679   5.250   3.491  18.458
 1495TIP3    H128680   5.184   3.422  18.468
 1495TIP3    H228681   5.211   3.552  18.395
 1496TIP3   OH228682   5.644   3.605  17.151
 1496TIP3    H128683   5.684   3.640  17.071
 1496TIP3    H228684   5.557   3.646  17.153
 1497TIP3   OH228685   4.054   2.252  18.419
 1497TIP3    H128686   3.980   2.292  18.464
 1497TIP3    H228687   4.067   2.169  18.465
 1498TIP3   OH228688   5.269   2.994  17.342
 1498TIP3    H128689   5.250   2.941  17.419
 1498TIP3    H228690   5.364   3.003  17.340
 1499TIP3   OH228691   4.008   3.445  18.254
 1499TIP3    H128692   4.037   3.362  18.291
 1499TIP3    H228693   4.052   3.512  18.307
 1500TIP3   OH228694   4.104   2.955  17.296
 1500TIP3    H128695   4.042   3.023  17.322
 1500TIP3    H228696   4.179   3.005  17.260
 1501TIP3   OH228697   4.942   2.215  18.293
 1501TIP3    H128698   4.996   2.252  18.363
 1501TIP3    H228699   4.905   2.135  18.331
 1502TIP3   OH228700   4.747   3.360  17.291
 1502TIP3    H128701   4.772   3.379  17.382
 1502TIP3    H228702   4.830   3.360  17.243
 1503TIP3   OH228703   4.686   2.393  17.517
 1503TIP3    H128704   4.766   2.446  17.514
 1503TIP3    H228705   4.687   2.354  17.605
 1504TIP3   OH228706   4.767   2.464  18.409
 1504TIP3    H128707   4.777   2.506  18.494
 1504TIP3    H228708   4.803   2.376  18.420
 1505TIP3   OH228709   4.805   2.051  17.636
 1505TIP3    H128710   4.754   2.132  17.631
 1505TIP3    H228711   4.858   2.051  17.556
 1506TIP3   OH228712   4.422   3.552  17.267
 1506TIP3    H128713   4.484   3.615  17.231
 1506TIP3    H228714   4.448   3.541  17.358
 1507TIP3   OH228715   5.331   2.224  18.492
 1507TIP3    H128716   5.245   2.260  18.470
 1507TIP3    H228717   5.390   2.263  18.427
 1508TIP3   OH228718   5.235   2.604  17.896
 1508TIP3    H128719   5.148   2.564  17.888
 1508TIP3    H228720   5.284   2.543  17.951
 1509TIP3   OH228721   5.360   3.610  18.072
 1509TIP3    H128722   5.328   3.525  18.042
 1509TIP3    H228723   5.455   3.603  18.067
 1510TIP3   OH228724   3.967   3.345  17.551
 1510TIP3    H128725   3.913   3.380  17.621
 1510TIP3    H228726   3.959   3.409  17.480
 1511TIP3   OH228727   3.914   3.650  18.708
 1511TIP3    H128728   3.977   3.639  18.779
 1511TIP3    H228729   3.896   3.560  18.679
 1512TIP3   OH228730   4.344   3.524  18.835
 1512TIP3    H128731   4.427   3.488  18.868
 1512TIP3    H228732   4.332   3.480  18.751
 1513TIP3   OH228733   4.987   3.401  18.759
 1513TIP3    H128734   4.969   3.313  18.790
 1513TIP3    H228735   5.078   3.417  18.784
 1514TIP3   OH228736   3.861   2.975  18.789
 1514TIP3    H128737   3.899   2.899  18.833
 1514TIP3    H228738   3.861   2.952  18.697
 1515TIP3   OH228739   4.581   3.103  18.736
 1515TIP3    H128740   4.557   3.113  18.644
 1515TIP3    H228741   4.600   3.009  18.746
 1516TIP3   OH228742   5.111   2.984  18.511
 1516TIP3    H128743   5.165   3.045  18.459
 1516TIP3    H228744   5.024   3.023  18.510
 1517TIP3   OH228745   4.054   2.763  18.738
 1517TIP3    H128746   4.071   2.671  18.717
 1517TIP3    H228747   4.056   2.766  18.834
 1518TIP3   OH228748   4.421   2.848  17.232
 1518TIP3    H128749   4.381   2.792  17.299
 1518TIP3    H228750   4.466   2.787  17.174
 1519TIP3   OH228751   4.318   2.627  18.391
 1519TIP3    H128752   4.359   2.606  18.475
 1519TIP3    H228753   4.376   2.691  18.351
 1520TIP3   OH228754   4.882   2.918  18.774
 1520TIP3    H128755   4.946   2.847  18.772
 1520TIP3    H228756   4.799   2.874  18.793
 1521TIP3   OH228757   4.444   2.351  18.549
 1521TIP3    H128758   4.464   2.300  18.471
 1521TIP3    H228759   4.487   2.435  18.534
 1522TIP3   OH228760   4.482   2.204  18.309
 1522TIP3    H128761   4.535   2.258  18.250
 1522TIP3    H228762   4.395   2.203  18.269
 1523TIP3   OH228763   4.576   2.766  18.338
 1523TIP3    H128764   4.669   2.787  18.339
 1523TIP3    H228765   4.535   2.839  18.290
 1524TIP3   OH228766   5.129   2.492  18.860
 1524TIP3    H128767   5.148   2.408  18.820
 1524TIP3    H228768   5.166   2.557  18.800
 1525TIP3   OH228769   5.206   2.809  18.692
 1525TIP3    H128770   5.162   2.875  18.639
 1525TIP3    H228771   5.297   2.813  18.665
 1526TIP3   OH228772   4.259   2.431  18.737
 1526TIP3    H128773   4.184   2.372  18.725
 1526TIP3    H228774   4.318   2.409  18.665
 1527TIP3   OH228775   4.553   1.944  18.360
 1527TIP3    H128776   4.532   2.036  18.348
 1527TIP3    H228777   4.486   1.897  18.311
 1528TIP3   OH228778   4.665   2.348  18.730
 1528TIP3    H128779   4.633   2.329  18.818
 1528TIP3    H228780   4.588   2.342  18.674
 1529TIP3   OH228781   4.934   2.267  18.660
 1529TIP3    H128782   4.850   2.286  18.702
 1529TIP3    H228783   4.986   2.224  18.728
 1530TIP3   OH228784   5.126   2.157  18.841
 1530TIP3    H128785   5.108   2.064  18.828
 1530TIP3    H228786   5.092   2.176  18.928
 1531TIP3   OH228787   4.052   2.247  18.746
 1531TIP3    H128788   4.051   2.162  18.702
 1531TIP3    H228789   4.062   2.226  18.839
 1532TIP3   OH228790   4.546   1.887  18.630
 1532TIP3    H128791   4.597   1.806  18.627
 1532TIP3    H228792   4.539   1.914  18.538
 1533TIP3   OH228793   4.586   2.029  18.860
 1533TIP3    H128794   4.576   1.983  18.777
 1533TIP3    H228795   4.527   2.103  18.854
 1534TIP3   OH228796   4.591   3.764  17.113
 1534TIP3    H128797   4.669   3.711  17.126
 1534TIP3    H228798   4.613   3.822  17.041
 1535TIP3   OH228799   3.776   3.710  17.665
 1535TIP3    H128800   3.717   3.689  17.593
 1535TIP3    H228801   3.800   3.625  17.702
 1536TIP3   OH228802   3.869   3.482  17.799
 1536TIP3    H128803   3.839   3.413  17.858
 1536TIP3    H228804   3.928   3.536  17.853
 1537TIP3   OH228805   5.642   3.629  18.086
 1537TIP3    H128806   5.640   3.610  18.180
 1537TIP3    H228807   5.735   3.634  18.064
 1538TIP3   OH228808   5.589   3.579  18.387
 1538TIP3    H128809   5.532   3.517  18.341
 1538TIP3    H228810   5.637   3.524  18.449
 1539TIP3   OH228811   5.423   3.132  18.882
 1539TIP3    H128812   5.332   3.140  18.913
 1539TIP3    H228813   5.467   3.209  18.918
 1540TIP3   OH228814   5.553   2.932  17.349
 1540TIP3    H128815   5.610   3.010  17.355
 1540TIP3    H228816   5.576   2.881  17.427
 1541TIP3   OH228817   5.614   2.766  17.570
 1541TIP3    H128818   5.529   2.742  17.607
 1541TIP3    H228819   5.667   2.790  17.645
 1542TIP3   OH228820   5.548   3.084  18.076
 1542TIP3    H128821   5.633   3.055  18.042
 1542TIP3    H228822   5.531   3.166  18.031
 1543TIP3   OH228823   5.438   3.376  18.289
 1543TIP3    H128824   5.364   3.403  18.343
 1543TIP3    H228825   5.404   3.304  18.237
 1544TIP3   OH228826   5.391   2.647  17.678
 1544TIP3    H128827   5.369   2.563  17.639
 1544TIP3    H228828   5.343   2.649  17.761
 1545TIP3   OH228829   3.838   2.876  18.053
 1545TIP3    H128830   3.838   2.848  17.962
 1545TIP3    H228831   3.920   2.841  18.089
 1546TIP3   OH228832   5.470   2.829  18.616
 1546TIP3    H128833   5.525   2.753  18.599
 1546TIP3    H228834   5.496   2.893  18.549
 1547TIP3   OH228835   5.598   2.589  18.620
 1547TIP3    H128836   5.509   2.554  18.620
 1547TIP3    H228837   5.655   2.512  18.629
 1548TIP3   OH228838   5.356   2.422  17.511
 1548TIP3    H128839   5.300   2.348  17.487
 1548TIP3    H228840   5.325   2.493  17.455
 1549TIP3   OH228841   5.406   2.431  18.038
 1549TIP3    H128842   5.498   2.454  18.027
 1549TIP3    H228843   5.383   2.464  18.124
 1550TIP3   OH228844   5.390   2.548  18.289
 1550TIP3    H128845   5.309   2.587  18.321
 1550TIP3    H228846   5.451   2.622  18.282
 1551TIP3   OH228847   3.846   2.356  18.601
 1551TIP3    H128848   3.919   2.344  18.661
 1551TIP3    H228849   3.788   2.282  18.618
 1552TIP3   OH228850   5.640   1.954  18.823
 1552TIP3    H128851   5.691   1.888  18.777
 1552TIP3    H228852   5.628   2.024  18.759
 1553TIP3   OH228853   3.798   2.505  18.052
 1553TIP3    H128854   3.854   2.514  17.975
 1553TIP3    H228855   3.856   2.522  18.126
 1554TIP3   OH228856   5.563   2.154  18.652
 1554TIP3    H128857   5.498   2.192  18.711
 1554TIP3    H228858   5.513   2.130  18.574
 1555TIP3   OH228859   3.807   1.989  18.284
 1555TIP3    H128860   3.740   1.978  18.351
 1555TIP3    H228861   3.766   2.044  18.217
 1556TIP3   OH228862   4.033   3.350  18.700
 1556TIP3    H128863   3.966   3.331  18.635
 1556TIP3    H228864   4.069   3.264  18.724
 1557TIP3   OH228865   4.340   3.463  18.335
 1557TIP3    H128866   4.321   3.551  18.302
 1557TIP3    H228867   4.435   3.454  18.324
 1558TIP3   OH228868   4.722   3.597  18.612
 1558TIP3    H128869   4.740   3.574  18.703
 1558TIP3    H228870   4.802   3.642  18.583
 1559TIP3   OH228871   4.961   3.730  18.559
 1559TIP3    H128872   5.009   3.664  18.508
 1559TIP3    H228873   5.014   3.741  18.639
 1560TIP3   OH228874   5.464   1.946  18.451
 1560TIP3    H128875   5.393   1.989  18.404
 1560TIP3    H228876   5.472   1.860  18.408
 1561TIP3   OH228877   4.063   3.757  18.347
 1561TIP3    H128878   3.982   3.792  18.311
 1561TIP3    H228879   4.070   3.797  18.434
 1562TIP3   OH228880   4.318   3.722  18.247
 1562TIP3    H128881   4.228   3.741  18.272
 1562TIP3    H228882   4.331   3.768  18.164
 1563TIP3   OH228883   4.789   3.666  18.165
 1563TIP3    H128884   4.819   3.664  18.074
 1563TIP3    H228885   4.799   3.758  18.191
 1564TIP3   OH228886   5.003   3.573  18.315
 1564TIP3    H128887   4.922   3.592  18.267
 1564TIP3    H228888   5.067   3.634  18.280
 1565TIP3   OH228889   5.226   3.735  18.271
 1565TIP3    H128890   5.231   3.826  18.242
 1565TIP3    H228891   5.271   3.685  18.202
 1566TIP3   OH228892   4.020   3.601  18.018
 1566TIP3    H128893   4.012   3.553  18.101
 1566TIP3    H228894   4.100   3.566  17.978
 1567TIP3   OH228895   4.233   3.483  17.901
 1567TIP3    H128896   4.222   3.390  17.918
 1567TIP3    H228897   4.323   3.502  17.929
 1568TIP3   OH228898   4.487   3.505  18.019
 1568TIP3    H128899   4.498   3.415  17.988
 1568TIP3    H228900   4.525   3.506  18.107
 1569TIP3   OH228901   4.866   2.057  17.904
 1569TIP3    H128902   4.780   2.030  17.934
 1569TIP3    H228903   4.857   2.063  17.809
 1570TIP3   OH228904   4.513   1.996  17.670
 1570TIP3    H128905   4.522   2.026  17.580
 1570TIP3    H228906   4.602   1.999  17.705
 1571TIP3   OH228907   3.928   3.523  17.353
 1571TIP3    H128908   3.876   3.467  17.296
 1571TIP3    H228909   3.956   3.595  17.297
 1572TIP3   OH228910   4.566   2.125  17.429
 1572TIP3    H128911   4.602   2.085  17.350
 1572TIP3    H228912   4.573   2.219  17.413
 1573TIP3   OH228913   4.827   3.616  17.149
 1573TIP3    H128914   4.914   3.647  17.124
 1573TIP3    H228915   4.819   3.530  17.108
 1574TIP3   OH228916   4.049   1.997  18.612
 1574TIP3    H128917   3.988   1.926  18.632
 1574TIP3    H228918   4.125   1.979  18.667
 1575TIP3   OH228919   4.239   1.937  18.804
 1575TIP3    H128920   4.328   1.911  18.782
 1575TIP3    H228921   4.199   1.858  18.841
 1576TIP3   OH228922   5.106   1.883  18.802
 1576TIP3    H128923   5.097   1.831  18.882
 1576TIP3    H228924   5.197   1.871  18.776
 1577TIP3   OH228925   5.412   3.495  18.677
 1577TIP3    H128926   5.359   3.478  18.599
 1577TIP3    H228927   5.390   3.585  18.702
 1578TIP3   OH228928   6.029   2.755  18.118
 1578TIP3    H128929   5.977   2.703  18.180
 1578TIP3    H228930   5.990   2.843  18.123
 1579TIP3   OH228931   7.155   3.064  17.874
 1579TIP3    H128932   7.089   3.025  17.930
 1579TIP3    H228933   7.153   3.157  17.895
 1580TIP3   OH228934   6.101   3.255  18.026
 1580TIP3    H128935   6.034   3.187  18.030
 1580TIP3    H228936   6.174   3.213  17.980
 1581TIP3   OH228937   5.716   2.512  17.518
 1581TIP3    H128938   5.705   2.607  17.517
 1581TIP3    H228939   5.638   2.479  17.563
 1582TIP3   OH228940   5.796   2.772  17.780
 1582TIP3    H128941   5.833   2.688  17.808
 1582TIP3    H228942   5.872   2.827  17.761
 1583TIP3   OH228943   6.828   3.601  17.841
 1583TIP3    H128944   6.812   3.557  17.757
 1583TIP3    H228945   6.821   3.532  17.906
 1584TIP3   OH228946   6.595   3.053  18.035
 1584TIP3    H128947   6.645   3.077  17.957
 1584TIP3    H228948   6.659   3.055  18.106
 1585TIP3   OH228949   7.423   2.212  18.102
 1585TIP3    H128950   7.446   2.262  18.180
 1585TIP3    H228951   7.454   2.265  18.029
 1586TIP3   OH228952   6.875   2.462  18.056
 1586TIP3    H128953   6.928   2.384  18.071
 1586TIP3    H228954   6.785   2.434  18.071
 1587TIP3   OH228955   6.244   2.267  17.772
 1587TIP3    H128956   6.247   2.355  17.733
 1587TIP3    H228957   6.189   2.216  17.712
 1588TIP3   OH228958   7.033   2.318  17.639
 1588TIP3    H128959   7.069   2.294  17.724
 1588TIP3    H228960   7.106   2.356  17.591
 1589TIP3   OH228961   5.885   2.519  17.860
 1589TIP3    H128962   5.955   2.487  17.917
 1589TIP3    H228963   5.910   2.489  17.772
 1590TIP3   OH228964   6.406   2.636  17.798
 1590TIP3    H128965   6.368   2.675  17.877
 1590TIP3    H228966   6.332   2.594  17.754
 1591TIP3   OH228967   7.460   2.326  18.351
 1591TIP3    H128968   7.405   2.404  18.344
 1591TIP3    H228969   7.535   2.354  18.402
 1592TIP3   OH228970   6.104   2.203  18.214
 1592TIP3    H128971   6.075   2.258  18.142
 1592TIP3    H228972   6.038   2.216  18.282
 1593TIP3   OH228973   6.380   2.962  18.195
 1593TIP3    H128974   6.312   3.026  18.217
 1593TIP3    H228975   6.438   3.009  18.135
 1594TIP3   OH228976   7.138   2.276  17.884
 1594TIP3    H128977   7.077   2.226  17.938
 1594TIP3    H228978   7.183   2.334  17.945
 1595TIP3   OH228979   6.077   2.353  17.981
 1595TIP3    H128980   6.134   2.413  18.029
 1595TIP3    H228981   6.133   2.316  17.913
 1596TIP3   OH228982   6.209   3.169  18.272
 1596TIP3    H128983   6.185   3.211  18.190
 1596TIP3    H228984   6.128   3.166  18.323
 1597TIP3   OH228985   5.774   3.122  17.381
 1597TIP3    H128986   5.761   3.163  17.295
 1597TIP3    H228987   5.782   3.196  17.442
 1598TIP3   OH228988   7.166   3.294  18.061
 1598TIP3    H128989   7.071   3.293  18.078
 1598TIP3    H228990   7.182   3.380  18.022
 1599TIP3   OH228991   7.182   2.094  18.199
 1599TIP3    H128992   7.105   2.132  18.156
 1599TIP3    H228993   7.257   2.136  18.158
 1600TIP3   OH228994   6.460   1.887  17.964
 1600TIP3    H128995   6.428   1.797  17.969
 1600TIP3    H228996   6.385   1.940  17.991
 1601TIP3   OH228997   7.034   3.360  17.741
 1601TIP3    H128998   6.948   3.378  17.702
 1601TIP3    H228999   7.087   3.436  17.718
 1602TIP3   OH229000   7.121   3.179  17.527
 1602TIP3    H129001   7.030   3.168  17.500
 1602TIP3    H229002   7.116   3.210  17.617
 1603TIP3   OH229003   7.257   3.105  18.426
 1603TIP3    H129004   7.256   3.050  18.347
 1603TIP3    H229005   7.264   3.194  18.393
 1604TIP3   OH229006   7.417   2.745  18.211
 1604TIP3    H129007   7.355   2.818  18.209
 1604TIP3    H229008   7.478   2.762  18.140
 1605TIP3   OH229009   7.119   2.768  17.444
 1605TIP3    H129010   7.097   2.859  17.462
 1605TIP3    H229011   7.166   2.738  17.522
 1606TIP3   OH229012   7.065   2.658  18.434
 1606TIP3    H129013   7.058   2.740  18.484
 1606TIP3    H229014   7.002   2.670  18.362
 1607TIP3   OH229015   6.165   2.810  17.687
 1607TIP3    H129016   6.150   2.800  17.592
 1607TIP3    H229017   6.260   2.811  17.697
 1608TIP3   OH229018   6.381   3.233  17.959
 1608TIP3    H129019   6.359   3.234  17.865
 1608TIP3    H229020   6.444   3.161  17.967
 1609TIP3   OH229021   6.303   2.753  18.026
 1609TIP3    H129022   6.218   2.790  18.003
 1609TIP3    H229023   6.342   2.818  18.086
 1610TIP3   OH229024   6.909   3.297  18.154
 1610TIP3    H129025   6.882   3.371  18.208
 1610TIP3    H229026   6.856   3.224  18.184
 1611TIP3   OH229027   6.365   3.211  18.497
 1611TIP3    H129028   6.300   3.262  18.545
 1611TIP3    H229029   6.325   3.192  18.413
 1612TIP3   OH229030   6.052   2.775  18.481
 1612TIP3    H129031   6.063   2.859  18.526
 1612TIP3    H229032   5.958   2.767  18.467
 1613TIP3   OH229033   6.784   3.441  17.616
 1613TIP3    H129034   6.758   3.349  17.618
 1613TIP3    H229035   6.726   3.481  17.552
 1614TIP3   OH229036   6.176   3.372  18.620
 1614TIP3    H129037   6.179   3.416  18.535
 1614TIP3    H229038   6.083   3.353  18.633
 1615TIP3   OH229039   7.275   1.959  17.235
 1615TIP3    H129040   7.222   1.916  17.167
 1615TIP3    H229041   7.335   2.015  17.186
 1616TIP3   OH229042   6.127   2.770  17.415
 1616TIP3    H129043   6.085   2.849  17.381
 1616TIP3    H229044   6.064   2.700  17.399
 1617TIP3   OH229045   5.765   3.015  18.383
 1617TIP3    H129046   5.776   3.030  18.290
 1617TIP3    H229047   5.775   2.921  18.394
 1618TIP3   OH229048   5.762   3.314  17.971
 1618TIP3    H129049   5.798   3.226  17.985
 1618TIP3    H229050   5.748   3.347  18.060
 1619TIP3   OH229051   7.530   3.371  18.600
 1619TIP3    H129052   7.534   3.275  18.598
 1619TIP3    H229053   7.444   3.391  18.636
 1620TIP3   OH229054   6.615   3.326  18.495
 1620TIP3    H129055   6.611   3.413  18.537
 1620TIP3    H229056   6.525   3.294  18.497
 1621TIP3   OH229057   6.685   3.704  17.410
 1621TIP3    H129058   6.612   3.694  17.349
 1621TIP3    H229059   6.659   3.777  17.467
 1622TIP3   OH229060   6.036   3.557  17.653
 1622TIP3    H129061   6.053   3.529  17.743
 1622TIP3    H229062   5.970   3.496  17.621
 1623TIP3   OH229063   6.951   3.625  17.406
 1623TIP3    H129064   6.859   3.652  17.403
 1623TIP3    H229065   6.953   3.554  17.470
 1624TIP3   OH229066   7.195   2.518  18.647
 1624TIP3    H129067   7.144   2.559  18.577
 1624TIP3    H229068   7.210   2.429  18.617
 1625TIP3   OH229069   5.990   3.170  18.439
 1625TIP3    H129070   6.009   3.121  18.519
 1625TIP3    H229071   5.909   3.131  18.406
 1626TIP3   OH229072   6.230   2.022  18.041
 1626TIP3    H129073   6.150   2.011  17.988
 1626TIP3    H229074   6.209   2.094  18.100
 1627TIP3   OH229075   6.709   1.974  18.368
 1627TIP3    H129076   6.752   1.931  18.442
 1627TIP3    H229077   6.616   1.963  18.384
 1628TIP3   OH229078   6.981   2.356  18.466
 1628TIP3    H129079   6.923   2.336  18.539
 1628TIP3    H229080   6.956   2.444  18.439
 1629TIP3   OH229081   6.240   2.510  18.137
 1629TIP3    H129082   6.169   2.521  18.200
 1629TIP3    H229083   6.255   2.597  18.102
 1630TIP3   OH229084   6.233   2.498  17.631
 1630TIP3    H129085   6.138   2.501  17.625
 1630TIP3    H229086   6.262   2.490  17.540
 1631TIP3   OH229087   6.676   2.577  18.668
 1631TIP3    H129088   6.628   2.501  18.700
 1631TIP3    H229089   6.759   2.575  18.716
 1632TIP3   OH229090   6.023   2.510  18.310
 1632TIP3    H129091   6.015   2.574  18.381
 1632TIP3    H229092   5.980   2.432  18.343
 1633TIP3   OH229093   5.807   2.351  17.249
 1633TIP3    H129094   5.831   2.388  17.164
 1633TIP3    H229095   5.784   2.427  17.302
 1634TIP3   OH229096   6.873   2.672  18.236
 1634TIP3    H129097   6.879   2.608  18.166
 1634TIP3    H229098   6.807   2.637  18.296
 1635TIP3   OH229099   6.524   2.247  17.735
 1635TIP3    H129100   6.431   2.255  17.756
 1635TIP3    H229101   6.563   2.212  17.814
 1636TIP3   OH229102   5.965   2.429  17.612
 1636TIP3    H129103   5.883   2.449  17.568
 1636TIP3    H229104   5.986   2.340  17.586
 1637TIP3   OH229105   6.337   2.450  17.376
 1637TIP3    H129106   6.429   2.434  17.397
 1637TIP3    H229107   6.339   2.504  17.297
 1638TIP3   OH229108   6.946   2.181  18.059
 1638TIP3    H129109   6.888   2.187  18.136
 1638TIP3    H229110   6.897   2.130  17.995
 1639TIP3   OH229111   7.266   3.727  18.731
 1639TIP3    H129112   7.286   3.765  18.645
 1639TIP3    H229113   7.346   3.740  18.782
 1640TIP3   OH229114   6.032   2.997  18.658
 1640TIP3    H129115   6.095   3.006  18.729
 1640TIP3    H229116   5.947   2.993  18.702
 1641TIP3   OH229117   6.079   2.172  17.567
 1641TIP3    H129118   6.036   2.092  17.596
 1641TIP3    H229119   6.113   2.150  17.480
 1642TIP3   OH229120   6.485   2.394  18.190
 1642TIP3    H129121   6.403   2.432  18.158
 1642TIP3    H229122   6.531   2.468  18.229
 1643TIP3   OH229123   7.251   2.960  18.194
 1643TIP3    H129124   7.308   3.012  18.137
 1643TIP3    H229125   7.177   2.937  18.138
 1644TIP3   OH229126   6.679   3.051  18.492
 1644TIP3    H129127   6.655   3.016  18.578
 1644TIP3    H229128   6.656   3.144  18.498
 1645TIP3   OH229129   6.996   2.474  17.356
 1645TIP3    H129130   7.084   2.458  17.390
 1645TIP3    H229131   6.992   2.568  17.342
 1646TIP3   OH229132   6.142   2.963  17.917
 1646TIP3    H129133   6.129   2.919  17.834
 1646TIP3    H229134   6.054   2.971  17.955
 1647TIP3   OH229135   5.783   2.739  18.462
 1647TIP3    H129136   5.750   2.700  18.543
 1647TIP3    H229137   5.711   2.727  18.399
 1648TIP3   OH229138   6.455   2.750  18.656
 1648TIP3    H129139   6.392   2.713  18.594
 1648TIP3    H229140   6.536   2.702  18.639
 1649TIP3   OH229141   6.900   3.280  18.489
 1649TIP3    H129142   6.809   3.296  18.466
 1649TIP3    H229143   6.910   3.316  18.577
 1650TIP3   OH229144   7.454   2.497  17.310
 1650TIP3    H129145   7.485   2.426  17.254
 1650TIP3    H229146   7.485   2.577  17.266
 1651TIP3   OH229147   7.486   3.089  18.573
 1651TIP3    H129148   7.398   3.113  18.543
 1651TIP3    H229149   7.533   3.066  18.493
 1652TIP3   OH229150   7.310   3.320  17.362
 1652TIP3    H129151   7.248   3.277  17.421
 1652TIP3    H229152   7.258   3.340  17.283
 1653TIP3   OH229153   7.041   2.845  18.051
 1653TIP3    H129154   6.975   2.803  18.106
 1653TIP3    H229155   7.060   2.779  17.984
 1654TIP3   OH229156   6.294   3.284  17.704
 1654TIP3    H129157   6.347   3.331  17.640
 1654TIP3    H229158   6.206   3.282  17.666
 1655TIP3   OH229159   5.854   2.793  17.126
 1655TIP3    H129160   5.928   2.837  17.168
 1655TIP3    H229161   5.783   2.858  17.128
 1656TIP3   OH229162   6.489   3.476  18.277
 1656TIP3    H129163   6.546   3.545  18.243
 1656TIP3    H229164   6.548   3.418  18.326
 1657TIP3   OH229165   6.292   3.602  17.557
 1657TIP3    H129166   6.200   3.587  17.579
 1657TIP3    H229167   6.313   3.685  17.601
 1658TIP3   OH229168   6.789   3.053  18.241
 1658TIP3    H129169   6.745   3.050  18.326
 1658TIP3    H229170   6.873   3.009  18.256
 1659TIP3   OH229171   7.095   3.508  18.456
 1659TIP3    H129172   7.014   3.461  18.435
 1659TIP3    H229173   7.099   3.578  18.392
 1660TIP3   OH229174   7.511   3.644  17.134
 1660TIP3    H129175   7.515   3.708  17.063
 1660TIP3    H229176   7.441   3.584  17.108
 1661TIP3   OH229177   5.923   2.255  18.420
 1661TIP3    H129178   5.854   2.301  18.468
 1661TIP3    H229179   5.921   2.165  18.455
 1662TIP3   OH229180   5.912   3.418  18.240
 1662TIP3    H129181   5.926   3.333  18.198
 1662TIP3    H229182   5.963   3.414  18.321
 1663TIP3   OH229183   6.369   3.210  17.291
 1663TIP3    H129184   6.453   3.177  17.324
 1663TIP3    H229185   6.379   3.306  17.292
 1664TIP3   OH229186   5.992   2.974  17.300
 1664TIP3    H129187   5.914   3.012  17.339
 1664TIP3    H229188   6.038   3.048  17.261
 1665TIP3   OH229189   6.809   2.220  18.290
 1665TIP3    H129190   6.871   2.245  18.358
 1665TIP3    H229191   6.769   2.139  18.322
 1666TIP3   OH229192   6.848   2.251  17.453
 1666TIP3    H129193   6.881   2.318  17.392
 1666TIP3    H229194   6.903   2.261  17.531
 1667TIP3   OH229195   6.580   2.359  17.475
 1667TIP3    H129196   6.669   2.326  17.466
 1667TIP3    H229197   6.549   2.323  17.559
 1668TIP3   OH229198   6.725   2.506  18.400
 1668TIP3    H129199   6.696   2.531  18.488
 1668TIP3    H229200   6.705   2.412  18.394
 1669TIP3   OH229201   6.654   2.067  17.574
 1669TIP3    H129202   6.616   2.128  17.636
 1669TIP3    H229203   6.723   2.117  17.530
 1670TIP3   OH229204   6.380   3.484  17.322
 1670TIP3    H129205   6.403   3.555  17.261
 1670TIP3    H229206   6.347   3.529  17.400
 1671TIP3   OH229207   6.247   2.175  17.293
 1671TIP3    H129208   6.226   2.229  17.217
 1671TIP3    H229209   6.299   2.232  17.349
 1672TIP3   OH229210   7.237   2.270  18.524
 1672TIP3    H129211   7.150   2.280  18.486
 1672TIP3    H229212   7.295   2.268  18.448
 1673TIP3   OH229213   7.078   2.604  17.885
 1673TIP3    H129214   7.000   2.549  17.893
 1673TIP3    H229215   7.141   2.564  17.945
 1674TIP3   OH229216   6.103   3.200  17.190
 1674TIP3    H129217   6.180   3.229  17.239
 1674TIP3    H229218   6.139   3.165  17.108
 1675TIP3   OH229219   7.253   3.566  18.060
 1675TIP3    H129220   7.237   3.628  17.990
 1675TIP3    H229221   7.348   3.559  18.065
 1676TIP3   OH229222   5.977   1.976  17.939
 1676TIP3    H129223   5.968   1.965  17.844
 1676TIP3    H229224   5.942   1.895  17.975
 1677TIP3   OH229225   5.830   3.384  17.553
 1677TIP3    H129226   5.741   3.393  17.586
 1677TIP3    H229227   5.834   3.441  17.476
 1678TIP3   OH229228   5.789   3.641  18.697
 1678TIP3    H129229   5.857   3.613  18.758
 1678TIP3    H229230   5.753   3.560  18.661
 1679TIP3   OH229231   6.230   3.510  18.849
 1679TIP3    H129232   6.322   3.491  18.866
 1679TIP3    H229233   6.210   3.465  18.767
 1680TIP3   OH229234   6.898   3.381  18.747
 1680TIP3    H129235   6.879   3.296  18.787
 1680TIP3    H229236   6.976   3.412  18.792
 1681TIP3   OH229237   5.785   3.004  18.793
 1681TIP3    H129238   5.759   2.912  18.801
 1681TIP3    H229239   5.721   3.042  18.732
 1682TIP3   OH229240   6.219   3.057  16.990
 1682TIP3    H129241   6.251   3.003  17.062
 1682TIP3    H229242   6.246   3.010  16.911
 1683TIP3   OH229243   6.438   3.030  18.693
 1683TIP3    H129244   6.414   3.074  18.611
 1683TIP3    H229245   6.445   2.937  18.671
 1684TIP3   OH229246   7.003   3.012  18.485
 1684TIP3    H129247   7.091   3.047  18.468
 1684TIP3    H229248   6.947   3.089  18.486
 1685TIP3   OH229249   5.883   2.708  18.771
 1685TIP3    H129250   5.967   2.685  18.731
 1685TIP3    H229251   5.905   2.736  18.860
 1686TIP3   OH229252   6.293   2.854  17.168
 1686TIP3    H129253   6.257   2.861  17.257
 1686TIP3    H229254   6.346   2.774  17.170
 1687TIP3   OH229255   6.290   2.635  18.460
 1687TIP3    H129256   6.209   2.686  18.452
 1687TIP3    H229257   6.350   2.676  18.396
 1688TIP3   OH229258   6.458   2.626  17.150
 1688TIP3    H129259   6.450   2.603  17.057
 1688TIP3    H229260   6.544   2.665  17.158
 1689TIP3   OH229261   6.787   2.894  18.800
 1689TIP3    H129262   6.862   2.859  18.751
 1689TIP3    H229263   6.754   2.820  18.849
 1690TIP3   OH229264   6.337   2.382  18.550
 1690TIP3    H129265   6.336   2.317  18.479
 1690TIP3    H229266   6.320   2.465  18.505
 1691TIP3   OH229267   6.351   2.201  18.333
 1691TIP3    H129268   6.404   2.257  18.276
 1691TIP3    H229269   6.264   2.204  18.294
 1692TIP3   OH229270   6.497   2.758  18.327
 1692TIP3    H129271   6.587   2.790  18.333
 1692TIP3    H229272   6.449   2.829  18.284
 1693TIP3   OH229273   6.972   2.499  18.844
 1693TIP3    H129274   6.979   2.405  18.826
 1693TIP3    H229275   7.044   2.538  18.796
 1694TIP3   OH229276   7.044   2.831  18.680
 1694TIP3    H129277   7.015   2.898  18.618
 1694TIP3    H229278   7.138   2.823  18.665
 1695TIP3   OH229279   6.163   2.447  18.769
 1695TIP3    H129280   6.082   2.396  18.756
 1695TIP3    H229281   6.211   2.438  18.687
 1696TIP3   OH229282   6.433   1.941  18.361
 1696TIP3    H129283   6.407   2.033  18.351
 1696TIP3    H229284   6.361   1.891  18.323
 1697TIP3   OH229285   6.537   2.350  18.734
 1697TIP3    H129286   6.487   2.324  18.811
 1697TIP3    H229287   6.472   2.356  18.664
 1698TIP3   OH229288   6.805   2.293  18.662
 1698TIP3    H129289   6.715   2.295  18.693
 1698TIP3    H229290   6.851   2.236  18.724
 1699TIP3   OH229291   6.982   2.161  18.836
 1699TIP3    H129292   6.979   2.067  18.821
 1699TIP3    H229293   6.957   2.172  18.927
 1700TIP3   OH229294   5.952   2.258  18.756
 1700TIP3    H129295   5.952   2.178  18.704
 1700TIP3    H229296   5.955   2.229  18.847
 1701TIP3   OH229297   6.429   1.897  18.634
 1701TIP3    H129298   6.475   1.813  18.631
 1701TIP3    H229299   6.418   1.922  18.542
 1702TIP3   OH229300   6.468   2.037  18.865
 1702TIP3    H129301   6.453   1.993  18.781
 1702TIP3    H229302   6.408   2.112  18.864
 1703TIP3   OH229303   6.470   3.703  17.161
 1703TIP3    H129304   6.465   3.681  17.068
 1703TIP3    H229305   6.456   3.798  17.164
 1704TIP3   OH229306   5.833   3.199  17.108
 1704TIP3    H129307   5.921   3.218  17.139
 1704TIP3    H229308   5.838   3.210  17.013
 1705TIP3   OH229309   5.725   3.554  17.815
 1705TIP3    H129310   5.763   3.466  17.821
 1705TIP3    H229311   5.658   3.556  17.882
 1706TIP3   OH229312   7.524   3.575  18.136
 1706TIP3    H129313   7.513   3.564  18.230
 1706TIP3    H229314   7.537   3.669  18.124
 1707TIP3   OH229315   7.444   3.551  18.403
 1707TIP3    H129316   7.388   3.483  18.366
 1707TIP3    H229317   7.498   3.505  18.468
 1708TIP3   OH229318   7.319   3.139  18.890
 1708TIP3    H129319   7.232   3.159  18.923
 1708TIP3    H229320   7.372   3.216  18.912
 1709TIP3   OH229321   7.480   2.981  17.376
 1709TIP3    H129322   7.488   3.065  17.422
 1709TIP3    H229323   7.474   2.916  17.445
 1710TIP3   OH229324   7.470   2.781  17.575
 1710TIP3    H129325   7.386   2.750  17.610
 1710TIP3    H229326   7.515   2.819  17.650
 1711TIP3   OH229327   7.488   3.060  18.083
 1711TIP3    H129328   7.547   3.017  18.020
 1711TIP3    H229329   7.492   3.152  18.059
 1712TIP3   OH229330   7.277   3.351  18.308
 1712TIP3    H129331   7.200   3.398  18.342
 1712TIP3    H229332   7.254   3.331  18.217
 1713TIP3   OH229333   7.500   2.752  17.204
 1713TIP3    H129334   7.427   2.791  17.253
 1713TIP3    H229335   7.579   2.786  17.247
 1714TIP3   OH229336   7.243   2.647  17.660
 1714TIP3    H129337   7.243   2.560  17.621
 1714TIP3    H229338   7.190   2.638  17.740
 1715TIP3   OH229339   5.714   2.787  18.045
 1715TIP3    H129340   5.713   2.785  17.950
 1715TIP3    H229341   5.764   2.865  18.068
 1716TIP3   OH229342   7.311   2.847  18.618
 1716TIP3    H129343   7.375   2.778  18.601
 1716TIP3    H229344   7.347   2.923  18.572
 1717TIP3   OH229345   7.453   2.612  18.627
 1717TIP3    H129346   7.363   2.581  18.632
 1717TIP3    H229347   7.504   2.541  18.666
 1718TIP3   OH229348   7.247   2.424  17.481
 1718TIP3    H129349   7.268   2.331  17.471
 1718TIP3    H229350   7.310   2.469  17.426
 1719TIP3   OH229351   7.240   2.463  18.058
 1719TIP3    H129352   7.333   2.471  18.036
 1719TIP3    H229353   7.236   2.473  18.153
 1720TIP3   OH229354   7.284   2.534  18.322
 1720TIP3    H129355   7.206   2.572  18.363
 1720TIP3    H229356   7.330   2.608  18.284
 1721TIP3   OH229357   5.742   2.355  18.606
 1721TIP3    H129358   5.813   2.342  18.668
 1721TIP3    H229359   5.680   2.283  18.625
 1722TIP3   OH229360   7.538   1.912  18.824
 1722TIP3    H129361   7.612   1.869  18.782
 1722TIP3    H229362   7.517   1.985  18.766
 1723TIP3   OH229363   7.311   2.161  17.440
 1723TIP3    H129364   7.309   2.109  17.521
 1723TIP3    H229365   7.278   2.102  17.372
 1724TIP3   OH229366   5.821   2.205  17.975
 1724TIP3    H129367   5.875   2.126  17.970
 1724TIP3    H229368   5.884   2.277  17.969
 1725TIP3   OH229369   5.670   2.512  18.036
 1725TIP3    H129370   5.740   2.499  17.972
 1725TIP3    H229371   5.675   2.605  18.058
 1726TIP3   OH229372   7.444   2.118  18.671
 1726TIP3    H129373   7.369   2.161  18.712
 1726TIP3    H229374   7.411   2.090  18.585
 1727TIP3   OH229375   5.751   2.135  17.409
 1727TIP3    H129376   5.660   2.155  17.431
 1727TIP3    H229377   5.780   2.210  17.358
 1728TIP3   OH229378   7.181   3.576  17.661
 1728TIP3    H129379   7.233   3.593  17.583
 1728TIP3    H229380   7.207   3.646  17.722
 1729TIP3   OH229381   5.705   1.988  18.299
 1729TIP3    H129382   5.634   1.977  18.362
 1729TIP3    H229383   5.673   2.054  18.237
 1730TIP3   OH229384   5.912   3.341  18.703
 1730TIP3    H129385   5.836   3.352  18.646
 1730TIP3    H229386   5.881   3.285  18.774
 1731TIP3   OH229387   6.227   3.488  18.378
 1731TIP3    H129388   6.208   3.570  18.333
 1731TIP3    H229389   6.313   3.462  18.346
 1732TIP3   OH229390   6.618   3.580  18.616
 1732TIP3    H129391   6.632   3.559  18.708
 1732TIP3    H229392   6.697   3.629  18.591
 1733TIP3   OH229393   6.855   3.718  18.574
 1733TIP3    H129394   6.919   3.660  18.533
 1733TIP3    H229395   6.897   3.746  18.655
 1734TIP3   OH229396   7.344   1.925  18.462
 1734TIP3    H129397   7.264   1.935  18.411
 1734TIP3    H229398   7.376   1.837  18.440
 1735TIP3   OH229399   5.962   3.791  18.344
 1735TIP3    H129400   5.880   3.822  18.305
 1735TIP3    H229401   5.934   3.739  18.419
 1736TIP3   OH229402   6.212   3.729  18.249
 1736TIP3    H129403   6.122   3.752  18.275
 1736TIP3    H229404   6.223   3.767  18.162
 1737TIP3   OH229405   6.654   3.671  18.166
 1737TIP3    H129406   6.611   3.697  18.085
 1737TIP3    H229407   6.671   3.753  18.211
 1738TIP3   OH229408   6.868   3.544  18.284
 1738TIP3    H129409   6.788   3.578  18.244
 1738TIP3    H229410   6.937   3.603  18.255
 1739TIP3   OH229411   7.113   3.699  18.255
 1739TIP3    H129412   7.117   3.790  18.227
 1739TIP3    H229413   7.158   3.650  18.187
 1740TIP3   OH229414   5.920   3.629  18.061
 1740TIP3    H129415   5.918   3.565  18.132
 1740TIP3    H229416   5.978   3.590  17.996
 1741TIP3   OH229417   6.117   3.506  17.914
 1741TIP3    H129418   6.103   3.418  17.948
 1741TIP3    H229419   6.209   3.524  17.931
 1742TIP3   OH229420   6.384   3.507  18.013
 1742TIP3    H129421   6.387   3.417  17.980
 1742TIP3    H229422   6.401   3.499  18.107
 1743TIP3   OH229423   6.672   2.060  17.895
 1743TIP3    H129424   6.602   2.003  17.927
 1743TIP3    H229425   6.737   2.000  17.858
 1744TIP3   OH229426   7.223   1.895  17.876
 1744TIP3    H129427   7.277   1.950  17.819
 1744TIP3    H229428   7.135   1.934  17.870
 1745TIP3   OH229429   7.362   2.026  17.677
 1745TIP3    H129430   7.428   1.961  17.652
 1745TIP3    H229431   7.413   2.097  17.716
 1746TIP3   OH229432   5.955   1.940  17.662
 1746TIP3    H129433   5.879   1.934  17.604
 1746TIP3    H229434   5.996   1.853  17.657
 1747TIP3   OH229435   5.908   1.952  17.251
 1747TIP3    H129436   5.933   2.042  17.272
 1747TIP3    H229437   5.815   1.948  17.271
 1748TIP3   OH229438   6.425   1.912  17.670
 1748TIP3    H129439   6.491   1.971  17.635
 1748TIP3    H229440   6.436   1.917  17.765
 1749TIP3   OH229441   6.968   1.984  17.805
 1749TIP3    H129442   6.973   1.987  17.710
 1749TIP3    H229443   6.922   1.903  17.824
 1750TIP3   OH229444   7.024   1.986  17.412
 1750TIP3    H129445   6.977   2.070  17.412
 1750TIP3    H229446   6.979   1.934  17.346
 1751TIP3   OH229447   5.821   3.576  17.360
 1751TIP3    H129448   5.753   3.558  17.295
 1751TIP3    H229449   5.852   3.664  17.339
 1752TIP3   OH229450   7.357   3.597  17.433
 1752TIP3    H129451   7.351   3.504  17.409
 1752TIP3    H229452   7.362   3.643  17.350
 1753TIP3   OH229453   5.935   2.004  18.614
 1753TIP3    H129454   5.870   1.936  18.633
 1753TIP3    H229455   6.010   1.982  18.670
 1754TIP3   OH229456   6.124   1.929  18.806
 1754TIP3    H129457   6.210   1.894  18.783
 1754TIP3    H229458   6.077   1.855  18.845
 1755TIP3   OH229459   5.932   3.674  17.048
 1755TIP3    H129460   5.928   3.724  17.130
 1755TIP3    H229461   5.995   3.605  17.065
 1756TIP3   OH229462   7.002   1.887  18.802
 1756TIP3    H129463   6.987   1.836  18.882
 1756TIP3    H229464   7.092   1.867  18.778
 1757TIP3   OH229465   7.272   3.456  18.667
 1757TIP3    H129466   7.215   3.452  18.591
 1757TIP3    H229467   7.273   3.549  18.691
 1758TIP3   OH229468   7.555   2.511  17.568
 1758TIP3    H129469   7.525   2.602  17.573
 1758TIP3    H229470   7.528   2.481  17.481
 1759TIP3   OH229471   7.578   2.997  18.336
 1759TIP3    H129472   7.544   3.019  18.250
 1759TIP3    H229473   7.578   2.902  18.340
 1760TIP3   OH229474   7.563   3.321  18.014
 1760TIP3    H129475   7.658   3.319  18.007
 1760TIP3    H229476   7.544   3.404  18.060
 1761TIP3   OH229477   7.514   2.252  17.741
 1761TIP3    H129478   7.490   2.344  17.735
 1761TIP3    H229479   7.550   2.230  17.655
 1762TIP3   OH229480   7.592   2.724  18.419
 1762TIP3    H129481   7.551   2.682  18.495
 1762TIP3    H229482   7.530   2.709  18.348
 1763TIP3   OH229483   7.636   2.945  18.755
 1763TIP3    H129484   7.572   2.884  18.792
 1763TIP3    H229485   7.584   3.000  18.696
 1764TIP3   OH229486   7.511   3.714  17.625
 1764TIP3    H129487   7.459   3.674  17.555
 1764TIP3    H229488   7.520   3.645  17.691
 1765TIP3   OH229489   7.553   3.514  17.801
 1765TIP3    H129490   7.531   3.434  17.849
 1765TIP3    H229491   7.648   3.522  17.812
 1766TIP3   OH229492   7.608   2.777  18.011
 1766TIP3    H129493   7.640   2.752  17.925
 1766TIP3    H229494   7.678   2.829  18.049
 1767TIP3   OH229495   7.555   2.375  18.710
 1767TIP3    H129496   7.643   2.364  18.674
 1767TIP3    H229497   7.515   2.288  18.703
 1768TIP3   OH229498   7.507   2.501  18.024
 1768TIP3    H129499   7.599   2.478  18.037
 1768TIP3    H229500   7.507   2.597  18.022
 1769TIP3   OH229501   7.591   2.196  17.483
 1769TIP3    H129502   7.503   2.180  17.449
 1769TIP3    H229503   7.649   2.175  17.411
 1770TIP3   OH229504   7.503   1.978  18.219
 1770TIP3    H129505   7.448   1.982  18.298
 1770TIP3    H229506   7.472   2.050  18.164
 1771TIP3   OH229507   1.209   4.750  17.634
 1771TIP3    H129508   1.199   4.845  17.643
 1771TIP3    H229509   1.158   4.728  17.556
 1772TIP3   OH229510   1.079   4.685  18.038
 1772TIP3    H129511   1.113   4.641  18.116
 1772TIP3    H229512   1.039   4.615  17.986
 1773TIP3   OH229513   0.353   4.648  18.166
 1773TIP3    H129514   0.329   4.559  18.193
 1773TIP3    H229515   0.397   4.685  18.243
 1774TIP3   OH229516   1.459   4.987  17.851
 1774TIP3    H129517   1.428   4.910  17.897
 1774TIP3    H229518   1.481   5.050  17.920
 1775TIP3   OH229519   0.397   5.100  17.989
 1775TIP3    H129520   0.377   5.009  17.966
 1775TIP3    H229521   0.490   5.098  18.015
 1776TIP3   OH229522   0.110   4.472  17.574
 1776TIP3    H129523   0.099   4.499  17.482
 1776TIP3    H229524   0.073   4.383  17.577
 1777TIP3   OH229525   0.142   4.645  17.785
 1777TIP3    H129526   0.129   4.576  17.719
 1777TIP3    H229527   0.144   4.726  17.735
 1778TIP3   OH229528   1.183   5.477  17.880
 1778TIP3    H129529   1.254   5.435  17.831
 1778TIP3    H229530   1.112   5.413  17.881
 1779TIP3   OH229531   0.923   4.925  18.052
 1779TIP3    H129532   0.965   4.845  18.020
 1779TIP3    H229533   0.990   4.967  18.106
 1780TIP3   OH229534   1.803   4.055  18.109
 1780TIP3    H129535   1.801   4.120  18.179
 1780TIP3    H229536   1.875   4.083  18.052
 1781TIP3   OH229537   1.268   4.360  18.072
 1781TIP3    H129538   1.285   4.266  18.079
 1781TIP3    H229539   1.238   4.372  17.982
 1782TIP3   OH229540   1.344   4.230  17.642
 1782TIP3    H129541   1.391   4.193  17.717
 1782TIP3    H229542   1.413   4.269  17.588
 1783TIP3   OH229543   1.798   4.211  18.337
 1783TIP3    H129544   1.748   4.291  18.321
 1783TIP3    H229545   1.855   4.233  18.411
 1784TIP3   OH229546   0.465   4.078  18.209
 1784TIP3    H129547   0.433   4.130  18.135
 1784TIP3    H229548   0.399   4.091  18.278
 1785TIP3   OH229549   1.142   5.017  17.586
 1785TIP3    H129550   1.142   5.026  17.491
 1785TIP3    H229551   1.127   5.106  17.619
 1786TIP3   OH229552   0.714   4.872  18.226
 1786TIP3    H129553   0.655   4.945  18.246
 1786TIP3    H229554   0.781   4.911  18.170
 1787TIP3   OH229555   1.510   4.164  17.848
 1787TIP3    H129556   1.501   4.076  17.886
 1787TIP3    H229557   1.570   4.209  17.907
 1788TIP3   OH229558   0.407   4.230  17.992
 1788TIP3    H129559   0.460   4.300  18.031
 1788TIP3    H229560   0.462   4.195  17.922
 1789TIP3   OH229561   0.552   5.085  18.293
 1789TIP3    H129562   0.562   5.180  18.288
 1789TIP3    H229563   0.459   5.071  18.314
 1790TIP3   OH229564   0.134   5.002  17.418
 1790TIP3    H129565   0.121   5.027  17.327
 1790TIP3    H229566   0.160   5.084  17.462
 1791TIP3   OH229567   1.506   5.176  18.061
 1791TIP3    H129568   1.413   5.180  18.080
 1791TIP3    H229569   1.528   5.264  18.030
 1792TIP3   OH229570   1.516   3.988  18.191
 1792TIP3    H129571   1.442   4.023  18.141
 1792TIP3    H229572   1.593   4.009  18.139
 1793TIP3   OH229573   0.838   3.806  17.968
 1793TIP3    H129574   0.821   3.767  17.883
 1793TIP3    H229575   0.754   3.841  17.996
 1794TIP3   OH229576   1.351   5.340  17.708
 1794TIP3    H129577   1.389   5.258  17.675
 1794TIP3    H229578   1.416   5.406  17.686
 1795TIP3   OH229579   1.476   5.109  17.596
 1795TIP3    H129580   1.467   5.040  17.530
 1795TIP3    H229581   1.469   5.062  17.680
 1796TIP3   OH229582   1.620   4.994  18.425
 1796TIP3    H129583   1.613   4.935  18.350
 1796TIP3    H229584   1.632   5.080  18.387
 1797TIP3   OH229585   1.082   4.705  17.393
 1797TIP3    H129586   1.029   4.780  17.367
 1797TIP3    H229587   1.133   4.684  17.314
 1798TIP3   OH229588   1.805   4.660  18.251
 1798TIP3    H129589   1.730   4.719  18.243
 1798TIP3    H229590   1.859   4.678  18.174
 1799TIP3   OH229591   1.434   4.679  17.488
 1799TIP3    H129592   1.359   4.699  17.544
 1799TIP3    H229593   1.497   4.636  17.546
 1800TIP3   OH229594   1.404   4.530  18.421
 1800TIP3    H129595   1.400   4.612  18.471
 1800TIP3    H229596   1.337   4.540  18.354
 1801TIP3   OH229597   0.698   5.089  17.956
 1801TIP3    H129598   0.697   5.106  17.861
 1801TIP3    H229599   0.778   5.038  17.970
 1802TIP3   OH229600   0.659   4.665  18.055
 1802TIP3    H129601   0.750   4.641  18.038
 1802TIP3    H229602   0.664   4.734  18.122
 1803TIP3   OH229603   1.249   5.203  18.139
 1803TIP3    H129604   1.230   5.274  18.200
 1803TIP3    H229605   1.200   5.128  18.174
 1804TIP3   OH229606   0.703   5.097  18.527
 1804TIP3    H129607   0.642   5.159  18.567
 1804TIP3    H229608   0.662   5.074  18.444
 1805TIP3   OH229609   0.444   4.715  18.422
 1805TIP3    H129610   0.447   4.799  18.468
 1805TIP3    H229611   0.356   4.681  18.441
 1806TIP3   OH229612   1.078   5.289  17.635
 1806TIP3    H129613   1.166   5.325  17.648
 1806TIP3    H229614   1.041   5.341  17.564
 1807TIP3   OH229615   0.511   5.279  18.610
 1807TIP3    H129616   0.509   5.315  18.521
 1807TIP3    H229617   0.420   5.258  18.630
 1808TIP3   OH229618   1.675   3.808  17.275
 1808TIP3    H129619   1.585   3.817  17.306
 1808TIP3    H229620   1.721   3.883  17.313
 1809TIP3   OH229621   0.177   4.891  18.353
 1809TIP3    H129622   0.084   4.900  18.334
 1809TIP3    H229623   0.186   4.800  18.381
 1810TIP3   OH229624   0.136   5.216  18.008
 1810TIP3    H129625   0.215   5.166  17.987
 1810TIP3    H229626   0.164   5.276  18.077
 1811TIP3   OH229627   1.874   5.252  18.627
 1811TIP3    H129628   1.862   5.158  18.613
 1811TIP3    H229629   1.788   5.282  18.656
 1812TIP3   OH229630   0.952   5.214  18.492
 1812TIP3    H129631   0.955   5.299  18.536
 1812TIP3    H229632   0.864   5.180  18.510
 1813TIP3   OH229633   1.006   5.597  17.407
 1813TIP3    H129634   0.964   5.620  17.323
 1813TIP3    H229635   0.949   5.636  17.473
 1814TIP3   OH229636   1.265   5.520  17.454
 1814TIP3    H129637   1.175   5.548  17.435
 1814TIP3    H229638   1.275   5.438  17.406
 1815TIP3   OH229639   1.566   4.393  18.632
 1815TIP3    H129640   1.511   4.435  18.566
 1815TIP3    H229641   1.566   4.300  18.608
 1816TIP3   OH229642   0.307   5.113  18.425
 1816TIP3    H129643   0.356   5.065  18.492
 1816TIP3    H229644   0.249   5.048  18.386
 1817TIP3   OH229645   0.580   3.899  18.034
 1817TIP3    H129646   0.508   3.895  17.971
 1817TIP3    H229647   0.551   3.963  18.099
 1818TIP3   OH229648   1.039   3.875  18.373
 1818TIP3    H129649   1.089   3.824  18.437
 1818TIP3    H229650   0.948   3.853  18.390
 1819TIP3   OH229651   1.324   4.248  18.474
 1819TIP3    H129652   1.265   4.238  18.549
 1819TIP3    H229653   1.324   4.342  18.456
 1820TIP3   OH229654   0.576   4.411  18.126
 1820TIP3    H129655   0.513   4.410  18.198
 1820TIP3    H229656   0.595   4.503  18.111
 1821TIP3   OH229657   1.110   4.443  17.481
 1821TIP3    H129658   1.093   4.534  17.455
 1821TIP3    H229659   1.187   4.418  17.431
 1822TIP3   OH229660   1.025   4.466  18.661
 1822TIP3    H129661   0.976   4.390  18.691
 1822TIP3    H229662   1.109   4.459  18.706
 1823TIP3   OH229663   1.206   4.414  17.807
 1823TIP3    H129664   1.196   4.488  17.747
 1823TIP3    H229665   1.230   4.341  17.750
 1824TIP3   OH229666   0.376   4.395  18.313
 1824TIP3    H129667   0.399   4.415  18.403
 1824TIP3    H229668   0.327   4.313  18.318
 1825TIP3   OH229669   0.105   4.210  17.773
 1825TIP3    H129670   0.120   4.139  17.835
 1825TIP3    H229671   0.116   4.170  17.687
 1826TIP3   OH229672   0.105   4.255  17.238
 1826TIP3    H129673   0.182   4.254  17.181
 1826TIP3    H229674   0.141   4.251  17.327
 1827TIP3   OH229675   1.172   4.534  18.255
 1827TIP3    H129676   1.211   4.475  18.191
 1827TIP3    H229677   1.106   4.482  18.300
 1828TIP3   OH229678   1.270   4.080  18.072
 1828TIP3    H129679   1.210   4.089  18.146
 1828TIP3    H229680   1.218   4.037  18.004
 1829TIP3   OH229681   1.600   5.643  18.738
 1829TIP3    H129682   1.611   5.687  18.654
 1829TIP3    H229683   1.672   5.676  18.792
 1830TIP3   OH229684   0.422   4.931  18.606
 1830TIP3    H129685   0.495   4.923  18.667
 1830TIP3    H229686   0.344   4.915  18.659
 1831TIP3   OH229687   0.947   4.454  17.943
 1831TIP3    H129688   1.015   4.419  17.886
 1831TIP3    H229689   0.920   4.380  17.997
 1832TIP3   OH229690   0.834   4.294  18.163
 1832TIP3    H129691   0.752   4.343  18.163
 1832TIP3    H229692   0.884   4.331  18.236
 1833TIP3   OH229693   0.856   4.901  17.347
 1833TIP3    H129694   0.809   4.827  17.309
 1833TIP3    H229695   0.821   4.909  17.436
 1834TIP3   OH229696   1.602   4.840  18.200
 1834TIP3    H129697   1.658   4.897  18.147
 1834TIP3    H229698   1.528   4.820  18.142
 1835TIP3   OH229699   1.264   4.174  17.165
 1835TIP3    H129700   1.168   4.183  17.162
 1835TIP3    H229701   1.294   4.255  17.207
 1836TIP3   OH229702   1.002   4.932  18.472
 1836TIP3    H129703   1.021   4.898  18.560
 1836TIP3    H229704   0.988   5.025  18.485
 1837TIP3   OH229705   1.334   4.401  17.312
 1837TIP3    H129706   1.418   4.405  17.356
 1837TIP3    H229707   1.323   4.488  17.273
 1838TIP3   OH229708   0.438   4.827  17.924
 1838TIP3    H129709   0.524   4.851  17.890
 1838TIP3    H229710   0.455   4.761  17.991
 1839TIP3   OH229711   1.087   5.060  17.317
 1839TIP3    H129712   1.055   5.149  17.301
 1839TIP3    H229713   1.009   5.005  17.311
 1840TIP3   OH229714   0.189   4.638  18.476
 1840TIP3    H129715   0.194   4.626  18.571
 1840TIP3    H229716   0.098   4.618  18.454
 1841TIP3   OH229717   0.805   4.635  18.657
 1841TIP3    H129718   0.747   4.596  18.591
 1841TIP3    H229719   0.888   4.590  18.646
 1842TIP3   OH229720   1.257   5.183  18.476
 1842TIP3    H129721   1.167   5.198  18.447
 1842TIP3    H229722   1.257   5.210  18.568
 1843TIP3   OH229723   1.815   4.362  17.324
 1843TIP3    H129724   1.868   4.314  17.261
 1843TIP3    H229725   1.823   4.454  17.297
 1844TIP3   OH229726   1.849   4.975  18.571
 1844TIP3    H129727   1.760   4.985  18.537
 1844TIP3    H229728   1.902   4.958  18.494
 1845TIP3   OH229729   1.621   5.227  17.358
 1845TIP3    H129730   1.595   5.189  17.443
 1845TIP3    H229731   1.551   5.201  17.298
 1846TIP3   OH229732   1.387   4.758  18.026
 1846TIP3    H129733   1.292   4.747  18.014
 1846TIP3    H229734   1.426   4.681  17.985
 1847TIP3   OH229735   0.643   5.185  17.685
 1847TIP3    H129736   0.679   5.272  17.670
 1847TIP3    H229737   0.556   5.188  17.646
 1848TIP3   OH229738   0.216   4.647  17.189
 1848TIP3    H129739   0.273   4.710  17.233
 1848TIP3    H229740   0.186   4.694  17.111
 1849TIP3   OH229741   0.755   4.939  17.607
 1849TIP3    H129742   0.715   5.025  17.623
 1849TIP3    H229743   0.838   4.943  17.655
 1850TIP3   OH229744   0.841   5.363  18.268
 1850TIP3    H129745   0.900   5.430  18.235
 1850TIP3    H229746   0.895   5.310  18.327
 1851TIP3   OH229747   1.132   4.968  18.233
 1851TIP3    H129748   1.092   4.945  18.317
 1851TIP3    H229749   1.203   4.905  18.222
 1852TIP3   OH229750   1.391   5.122  17.223
 1852TIP3    H129751   1.418   5.053  17.285
 1852TIP3    H229752   1.316   5.084  17.177
 1853TIP3   OH229753   1.465   5.392  18.445
 1853TIP3    H129754   1.385   5.340  18.433
 1853TIP3    H229755   1.457   5.463  18.381
 1854TIP3   OH229756   0.257   4.139  18.376
 1854TIP3    H129757   0.209   4.173  18.452
 1854TIP3    H229758   0.212   4.058  18.354
 1855TIP3   OH229759   1.507   4.923  17.383
 1855TIP3    H129760   1.469   4.839  17.407
 1855TIP3    H229761   1.601   4.906  17.375
 1856TIP3   OH229762   0.251   5.353  18.223
 1856TIP3    H129763   0.289   5.272  18.257
 1856TIP3    H229764   0.236   5.407  18.300
 1857TIP3   OH229765   0.691   5.106  17.225
 1857TIP3    H129766   0.756   5.046  17.261
 1857TIP3    H229767   0.709   5.189  17.270
 1858TIP3   OH229768   0.352   4.856  17.309
 1858TIP3    H129769   0.277   4.896  17.353
 1858TIP3    H229770   0.378   4.919  17.243
 1859TIP3   OH229771   1.132   4.124  18.314
 1859TIP3    H129772   1.213   4.131  18.364
 1859TIP3    H229773   1.100   4.035  18.332
 1860TIP3   OH229774   1.265   4.044  17.445
 1860TIP3    H129775   1.257   4.095  17.364
 1860TIP3    H229776   1.277   4.110  17.514
 1861TIP3   OH229777   0.986   5.310  17.271
 1861TIP3    H129778   0.899   5.343  17.292
 1861TIP3    H229779   1.035   5.386  17.240
 1862TIP3   OH229780   0.972   4.205  17.533
 1862TIP3    H129781   1.006   4.293  17.517
 1862TIP3    H229782   0.877   4.216  17.536
 1863TIP3   OH229783   1.003   4.360  18.383
 1863TIP3    H129784   1.010   4.372  18.478
 1863TIP3    H229785   1.042   4.274  18.367
 1864TIP3   OH229786   1.041   3.946  17.586
 1864TIP3    H129787   0.994   4.029  17.584
 1864TIP3    H229788   1.121   3.962  17.536
 1865TIP3   OH229789   0.712   5.371  17.311
 1865TIP3    H129790   0.690   5.397  17.221
 1865TIP3    H229791   0.654   5.424  17.366
 1866TIP3   OH229792   1.575   4.144  18.506
 1866TIP3    H129793   1.483   4.156  18.482
 1866TIP3    H229794   1.621   4.135  18.422
 1867TIP3   OH229795   1.476   4.517  17.907
 1867TIP3    H129796   1.394   4.469  17.896
 1867TIP3    H229797   1.535   4.456  17.951
 1868TIP3   OH229798   0.435   5.060  17.128
 1868TIP3    H129799   0.519   5.066  17.173
 1868TIP3    H229800   0.442   5.123  17.057
 1869TIP3   OH229801   1.584   5.445  18.050
 1869TIP3    H129802   1.567   5.513  17.984
 1869TIP3    H229803   1.677   5.455  18.070
 1870TIP3   OH229804   0.333   3.882  17.904
 1870TIP3    H129805   0.349   3.861  17.812
 1870TIP3    H229806   0.312   3.798  17.945
 1871TIP3   OH229807   0.227   5.248  17.526
 1871TIP3    H129808   0.167   5.313  17.487
 1871TIP3    H229809   0.312   5.291  17.524
 1872TIP3   OH229810   0.144   5.530  18.727
 1872TIP3    H129811   0.208   5.508  18.794
 1872TIP3    H229812   0.107   5.446  18.700
 1873TIP3   OH229813   0.583   5.373  18.859
 1873TIP3    H129814   0.678   5.361  18.870
 1873TIP3    H229815   0.567   5.349  18.768
 1874TIP3   OH229816   1.238   5.257  18.740
 1874TIP3    H129817   1.216   5.173  18.781
 1874TIP3    H229818   1.319   5.284  18.784
 1875TIP3   OH229819   0.207   4.910  18.788
 1875TIP3    H129820   0.243   4.822  18.800
 1875TIP3    H229821   0.115   4.896  18.768
 1876TIP3   OH229822   0.780   4.912  18.714
 1876TIP3    H129823   0.765   4.960  18.632
 1876TIP3    H229824   0.802   4.823  18.686
 1877TIP3   OH229825   1.364   4.920  18.499
 1877TIP3    H129826   1.454   4.943  18.479
 1877TIP3    H229827   1.314   5.000  18.485
 1878TIP3   OH229828   0.274   4.622  18.750
 1878TIP3    H129829   0.337   4.550  18.737
 1878TIP3    H229830   0.254   4.620  18.843
 1879TIP3   OH229831   0.705   4.691  17.249
 1879TIP3    H129832   0.610   4.696  17.250
 1879TIP3    H229833   0.724   4.618  17.189
 1880TIP3   OH229834   0.643   4.527  18.447
 1880TIP3    H129835   0.575   4.593  18.433
 1880TIP3    H229836   0.716   4.556  18.392
 1881TIP3   OH229837   1.141   4.773  18.785
 1881TIP3    H129838   1.219   4.737  18.742
 1881TIP3    H229839   1.111   4.703  18.843
 1882TIP3   OH229840   0.635   4.273  18.551
 1882TIP3    H129841   0.655   4.205  18.487
 1882TIP3    H229842   0.646   4.356  18.503
 1883TIP3   OH229843   0.705   4.105  18.332
 1883TIP3    H129844   0.765   4.144  18.269
 1883TIP3    H229845   0.623   4.094  18.284
 1884TIP3   OH229846   0.846   4.647  18.315
 1884TIP3    H129847   0.941   4.658  18.321
 1884TIP3    H229848   0.813   4.734  18.297
 1885TIP3   OH229849   1.260   4.416  18.823
 1885TIP3    H129850   1.246   4.327  18.791
 1885TIP3    H229851   1.354   4.430  18.814
 1886TIP3   OH229852   1.419   4.717  18.671
 1886TIP3    H129853   1.391   4.791  18.616
 1886TIP3    H229854   1.512   4.708  18.652
 1887TIP3   OH229855   0.443   4.398  18.724
 1887TIP3    H129856   0.403   4.316  18.751
 1887TIP3    H229857   0.516   4.373  18.668
 1888TIP3   OH229858   0.765   3.836  18.379
 1888TIP3    H129859   0.743   3.927  18.358
 1888TIP3    H229860   0.702   3.784  18.330
 1889TIP3   OH229861   0.870   4.250  18.728
 1889TIP3    H129862   0.848   4.214  18.814
 1889TIP3    H229863   0.790   4.243  18.677
 1890TIP3   OH229864   1.161   4.194  18.689
 1890TIP3    H129865   1.069   4.176  18.707
 1890TIP3    H229866   1.209   4.122  18.730
 1891TIP3   OH229867   1.338   4.039  18.838
 1891TIP3    H129868   1.332   3.945  18.824
 1891TIP3    H229869   1.310   4.052  18.929
 1892TIP3   OH229870   0.346   4.145  18.776
 1892TIP3    H129871   0.341   4.069  18.717
 1892TIP3    H229872   0.327   4.109  18.863
 1893TIP3   OH229873   0.761   3.776  18.645
 1893TIP3    H129874   0.821   3.702  18.642
 1893TIP3    H229875   0.753   3.804  18.554
 1894TIP3   OH229876   0.802   3.922  18.869
 1894TIP3    H129877   0.794   3.871  18.789
 1894TIP3    H229878   0.738   3.993  18.859
 1895TIP3   OH229879   0.146   5.043  17.147
 1895TIP3    H129880   0.238   5.064  17.132
 1895TIP3    H229881   0.129   4.968  17.090
 1896TIP3   OH229882   0.078   5.689  17.621
 1896TIP3    H129883  -0.017   5.677  17.616
 1896TIP3    H229884   0.110   5.609  17.661
 1897TIP3   OH229885   0.131   5.465  17.807
 1897TIP3    H129886   0.185   5.390  17.785
 1897TIP3    H229887   0.179   5.512  17.875
 1898TIP3   OH229888   1.851   5.534  18.104
 1898TIP3    H129889   1.933   5.484  18.108
 1898TIP3    H229890   1.843   5.558  18.011
 1899TIP3   OH229891   1.837   5.444  18.420
 1899TIP3    H129892   1.795   5.410  18.341
 1899TIP3    H229893   1.845   5.367  18.478
 1900TIP3   OH229894   1.661   5.026  18.869
 1900TIP3    H129895   1.574   5.033  18.908
 1900TIP3    H229896   1.711   5.098  18.909
 1901TIP3   OH229897   1.783   4.853  17.374
 1901TIP3    H129898   1.852   4.920  17.370
 1901TIP3    H229899   1.803   4.804  17.454
 1902TIP3   OH229900   1.831   4.685  17.589
 1902TIP3    H129901   1.750   4.643  17.618
 1902TIP3    H229902   1.883   4.693  17.669
 1903TIP3   OH229903   1.828   4.973  18.103
 1903TIP3    H129904   1.877   4.902  18.060
 1903TIP3    H229905   1.859   5.053  18.059
 1904TIP3   OH229906   1.648   5.238  18.300
 1904TIP3    H129907   1.579   5.290  18.341
 1904TIP3    H229908   1.613   5.214  18.214
 1905TIP3   OH229909   1.833   4.615  17.213
 1905TIP3    H129910   1.838   4.659  17.129
 1905TIP3    H229911   1.817   4.685  17.276
 1906TIP3   OH229912   1.641   4.401  17.075
 1906TIP3    H129913   1.646   4.477  17.016
 1906TIP3    H229914   1.705   4.420  17.143
 1907TIP3   OH229915   1.604   4.540  17.659
 1907TIP3    H129916   1.598   4.451  17.627
 1907TIP3    H229917   1.565   4.537  17.747
 1908TIP3   OH229918   0.144   4.787  18.041
 1908TIP3    H129919   0.178   4.770  17.953
 1908TIP3    H229920   0.216   4.765  18.100
 1909TIP3   OH229921   1.693   4.718  18.614
 1909TIP3    H129922   1.744   4.638  18.602
 1909TIP3    H229923   1.745   4.787  18.572
 1910TIP3   OH229924   1.826   4.481  18.611
 1910TIP3    H129925   1.739   4.442  18.619
 1910TIP3    H229926   1.886   4.406  18.616
 1911TIP3   OH229927   1.582   4.297  17.498
 1911TIP3    H129928   1.594   4.202  17.507
 1911TIP3    H229929   1.652   4.325  17.439
 1912TIP3   OH229930   1.647   4.338  18.032
 1912TIP3    H129931   1.740   4.354  18.023
 1912TIP3    H229932   1.629   4.354  18.125
 1913TIP3   OH229933   1.646   4.435  18.299
 1913TIP3    H129934   1.565   4.471  18.334
 1913TIP3    H229935   1.701   4.512  18.282
 1914TIP3   OH229936   0.125   4.179  18.615
 1914TIP3    H129937   0.198   4.203  18.673
 1914TIP3    H229938   0.126   4.083  18.615
 1915TIP3   OH229939   1.865   3.840  18.828
 1915TIP3    H129940   1.921   3.778  18.781
 1915TIP3    H229941   1.854   3.914  18.768
 1916TIP3   OH229942   1.627   4.010  17.493
 1916TIP3    H129943   1.657   3.974  17.576
 1916TIP3    H229944   1.553   3.954  17.468
 1917TIP3   OH229945   0.168   4.069  18.022
 1917TIP3    H129946   0.224   4.001  17.985
 1917TIP3    H229947   0.225   4.146  18.027
 1918TIP3   OH229948   0.127   4.407  17.990
 1918TIP3    H129949   0.129   4.353  17.911
 1918TIP3    H229950   0.139   4.497  17.958
 1919TIP3   OH229951   1.796   4.032  18.648
 1919TIP3    H129952   1.719   4.077  18.684
 1919TIP3    H229953   1.764   3.991  18.568
 1920TIP3   OH229954   0.090   4.119  17.508
 1920TIP3    H129955   0.012   4.087  17.464
 1920TIP3    H229956   0.161   4.066  17.474
 1921TIP3   OH229957   1.556   5.514  17.657
 1921TIP3    H129958   1.617   5.497  17.585
 1921TIP3    H229959   1.602   5.576  17.714
 1922TIP3   OH229960   0.093   3.919  18.270
 1922TIP3    H129961   0.005   3.883  18.269
 1922TIP3    H229962   0.102   3.964  18.186
 1923TIP3   OH229963   0.255   5.184  18.707
 1923TIP3    H129964   0.211   5.193  18.623
 1923TIP3    H229965   0.237   5.094  18.735
 1924TIP3   OH229966   0.574   5.357  18.340
 1924TIP3    H129967   0.542   5.438  18.299
 1924TIP3    H229968   0.668   5.359  18.325
 1925TIP3   OH229969   0.963   5.470  18.605
 1925TIP3    H129970   0.978   5.448  18.697
 1925TIP3    H229971   1.042   5.517  18.578
 1926TIP3   OH229972   1.196   5.607  18.559
 1926TIP3    H129973   1.263   5.557  18.512
 1926TIP3    H229974   1.237   5.629  18.643
 1927TIP3   OH229975   1.712   3.809  18.456
 1927TIP3    H129976   1.633   3.815  18.401
 1927TIP3    H229977   1.749   3.724  18.436
 1928TIP3   OH229978   0.301   5.642  18.381
 1928TIP3    H129979   0.227   5.683  18.337
 1928TIP3    H229980   0.303   5.682  18.468
 1929TIP3   OH229981   0.535   5.617  18.237
 1929TIP3    H129982   0.457   5.630  18.291
 1929TIP3    H229983   0.509   5.644  18.149
 1930TIP3   OH229984   1.007   5.557  18.152
 1930TIP3    H129985   1.037   5.580  18.064
 1930TIP3    H229986   1.016   5.638  18.202
 1931TIP3   OH229987   1.225   5.446  18.282
 1931TIP3    H129988   1.146   5.477  18.238
 1931TIP3    H229989   1.295   5.503  18.249
 1932TIP3   OH229990   1.476   5.594  18.256
 1932TIP3    H129991   1.481   5.686  18.230
 1932TIP3    H229992   1.508   5.545  18.179
 1933TIP3   OH229993   0.300   5.555  18.027
 1933TIP3    H129994   0.275   5.497  18.099
 1933TIP3    H229995   0.359   5.502  17.973
 1934TIP3   OH229996   0.451   5.368  17.902
 1934TIP3    H129997   0.428   5.276  17.915
 1934TIP3    H229998   0.541   5.375  17.934
 1935TIP3   OH229999   0.700   5.359  18.025
 1935TIP3    H130000   0.708   5.266  18.003
 1935TIP3    H230001   0.747   5.368  18.108
 1936TIP3   OH230002   1.067   3.966  17.912
 1936TIP3    H130003   0.993   3.913  17.941
 1936TIP3    H230004   1.072   3.950  17.818
 1937TIP3   OH230005   1.568   3.799  17.894
 1937TIP3    H130006   1.630   3.849  17.841
 1937TIP3    H230007   1.482   3.820  17.857
 1938TIP3   OH230008   1.746   3.913  17.720
 1938TIP3    H130009   1.809   3.846  17.693
 1938TIP3    H230010   1.800   3.990  17.737
 1939TIP3   OH230011   0.246   3.817  17.213
 1939TIP3    H130012   0.174   3.844  17.155
 1939TIP3    H230013   0.204   3.802  17.297
 1940TIP3   OH230014   0.759   3.786  17.688
 1940TIP3    H130015   0.841   3.816  17.649
 1940TIP3    H230016   0.694   3.852  17.659
 1941TIP3   OH230017   1.327   3.843  17.776
 1941TIP3    H130018   1.280   3.866  17.696
 1941TIP3    H230019   1.279   3.768  17.811
 1942TIP3   OH230020   1.424   3.835  17.369
 1942TIP3    H130021   1.361   3.903  17.391
 1942TIP3    H230022   1.381   3.753  17.393
 1943TIP3   OH230023   0.121   5.462  17.391
 1943TIP3    H130024   0.044   5.517  17.376
 1943TIP3    H230025   0.194   5.511  17.352
 1944TIP3   OH230026   1.746   5.455  17.456
 1944TIP3    H130027   1.707   5.378  17.416
 1944TIP3    H230028   1.724   5.527  17.397
 1945TIP3   OH230029   0.263   3.901  18.646
 1945TIP3    H130030   0.205   3.825  18.657
 1945TIP3    H230031   0.345   3.873  18.686
 1946TIP3   OH230032   0.481   3.823  18.800
 1946TIP3    H130033   0.567   3.797  18.766
 1946TIP3    H230034   0.446   3.743  18.839
 1947TIP3   OH230035   1.343   3.767  18.791
 1947TIP3    H130036   1.334   3.715  18.870
 1947TIP3    H230037   1.436   3.759  18.767
 1948TIP3   OH230038   1.632   5.376  18.667
 1948TIP3    H130039   1.576   5.372  18.589
 1948TIP3    H230040   1.619   5.465  18.701
 1949TIP3   OH230041   3.092   4.742  17.642
 1949TIP3    H130042   3.079   4.836  17.642
 1949TIP3    H230043   3.029   4.708  17.578
 1950TIP3   OH230044   2.995   4.670  18.022
 1950TIP3    H130045   3.001   4.636  18.111
 1950TIP3    H230046   2.949   4.601  17.973
 1951TIP3   OH230047   2.190   4.623  18.158
 1951TIP3    H130048   2.201   4.549  18.218
 1951TIP3    H230049   2.278   4.638  18.122
 1952TIP3   OH230050   3.350   4.966  17.857
 1952TIP3    H130051   3.309   4.900  17.912
 1952TIP3    H230052   3.372   5.037  17.917
 1953TIP3   OH230053   2.305   5.102  17.970
 1953TIP3    H130054   2.282   5.014  17.940
 1953TIP3    H230055   2.400   5.101  17.978
 1954TIP3   OH230056   1.964   4.430  17.549
 1954TIP3    H130057   1.937   4.521  17.563
 1954TIP3    H230058   1.906   4.397  17.480
 1955TIP3   OH230059   2.026   4.670  17.789
 1955TIP3    H130060   2.054   4.582  17.813
 1955TIP3    H230061   2.106   4.713  17.759
 1956TIP3   OH230062   3.054   5.475  17.843
 1956TIP3    H130063   3.136   5.470  17.795
 1956TIP3    H230064   3.055   5.399  17.901
 1957TIP3   OH230065   2.796   4.949  18.054
 1957TIP3    H130066   2.838   4.892  17.990
 1957TIP3    H230067   2.866   4.970  18.117
 1958TIP3   OH230068   3.685   4.042  18.121
 1958TIP3    H130069   3.688   4.115  18.184
 1958TIP3    H230070   3.746   4.067  18.052
 1959TIP3   OH230071   3.135   4.366  18.086
 1959TIP3    H130072   3.176   4.280  18.090
 1959TIP3    H230073   3.052   4.352  18.041
 1960TIP3   OH230074   2.468   4.156  17.776
 1960TIP3    H130075   2.468   4.242  17.733
 1960TIP3    H230076   2.418   4.100  17.716
 1961TIP3   OH230077   2.121   4.421  17.872
 1961TIP3    H130078   2.187   4.377  17.925
 1961TIP3    H230079   2.134   4.387  17.784
 1962TIP3   OH230080   2.598   4.554  17.828
 1962TIP3    H130081   2.689   4.526  17.815
 1962TIP3    H230082   2.546   4.495  17.774
 1963TIP3   OH230083   3.677   4.210  18.342
 1963TIP3    H130084   3.631   4.291  18.320
 1963TIP3    H230085   3.742   4.237  18.407
 1964TIP3   OH230086   2.342   4.085  18.213
 1964TIP3    H130087   2.308   4.133  18.137
 1964TIP3    H230088   2.273   4.092  18.279
 1965TIP3   OH230089   3.040   5.010  17.581
 1965TIP3    H130090   2.993   5.005  17.498
 1965TIP3    H230091   3.028   5.101  17.610
 1966TIP3   OH230092   2.573   4.848  18.179
 1966TIP3    H130093   2.520   4.920  18.215
 1966TIP3    H230094   2.646   4.893  18.136
 1967TIP3   OH230095   2.307   4.242  17.985
 1967TIP3    H130096   2.372   4.294  18.033
 1967TIP3    H230097   2.355   4.202  17.914
 1968TIP3   OH230098   2.436   5.063  18.285
 1968TIP3    H130099   2.437   5.152  18.250
 1968TIP3    H230100   2.351   5.055  18.329
 1969TIP3   OH230101   1.999   5.037  17.368
 1969TIP3    H130102   2.075   4.989  17.335
 1969TIP3    H230103   2.028   5.072  17.453
 1970TIP3   OH230104   3.394   5.178  18.051
 1970TIP3    H130105   3.302   5.179  18.076
 1970TIP3    H230106   3.412   5.268  18.023
 1971TIP3   OH230107   3.444   3.944  18.230
 1971TIP3    H130108   3.375   3.995  18.188
 1971TIP3    H230109   3.523   3.967  18.180
 1972TIP3   OH230110   2.711   3.779  17.960
 1972TIP3    H130111   2.678   3.690  17.950
 1972TIP3    H230112   2.634   3.831  17.982
 1973TIP3   OH230113   3.288   5.416  17.696
 1973TIP3    H130114   3.303   5.328  17.662
 1973TIP3    H230115   3.256   5.465  17.621
 1974TIP3   OH230116   3.355   5.131  17.604
 1974TIP3    H130117   3.340   5.070  17.532
 1974TIP3    H230118   3.342   5.078  17.683
 1975TIP3   OH230119   3.510   4.993  18.432
 1975TIP3    H130120   3.501   4.933  18.358
 1975TIP3    H230121   3.517   5.080  18.392
 1976TIP3   OH230122   2.941   4.655  17.432
 1976TIP3    H130123   2.882   4.725  17.403
 1976TIP3    H230124   3.009   4.652  17.364
 1977TIP3   OH230125   3.690   4.658  18.256
 1977TIP3    H130126   3.616   4.719  18.248
 1977TIP3    H230127   3.741   4.672  18.175
 1978TIP3   OH230128   3.339   4.701  17.535
 1978TIP3    H130129   3.248   4.708  17.562
 1978TIP3    H230130   3.387   4.756  17.597
 1979TIP3   OH230131   3.289   4.529  18.435
 1979TIP3    H130132   3.290   4.604  18.494
 1979TIP3    H230133   3.219   4.549  18.372
 1980TIP3   OH230134   2.467   4.763  17.685
 1980TIP3    H130135   2.421   4.726  17.609
 1980TIP3    H230136   2.520   4.691  17.718
 1981TIP3   OH230137   2.586   5.120  17.950
 1981TIP3    H130138   2.586   5.122  17.855
 1981TIP3    H230139   2.661   5.064  17.973
 1982TIP3   OH230140   2.446   4.649  18.041
 1982TIP3    H130141   2.502   4.624  17.967
 1982TIP3    H230142   2.495   4.717  18.086
 1983TIP3   OH230143   3.141   5.196  18.145
 1983TIP3    H130144   3.119   5.269  18.203
 1983TIP3    H230145   3.088   5.123  18.177
 1984TIP3   OH230146   2.600   5.096  18.507
 1984TIP3    H130147   2.539   5.151  18.555
 1984TIP3    H230148   2.555   5.076  18.425
 1985TIP3   OH230149   3.164   4.665  17.268
 1985TIP3    H130150   3.247   4.676  17.313
 1985TIP3    H230151   3.170   4.723  17.192
 1986TIP3   OH230152   2.281   4.687  18.477
 1986TIP3    H130153   2.288   4.777  18.510
 1986TIP3    H230154   2.188   4.674  18.461
 1987TIP3   OH230155   2.972   5.282  17.624
 1987TIP3    H130156   2.983   5.361  17.676
 1987TIP3    H230157   2.925   5.311  17.546
 1988TIP3   OH230158   2.406   5.266  18.606
 1988TIP3    H130159   2.406   5.301  18.517
 1988TIP3    H230160   2.313   5.255  18.627
 1989TIP3   OH230161   2.320   4.669  17.474
 1989TIP3    H130162   2.291   4.750  17.431
 1989TIP3    H230163   2.302   4.601  17.409
 1990TIP3   OH230164   3.645   5.234  17.132
 1990TIP3    H130165   3.609   5.253  17.218
 1990TIP3    H230166   3.651   5.138  17.129
 1991TIP3   OH230167   1.981   4.919  18.339
 1991TIP3    H130168   1.932   4.931  18.257
 1991TIP3    H230169   1.997   4.825  18.344
 1992TIP3   OH230170   2.001   5.191  18.015
 1992TIP3    H130171   2.084   5.156  17.984
 1992TIP3    H230172   2.022   5.231  18.100
 1993TIP3   OH230173   3.771   5.273  18.625
 1993TIP3    H130174   3.759   5.179  18.612
 1993TIP3    H230175   3.684   5.305  18.651
 1994TIP3   OH230176   2.852   5.202  18.488
 1994TIP3    H130177   2.853   5.287  18.531
 1994TIP3    H230178   2.763   5.169  18.502
 1995TIP3   OH230179   2.250   5.463  17.658
 1995TIP3    H130180   2.286   5.421  17.737
 1995TIP3    H230181   2.193   5.395  17.620
 1996TIP3   OH230182   3.454   4.391  18.640
 1996TIP3    H130183   3.398   4.432  18.574
 1996TIP3    H230184   3.454   4.298  18.617
 1997TIP3   OH230185   2.198   5.064  18.420
 1997TIP3    H130186   2.214   5.032  18.509
 1997TIP3    H230187   2.122   5.015  18.390
 1998TIP3   OH230188   2.468   3.901  18.039
 1998TIP3    H130189   2.393   3.892  17.980
 1998TIP3    H230190   2.441   3.969  18.101
 1999TIP3   OH230191   2.942   3.873  18.366
 1999TIP3    H130192   2.986   3.824  18.435
 1999TIP3    H230193   2.849   3.857  18.381
 2000TIP3   OH230194   3.210   4.253  18.460
 2000TIP3    H130195   3.158   4.244  18.539
 2000TIP3    H230196   3.225   4.347  18.451
 2001TIP3   OH230197   2.925   4.129  17.149
 2001TIP3    H130198   2.847   4.088  17.187
 2001TIP3    H230199   2.890   4.184  17.078
 2002TIP3   OH230200   2.470   4.395  18.149
 2002TIP3    H130201   2.400   4.394  18.215
 2002TIP3    H230202   2.469   4.483  18.114
 2003TIP3   OH230203   2.449   4.403  17.659
 2003TIP3    H130204   2.354   4.392  17.656
 2003TIP3    H230205   2.477   4.394  17.568
 2004TIP3   OH230206   2.911   4.466  18.657
 2004TIP3    H130207   2.864   4.390  18.692
 2004TIP3    H230208   2.993   4.467  18.706
 2005TIP3   OH230209   2.248   4.395  18.315
 2005TIP3    H130210   2.284   4.429  18.397
 2005TIP3    H230211   2.211   4.310  18.338
 2006TIP3   OH230212   1.918   4.121  17.743
 2006TIP3    H130213   1.962   4.122  17.829
 2006TIP3    H230214   1.974   4.176  17.688
 2007TIP3   OH230215   3.061   4.550  18.268
 2007TIP3    H130216   3.097   4.486  18.206
 2007TIP3    H230217   2.991   4.504  18.313
 2008TIP3   OH230218   2.754   4.190  17.774
 2008TIP3    H130219   2.661   4.169  17.783
 2008TIP3    H230220   2.799   4.109  17.797
 2009TIP3   OH230221   2.193   4.309  17.637
 2009TIP3    H130222   2.121   4.341  17.582
 2009TIP3    H230223   2.217   4.225  17.598
 2010TIP3   OH230224   2.514   4.347  17.400
 2010TIP3    H130225   2.607   4.328  17.414
 2010TIP3    H230226   2.511   4.395  17.317
 2011TIP3   OH230227   3.173   4.087  18.085
 2011TIP3    H130228   3.104   4.093  18.152
 2011TIP3    H230229   3.150   4.009  18.034
 2012TIP3   OH230230   2.468   4.456  17.149
 2012TIP3    H130231   2.385   4.417  17.122
 2012TIP3    H230232   2.527   4.439  17.076
 2013TIP3   OH230233   3.490   5.653  18.714
 2013TIP3    H130234   3.515   5.687  18.628
 2013TIP3    H230235   3.563   5.677  18.772
 2014TIP3   OH230236   2.234   4.936  18.673
 2014TIP3    H130237   2.307   4.920  18.733
 2014TIP3    H230238   2.158   4.900  18.717
 2015TIP3   OH230239   2.889   4.355  17.957
 2015TIP3    H130240   2.849   4.305  17.886
 2015TIP3    H230241   2.836   4.333  18.034
 2016TIP3   OH230242   2.294   4.060  17.577
 2016TIP3    H130243   2.253   3.975  17.595
 2016TIP3    H230244   2.339   4.047  17.494
 2017TIP3   OH230245   2.726   4.295  18.174
 2017TIP3    H130246   2.641   4.338  18.168
 2017TIP3    H230247   2.768   4.336  18.249
 2018TIP3   OH230248   2.786   4.872  17.363
 2018TIP3    H130249   2.738   4.914  17.291
 2018TIP3    H230250   2.742   4.902  17.442
 2019TIP3   OH230251   3.483   4.837  18.210
 2019TIP3    H130252   3.541   4.891  18.156
 2019TIP3    H230253   3.404   4.825  18.157
 2020TIP3   OH230254   2.897   4.918  18.477
 2020TIP3    H130255   2.915   4.885  18.565
 2020TIP3    H230256   2.881   5.011  18.489
 2021TIP3   OH230257   2.293   4.838  17.883
 2021TIP3    H130258   2.348   4.828  17.806
 2021TIP3    H230259   2.324   4.770  17.944
 2022TIP3   OH230260   2.002   4.656  18.452
 2022TIP3    H130261   1.980   4.607  18.531
 2022TIP3    H230262   1.933   4.633  18.390
 2023TIP3   OH230263   2.687   4.632  18.650
 2023TIP3    H130264   2.628   4.591  18.587
 2023TIP3    H230265   2.771   4.586  18.638
 2024TIP3   OH230266   3.132   5.165  18.484
 2024TIP3    H130267   3.039   5.176  18.464
 2024TIP3    H230268   3.143   5.202  18.571
 2025TIP3   OH230269   3.742   4.992  18.575
 2025TIP3    H130270   3.650   4.998  18.549
 2025TIP3    H230271   3.789   4.972  18.495
 2026TIP3   OH230272   3.508   5.240  17.371
 2026TIP3    H130273   3.494   5.191  17.452
 2026TIP3    H230274   3.423   5.237  17.327
 2027TIP3   OH230275   3.261   4.758  18.047
 2027TIP3    H130276   3.168   4.747  18.028
 2027TIP3    H230277   3.297   4.669  18.045
 2028TIP3   OH230278   2.523   5.179  17.675
 2028TIP3    H130279   2.547   5.270  17.657
 2028TIP3    H230280   2.450   5.161  17.615
 2029TIP3   OH230281   2.146   4.673  17.179
 2029TIP3    H130282   2.122   4.732  17.107
 2029TIP3    H230283   2.074   4.610  17.183
 2030TIP3   OH230284   2.651   4.950  17.586
 2030TIP3    H130285   2.622   5.036  17.615
 2030TIP3    H230286   2.586   4.889  17.622
 2031TIP3   OH230287   2.720   5.353  18.281
 2031TIP3    H130288   2.777   5.427  18.258
 2031TIP3    H230289   2.775   5.295  18.333
 2032TIP3   OH230290   2.526   5.446  17.614
 2032TIP3    H130291   2.434   5.459  17.592
 2032TIP3    H230292   2.560   5.535  17.624
 2033TIP3   OH230293   3.014   4.958  18.230
 2033TIP3    H130294   2.978   4.938  18.317
 2033TIP3    H230295   3.088   4.898  18.221
 2034TIP3   OH230296   3.344   5.392  18.439
 2034TIP3    H130297   3.259   5.350  18.422
 2034TIP3    H230298   3.345   5.469  18.382
 2035TIP3   OH230299   2.158   4.142  18.421
 2035TIP3    H130300   2.087   4.184  18.468
 2035TIP3    H230301   2.162   4.053  18.457
 2036TIP3   OH230302   3.425   4.936  17.400
 2036TIP3    H130303   3.381   4.852  17.416
 2036TIP3    H230304   3.516   4.912  17.381
 2037TIP3   OH230305   2.118   5.309  18.248
 2037TIP3    H130306   2.155   5.228  18.283
 2037TIP3    H230307   2.129   5.373  18.319
 2038TIP3   OH230308   2.570   5.173  17.241
 2038TIP3    H130309   2.657   5.173  17.280
 2038TIP3    H230310   2.552   5.265  17.222
 2039TIP3   OH230311   2.231   4.888  17.325
 2039TIP3    H130312   2.205   4.819  17.264
 2039TIP3    H230313   2.270   4.955  17.270
 2040TIP3   OH230314   3.013   4.133  18.311
 2040TIP3    H130315   3.091   4.153  18.362
 2040TIP3    H230316   2.989   4.044  18.337
 2041TIP3   OH230317   2.811   5.319  17.311
 2041TIP3    H130318   2.740   5.379  17.290
 2041TIP3    H230319   2.878   5.337  17.247
 2042TIP3   OH230320   2.760   4.262  17.496
 2042TIP3    H130321   2.849   4.293  17.478
 2042TIP3    H230322   2.762   4.236  17.589
 2043TIP3   OH230323   2.887   4.375  18.388
 2043TIP3    H130324   2.896   4.392  18.482
 2043TIP3    H230325   2.926   4.288  18.376
 2044TIP3   OH230326   2.945   3.985  17.553
 2044TIP3    H130327   2.934   3.979  17.648
 2044TIP3    H230328   3.040   3.986  17.539
 2045TIP3   OH230329   2.447   4.075  17.350
 2045TIP3    H130330   2.447   4.171  17.352
 2045TIP3    H230331   2.538   4.052  17.329
 2046TIP3   OH230332   3.458   4.146  18.509
 2046TIP3    H130333   3.371   4.159  18.473
 2046TIP3    H230334   3.516   4.147  18.433
 2047TIP3   OH230335   2.314   5.099  17.174
 2047TIP3    H130336   2.397   5.127  17.213
 2047TIP3    H230337   2.329   5.105  17.079
 2048TIP3   OH230338   3.463   5.457  18.050
 2048TIP3    H130339   3.449   5.507  17.969
 2048TIP3    H230340   3.557   5.460  18.064
 2049TIP3   OH230341   2.209   3.878  17.937
 2049TIP3    H130342   2.198   3.866  17.843
 2049TIP3    H230343   2.185   3.793  17.975
 2050TIP3   OH230344   2.075   5.294  17.519
 2050TIP3    H130345   1.980   5.299  17.519
 2050TIP3    H230346   2.099   5.298  17.426
 2051TIP3   OH230347   2.002   5.517  18.697
 2051TIP3    H130348   2.069   5.500  18.764
 2051TIP3    H230349   1.968   5.430  18.675
 2052TIP3   OH230350   2.458   5.405  18.840
 2052TIP3    H130351   2.544   5.379  18.872
 2052TIP3    H230352   2.448   5.357  18.757
 2053TIP3   OH230353   3.130   5.265  18.741
 2053TIP3    H130354   3.108   5.182  18.783
 2053TIP3    H230355   3.210   5.294  18.786
 2054TIP3   OH230356   3.389   5.333  17.039
 2054TIP3    H130357   3.341   5.251  17.022
 2054TIP3    H230358   3.476   5.304  17.066
 2055TIP3   OH230359   1.986   4.906  18.802
 2055TIP3    H130360   1.941   4.829  18.836
 2055TIP3    H230361   1.934   4.933  18.726
 2056TIP3   OH230362   2.659   4.910  18.702
 2056TIP3    H130363   2.648   4.956  18.619
 2056TIP3    H230364   2.676   4.819  18.677
 2057TIP3   OH230365   3.252   4.912  18.495
 2057TIP3    H130366   3.341   4.942  18.479
 2057TIP3    H230367   3.197   4.990  18.486
 2058TIP3   OH230368   2.122   4.598  18.754
 2058TIP3    H130369   2.212   4.577  18.727
 2058TIP3    H230370   2.131   4.630  18.844
 2059TIP3   OH230371   2.493   4.514  18.452
 2059TIP3    H130372   2.425   4.580  18.458
 2059TIP3    H230373   2.559   4.553  18.395
 2060TIP3   OH230374   3.026   4.784  18.777
 2060TIP3    H130375   3.106   4.746  18.741
 2060TIP3    H230376   2.994   4.718  18.838
 2061TIP3   OH230377   3.550   4.764  17.007
 2061TIP3    H130378   3.494   4.732  16.937
 2061TIP3    H230379   3.497   4.828  17.053
 2062TIP3   OH230380   2.552   4.263  18.548
 2062TIP3    H130381   2.565   4.199  18.478
 2062TIP3    H230382   2.537   4.346  18.502
 2063TIP3   OH230383   2.591   4.097  18.324
 2063TIP3    H130384   2.646   4.144  18.261
 2063TIP3    H230385   2.505   4.094  18.283
 2064TIP3   OH230386   2.691   4.647  18.323
 2064TIP3    H130387   2.779   4.679  18.343
 2064TIP3    H230388   2.651   4.719  18.273
 2065TIP3   OH230389   3.147   4.416  18.825
 2065TIP3    H130390   3.136   4.327  18.790
 2065TIP3    H230391   3.241   4.430  18.824
 2066TIP3   OH230392   3.309   4.715  18.670
 2066TIP3    H130393   3.279   4.788  18.615
 2066TIP3    H230394   3.404   4.711  18.655
 2067TIP3   OH230395   2.386   4.337  18.766
 2067TIP3    H130396   2.307   4.284  18.755
 2067TIP3    H230397   2.437   4.321  18.686
 2068TIP3   OH230398   2.666   3.835  18.367
 2068TIP3    H130399   2.641   3.926  18.349
 2068TIP3    H230400   2.599   3.782  18.324
 2069TIP3   OH230401   2.767   4.242  18.723
 2069TIP3    H130402   2.726   4.215  18.805
 2069TIP3    H230403   2.696   4.244  18.659
 2070TIP3   OH230404   3.050   4.197  18.676
 2070TIP3    H130405   2.958   4.187  18.698
 2070TIP3    H230406   3.094   4.127  18.724
 2071TIP3   OH230407   3.219   4.044  18.835
 2071TIP3    H130408   3.212   3.949  18.825
 2071TIP3    H230409   3.193   4.061  18.926
 2072TIP3   OH230410   2.181   4.144  18.750
 2072TIP3    H130411   2.182   4.063  18.698
 2072TIP3    H230412   2.184   4.114  18.841
 2073TIP3   OH230413   2.642   3.779  18.635
 2073TIP3    H130414   2.701   3.704  18.634
 2073TIP3    H230415   2.639   3.809  18.545
 2074TIP3   OH230416   2.691   3.920  18.865
 2074TIP3    H130417   2.679   3.879  18.779
 2074TIP3    H230418   2.636   3.999  18.861
 2075TIP3   OH230419   1.909   5.602  17.625
 2075TIP3    H130420   1.858   5.556  17.558
 2075TIP3    H230421   1.923   5.537  17.693
 2076TIP3   OH230422   1.944   5.431  17.838
 2076TIP3    H130423   1.929   5.337  17.854
 2076TIP3    H230424   2.022   5.451  17.889
 2077TIP3   OH230425   3.729   5.488  18.112
 2077TIP3    H130426   3.726   5.500  18.207
 2077TIP3    H230427   3.807   5.537  18.085
 2078TIP3   OH230428   3.675   5.449  18.386
 2078TIP3    H130429   3.628   5.376  18.346
 2078TIP3    H230430   3.719   5.410  18.461
 2079TIP3   OH230431   3.540   5.025  18.865
 2079TIP3    H130432   3.453   5.033  18.904
 2079TIP3    H230433   3.591   5.097  18.903
 2080TIP3   OH230434   3.690   4.837  17.385
 2080TIP3    H130435   3.771   4.888  17.389
 2080TIP3    H230436   3.696   4.776  17.458
 2081TIP3   OH230437   3.709   4.656  17.600
 2081TIP3    H130438   3.634   4.642  17.658
 2081TIP3    H230439   3.783   4.672  17.659
 2082TIP3   OH230440   3.702   4.962  18.101
 2082TIP3    H130441   3.753   4.895  18.055
 2082TIP3    H230442   3.727   5.044  18.058
 2083TIP3   OH230443   3.522   5.233  18.297
 2083TIP3    H130444   3.449   5.280  18.336
 2083TIP3    H230445   3.491   5.209  18.209
 2084TIP3   OH230446   3.763   4.665  17.166
 2084TIP3    H130447   3.696   4.690  17.103
 2084TIP3    H230448   3.742   4.715  17.244
 2085TIP3   OH230449   1.974   4.748  18.048
 2085TIP3    H130450   1.981   4.728  17.955
 2085TIP3    H230451   2.056   4.716  18.085
 2086TIP3   OH230452   3.581   4.721  18.612
 2086TIP3    H130453   3.633   4.642  18.600
 2086TIP3    H230454   3.627   4.788  18.562
 2087TIP3   OH230455   3.711   4.482  18.608
 2087TIP3    H130456   3.625   4.444  18.622
 2087TIP3    H230457   3.772   4.408  18.615
 2088TIP3   OH230458   3.513   4.390  18.016
 2088TIP3    H130459   3.608   4.387  18.004
 2088TIP3    H230460   3.501   4.388  18.111
 2089TIP3   OH230461   3.528   4.436  18.299
 2089TIP3    H130462   3.450   4.474  18.338
 2089TIP3    H230463   3.586   4.511  18.284
 2090TIP3   OH230464   1.968   4.241  18.603
 2090TIP3    H130465   2.041   4.229  18.664
 2090TIP3    H230466   1.908   4.170  18.625
 2091TIP3   OH230467   3.746   3.835  18.823
 2091TIP3    H130468   3.802   3.768  18.783
 2091TIP3    H230469   3.745   3.906  18.760
 2092TIP3   OH230470   2.058   4.104  17.982
 2092TIP3    H130471   2.100   4.018  17.974
 2092TIP3    H230472   2.130   4.166  17.987
 2093TIP3   OH230473   1.912   4.411  18.054
 2093TIP3    H130474   1.973   4.404  17.981
 2093TIP3    H230475   1.957   4.468  18.117
 2094TIP3   OH230476   3.683   4.033  18.648
 2094TIP3    H130477   3.608   4.076  18.688
 2094TIP3    H230478   3.648   3.988  18.571
 2095TIP3   OH230479   1.916   4.006  17.394
 2095TIP3    H130480   1.847   4.027  17.456
 2095TIP3    H230481   1.944   4.090  17.359
 2096TIP3   OH230482   1.932   3.877  18.280
 2096TIP3    H130483   1.861   3.865  18.344
 2096TIP3    H230484   1.894   3.934  18.213
 2097TIP3   OH230485   2.146   5.226  18.689
 2097TIP3    H130486   2.052   5.228  18.667
 2097TIP3    H230487   2.162   5.136  18.718
 2098TIP3   OH230488   2.451   5.350  18.346
 2098TIP3    H130489   2.432   5.437  18.311
 2098TIP3    H230490   2.546   5.341  18.335
 2099TIP3   OH230491   2.854   5.456  18.599
 2099TIP3    H130492   2.865   5.436  18.692
 2099TIP3    H230493   2.931   5.508  18.576
 2100TIP3   OH230494   3.080   5.609  18.557
 2100TIP3    H130495   3.144   5.554  18.512
 2100TIP3    H230496   3.122   5.632  18.640
 2101TIP3   OH230497   3.584   3.846  18.456
 2101TIP3    H130498   3.526   3.882  18.389
 2101TIP3    H230499   3.603   3.757  18.427
 2102TIP3   OH230500   2.176   5.645  18.338
 2102TIP3    H130501   2.101   5.689  18.297
 2102TIP3    H230502   2.180   5.682  18.426
 2103TIP3   OH230503   2.432   5.604  18.246
 2103TIP3    H130504   2.341   5.621  18.272
 2103TIP3    H230505   2.443   5.650  18.163
 2104TIP3   OH230506   2.880   5.559  18.181
 2104TIP3    H130507   2.845   5.586  18.096
 2104TIP3    H230508   2.894   5.640  18.229
 2105TIP3   OH230509   3.109   5.441  18.281
 2105TIP3    H130510   3.027   5.475  18.244
 2105TIP3    H230511   3.175   5.505  18.254
 2106TIP3   OH230512   3.343   5.598  18.253
 2106TIP3    H130513   3.360   5.691  18.234
 2106TIP3    H230514   3.383   5.551  18.180
 2107TIP3   OH230515   2.140   5.483  18.030
 2107TIP3    H130516   2.142   5.431  18.110
 2107TIP3    H230517   2.216   5.453  17.980
 2108TIP3   OH230518   2.348   5.369  17.902
 2108TIP3    H130519   2.338   5.275  17.916
 2108TIP3    H230520   2.438   5.388  17.930
 2109TIP3   OH230521   2.603   5.389  18.024
 2109TIP3    H130522   2.611   5.300  17.992
 2109TIP3    H230523   2.635   5.385  18.114
 2110TIP3   OH230524   2.896   3.960  17.836
 2110TIP3    H130525   2.844   3.896  17.885
 2110TIP3    H230526   2.983   3.922  17.832
 2111TIP3   OH230527   3.462   3.762  17.845
 2111TIP3    H130528   3.537   3.783  17.789
 2111TIP3    H230529   3.386   3.793  17.797
 2112TIP3   OH230530   2.169   3.828  17.668
 2112TIP3    H130531   2.078   3.813  17.643
 2112TIP3    H230532   2.210   3.742  17.661
 2113TIP3   OH230533   2.042   3.814  17.234
 2113TIP3    H130534   2.088   3.872  17.173
 2113TIP3    H230535   2.005   3.873  17.300
 2114TIP3   OH230536   2.648   3.770  17.649
 2114TIP3    H130537   2.710   3.769  17.576
 2114TIP3    H230538   2.701   3.796  17.725
 2115TIP3   OH230539   3.144   3.858  17.785
 2115TIP3    H130540   3.181   3.880  17.699
 2115TIP3    H230541   3.129   3.763  17.781
 2116TIP3   OH230542   1.991   5.443  17.243
 2116TIP3    H130543   1.997   5.522  17.189
 2116TIP3    H230544   1.991   5.476  17.333
 2117TIP3   OH230545   2.722   4.037  17.334
 2117TIP3    H130546   2.773   3.969  17.377
 2117TIP3    H230547   2.738   4.116  17.386
 2118TIP3   OH230548   3.610   5.483  17.476
 2118TIP3    H130549   3.566   5.405  17.442
 2118TIP3    H230550   3.591   5.551  17.411
 2119TIP3   OH230551   2.165   3.892  18.610
 2119TIP3    H130552   2.099   3.824  18.627
 2119TIP3    H230553   2.239   3.867  18.665
 2120TIP3   OH230554   2.363   3.816  18.795
 2120TIP3    H130555   2.451   3.826  18.760
 2120TIP3    H230556   2.359   3.725  18.825
 2121TIP3   OH230557   3.224   3.770  18.793
 2121TIP3    H130558   3.218   3.720  18.875
 2121TIP3    H230559   3.316   3.763  18.767
 2122TIP3   OH230560   3.520   5.381  18.658
 2122TIP3    H130561   3.460   5.372  18.584
 2122TIP3    H230562   3.507   5.472  18.687
 2123TIP3   OH230563   4.070   4.632  18.170
 2123TIP3    H130564   4.080   4.542  18.202
 2123TIP3    H230565   4.132   4.683  18.222
 2124TIP3   OH230566   5.188   4.975  17.881
 2124TIP3    H130567   5.176   4.909  17.950
 2124TIP3    H230568   5.237   5.045  17.924
 2125TIP3   OH230569   4.210   5.110  17.973
 2125TIP3    H130570   4.160   5.038  17.934
 2125TIP3    H230571   4.277   5.066  18.026
 2126TIP3   OH230572   3.853   4.403  17.513
 2126TIP3    H130573   3.801   4.483  17.526
 2126TIP3    H230574   3.802   4.335  17.557
 2127TIP3   OH230575   3.917   4.676  17.780
 2127TIP3    H130576   3.951   4.589  17.804
 2127TIP3    H230577   3.995   4.726  17.755
 2128TIP3   OH230578   4.976   5.488  17.880
 2128TIP3    H130579   5.015   5.424  17.821
 2128TIP3    H230580   5.004   5.573  17.846
 2129TIP3   OH230581   5.539   4.074  18.076
 2129TIP3    H130582   5.552   4.124  18.156
 2129TIP3    H230583   5.611   4.101  18.018
 2130TIP3   OH230584   5.032   4.393  18.036
 2130TIP3    H130585   5.054   4.300  18.044
 2130TIP3    H230586   4.947   4.393  17.991
 2131TIP3   OH230587   4.366   4.170  17.776
 2131TIP3    H130588   4.368   4.253  17.729
 2131TIP3    H230589   4.314   4.112  17.720
 2132TIP3   OH230590   5.119   4.186  17.689
 2132TIP3    H130591   5.064   4.113  17.662
 2132TIP3    H230592   5.136   4.235  17.609
 2133TIP3   OH230593   4.018   4.430  17.859
 2133TIP3    H130594   4.078   4.383  17.916
 2133TIP3    H230595   4.029   4.390  17.773
 2134TIP3   OH230596   4.516   4.568  17.823
 2134TIP3    H130597   4.594   4.516  17.844
 2134TIP3    H230598   4.462   4.510  17.769
 2135TIP3   OH230599   5.561   4.204  18.316
 2135TIP3    H130600   5.509   4.284  18.314
 2135TIP3    H230601   5.619   4.215  18.391
 2136TIP3   OH230602   4.217   4.085  18.210
 2136TIP3    H130603   4.179   4.131  18.135
 2136TIP3    H230604   4.149   4.090  18.278
 2137TIP3   OH230605   4.472   4.857  18.200
 2137TIP3    H130606   4.385   4.888  18.226
 2137TIP3    H230607   4.531   4.929  18.223
 2138TIP3   OH230608   4.194   4.247  17.980
 2138TIP3    H130609   4.257   4.294  18.034
 2138TIP3    H230610   4.246   4.210  17.909
 2139TIP3   OH230611   4.314   5.073  18.286
 2139TIP3    H130612   4.314   5.168  18.279
 2139TIP3    H230613   4.231   5.052  18.329
 2140TIP3   OH230614   3.924   4.999  17.365
 2140TIP3    H130615   3.904   5.041  17.281
 2140TIP3    H230616   3.942   5.072  17.425
 2141TIP3   OH230617   5.263   5.187  18.063
 2141TIP3    H130618   5.170   5.198  18.083
 2141TIP3    H230619   5.293   5.274  18.037
 2142TIP3   OH230620   5.279   3.997  18.183
 2142TIP3    H130621   5.207   4.037  18.133
 2142TIP3    H230622   5.358   4.022  18.135
 2143TIP3   OH230623   4.581   3.800  17.923
 2143TIP3    H130624   4.572   3.706  17.940
 2143TIP3    H230625   4.505   3.839  17.966
 2144TIP3   OH230626   5.112   5.312  17.728
 2144TIP3    H130627   5.141   5.229  17.690
 2144TIP3    H230628   5.184   5.373  17.711
 2145TIP3   OH230629   5.215   5.086  17.608
 2145TIP3    H130630   5.248   5.031  17.536
 2145TIP3    H230631   5.221   5.030  17.686
 2146TIP3   OH230632   5.378   4.998  18.436
 2146TIP3    H130633   5.381   4.933  18.366
 2146TIP3    H230634   5.399   5.081  18.394
 2147TIP3   OH230635   4.860   4.712  17.406
 2147TIP3    H130636   4.788   4.764  17.371
 2147TIP3    H230637   4.938   4.747  17.363
 2148TIP3   OH230638   4.766   4.485  17.080
 2148TIP3    H130639   4.826   4.556  17.102
 2148TIP3    H230640   4.816   4.405  17.098
 2149TIP3   OH230641   5.579   4.650  18.259
 2149TIP3    H130642   5.508   4.715  18.254
 2149TIP3    H230643   5.631   4.666  18.180
 2150TIP3   OH230644   5.176   4.528  18.448
 2150TIP3    H130645   5.167   4.597  18.514
 2150TIP3    H230646   5.116   4.552  18.378
 2151TIP3   OH230647   4.326   4.753  17.706
 2151TIP3    H130648   4.305   4.740  17.614
 2151TIP3    H230649   4.388   4.683  17.727
 2152TIP3   OH230650   4.369   4.640  18.052
 2152TIP3    H130651   4.417   4.626  17.969
 2152TIP3    H230652   4.413   4.716  18.091
 2153TIP3   OH230653   4.993   5.203  18.167
 2153TIP3    H130654   5.014   5.217  18.259
 2153TIP3    H230655   4.964   5.112  18.162
 2154TIP3   OH230656   4.484   5.091  18.508
 2154TIP3    H130657   4.426   5.144  18.563
 2154TIP3    H230658   4.431   5.072  18.430
 2155TIP3   OH230659   4.170   4.709  18.447
 2155TIP3    H130660   4.175   4.774  18.517
 2155TIP3    H230661   4.077   4.685  18.443
 2156TIP3   OH230662   4.291   5.259  18.607
 2156TIP3    H130663   4.281   5.296  18.520
 2156TIP3    H230664   4.201   5.241  18.636
 2157TIP3   OH230665   4.268   4.684  17.443
 2157TIP3    H130666   4.229   4.751  17.387
 2157TIP3    H230667   4.240   4.601  17.406
 2158TIP3   OH230668   5.544   5.259  17.127
 2158TIP3    H130669   5.468   5.262  17.068
 2158TIP3    H230670   5.584   5.174  17.110
 2159TIP3   OH230671   3.864   4.916  18.341
 2159TIP3    H130672   3.815   4.922  18.259
 2159TIP3    H230673   3.878   4.822  18.355
 2160TIP3   OH230674   3.832   5.202  18.022
 2160TIP3    H130675   3.925   5.194  18.044
 2160TIP3    H230676   3.801   5.273  18.079
 2161TIP3   OH230677   5.653   5.269  18.624
 2161TIP3    H130678   5.641   5.175  18.612
 2161TIP3    H230679   5.567   5.301  18.652
 2162TIP3   OH230680   4.728   5.213  18.484
 2162TIP3    H130681   4.732   5.294  18.536
 2162TIP3    H230682   4.643   5.174  18.506
 2163TIP3   OH230683   4.806   5.610  17.387
 2163TIP3    H130684   4.737   5.558  17.346
 2163TIP3    H230685   4.762   5.653  17.461
 2164TIP3   OH230686   4.101   5.439  17.664
 2164TIP3    H130687   4.175   5.425  17.722
 2164TIP3    H230688   4.024   5.418  17.717
 2165TIP3   OH230689   5.072   5.542  17.176
 2165TIP3    H130690   5.070   5.473  17.110
 2165TIP3    H230691   5.072   5.495  17.260
 2166TIP3   OH230692   5.052   5.496  17.451
 2166TIP3    H130693   4.962   5.525  17.435
 2166TIP3    H230694   5.043   5.413  17.498
 2167TIP3   OH230695   5.326   4.372  18.642
 2167TIP3    H130696   5.281   4.422  18.574
 2167TIP3    H230697   5.334   4.284  18.605
 2168TIP3   OH230698   4.082   5.059  18.425
 2168TIP3    H130699   4.100   5.025  18.513
 2168TIP3    H230700   4.005   5.011  18.396
 2169TIP3   OH230701   4.350   3.905  18.041
 2169TIP3    H130702   4.276   3.887  17.983
 2169TIP3    H230703   4.319   3.973  18.100
 2170TIP3   OH230704   4.826   3.879  18.365
 2170TIP3    H130705   4.874   3.828  18.431
 2170TIP3    H230706   4.734   3.854  18.378
 2171TIP3   OH230707   5.100   4.249  18.465
 2171TIP3    H130708   5.040   4.236  18.538
 2171TIP3    H230709   5.109   4.344  18.457
 2172TIP3   OH230710   4.360   4.387  18.154
 2172TIP3    H130711   4.288   4.386  18.216
 2172TIP3    H230712   4.362   4.476  18.120
 2173TIP3   OH230713   4.353   4.421  17.656
 2173TIP3    H130714   4.260   4.403  17.645
 2173TIP3    H230715   4.389   4.419  17.568
 2174TIP3   OH230716   4.918   4.455  17.505
 2174TIP3    H130717   4.891   4.541  17.474
 2174TIP3    H230718   4.998   4.436  17.455
 2175TIP3   OH230719   4.802   4.463  18.661
 2175TIP3    H130720   4.752   4.387  18.691
 2175TIP3    H230721   4.885   4.459  18.709
 2176TIP3   OH230722   4.127   4.391  18.308
 2176TIP3    H130723   4.169   4.420  18.389
 2176TIP3    H230724   4.089   4.306  18.331
 2177TIP3   OH230725   3.806   4.164  17.742
 2177TIP3    H130726   3.839   4.096  17.801
 2177TIP3    H230727   3.801   4.121  17.657
 2178TIP3   OH230728   3.970   4.230  17.294
 2178TIP3    H130729   4.027   4.275  17.231
 2178TIP3    H230730   3.919   4.300  17.335
 2179TIP3   OH230731   4.989   4.568  18.242
 2179TIP3    H130732   5.006   4.506  18.171
 2179TIP3    H230733   4.921   4.526  18.294
 2180TIP3   OH230734   4.668   4.156  17.769
 2180TIP3    H130735   4.574   4.143  17.781
 2180TIP3    H230736   4.709   4.088  17.823
 2181TIP3   OH230737   4.099   4.316  17.618
 2181TIP3    H130738   4.021   4.340  17.567
 2181TIP3    H230739   4.113   4.224  17.597
 2182TIP3   OH230740   4.458   4.386  17.405
 2182TIP3    H130741   4.542   4.349  17.431
 2182TIP3    H230742   4.420   4.320  17.347
 2183TIP3   OH230743   5.033   4.106  18.059
 2183TIP3    H130744   4.978   4.110  18.138
 2183TIP3    H230745   4.982   4.055  17.997
 2184TIP3   OH230746   5.377   5.648  18.722
 2184TIP3    H130747   5.402   5.689  18.640
 2184TIP3    H230748   5.447   5.671  18.783
 2185TIP3   OH230749   4.145   4.895  18.658
 2185TIP3    H130750   4.211   4.895  18.728
 2185TIP3    H230751   4.062   4.886  18.704
 2186TIP3   OH230752   4.767   4.378  17.929
 2186TIP3    H130753   4.756   4.314  17.859
 2186TIP3    H230754   4.717   4.341  18.002
 2187TIP3   OH230755   4.196   4.036  17.600
 2187TIP3    H130756   4.125   3.975  17.622
 2187TIP3    H230757   4.256   3.983  17.547
 2188TIP3   OH230758   4.616   4.281  18.142
 2188TIP3    H130759   4.527   4.318  18.146
 2188TIP3    H230760   4.658   4.312  18.223
 2189TIP3   OH230761   5.377   4.833  18.219
 2189TIP3    H130762   5.426   4.885  18.155
 2189TIP3    H230763   5.291   4.821  18.178
 2190TIP3   OH230764   5.011   4.123  17.195
 2190TIP3    H130765   4.967   4.075  17.125
 2190TIP3    H230766   5.059   4.193  17.150
 2191TIP3   OH230767   4.799   4.932  18.462
 2191TIP3    H130768   4.804   4.884  18.545
 2191TIP3    H230769   4.769   5.020  18.487
 2192TIP3   OH230770   5.149   4.411  17.367
 2192TIP3    H130771   5.204   4.350  17.317
 2192TIP3    H230772   5.188   4.497  17.352
 2193TIP3   OH230773   4.171   4.835  17.915
 2193TIP3    H130774   4.222   4.818  17.836
 2193TIP3    H230775   4.179   4.756  17.967
 2194TIP3   OH230776   3.896   4.657  18.451
 2194TIP3    H130777   3.884   4.612  18.535
 2194TIP3    H230778   3.825   4.625  18.396
 2195TIP3   OH230779   4.582   4.633  18.653
 2195TIP3    H130780   4.524   4.594  18.587
 2195TIP3    H230781   4.663   4.583  18.645
 2196TIP3   OH230782   5.007   5.213  18.449
 2196TIP3    H130783   4.912   5.207  18.451
 2196TIP3    H230784   5.032   5.225  18.541
 2197TIP3   OH230785   5.603   4.385  17.265
 2197TIP3    H130786   5.524   4.341  17.295
 2197TIP3    H230787   5.591   4.477  17.290
 2198TIP3   OH230788   5.618   4.989  18.573
 2198TIP3    H130789   5.525   4.993  18.549
 2198TIP3    H230790   5.662   4.972  18.490
 2199TIP3   OH230791   5.382   5.325  17.340
 2199TIP3    H130792   5.325   5.255  17.370
 2199TIP3    H230793   5.435   5.285  17.271
 2200TIP3   OH230794   5.136   4.751  18.095
 2200TIP3    H130795   5.080   4.704  18.156
 2200TIP3    H230796   5.168   4.684  18.035
 2201TIP3   OH230797   4.605   5.346  18.264
 2201TIP3    H130798   4.639   5.435  18.273
 2201TIP3    H230799   4.651   5.295  18.331
 2202TIP3   OH230800   4.396   5.479  17.666
 2202TIP3    H130801   4.364   5.452  17.580
 2202TIP3    H230802   4.437   5.563  17.651
 2203TIP3   OH230803   4.907   4.946  18.208
 2203TIP3    H130804   4.867   4.935  18.294
 2203TIP3    H230805   4.969   4.873  18.201
 2204TIP3   OH230806   5.235   5.393  18.437
 2204TIP3    H130807   5.148   5.355  18.422
 2204TIP3    H230808   5.237   5.470  18.380
 2205TIP3   OH230809   4.044   4.139  18.426
 2205TIP3    H130810   3.973   4.181  18.474
 2205TIP3    H230811   4.050   4.051  18.465
 2206TIP3   OH230812   4.008   5.313  18.255
 2206TIP3    H130813   4.034   5.230  18.295
 2206TIP3    H230814   4.017   5.378  18.325
 2207TIP3   OH230815   4.168   4.873  17.272
 2207TIP3    H130816   4.087   4.914  17.304
 2207TIP3    H230817   4.216   4.944  17.229
 2208TIP3   OH230818   4.903   4.136  18.307
 2208TIP3    H130819   4.984   4.146  18.356
 2208TIP3    H230820   4.873   4.047  18.327
 2209TIP3   OH230821   4.967   4.090  17.467
 2209TIP3    H130822   4.992   4.056  17.382
 2209TIP3    H230823   4.949   4.182  17.452
 2210TIP3   OH230824   4.698   4.290  17.519
 2210TIP3    H130825   4.774   4.348  17.519
 2210TIP3    H230826   4.696   4.252  17.607
 2211TIP3   OH230827   4.822   4.400  18.381
 2211TIP3    H130828   4.811   4.406  18.476
 2211TIP3    H230829   4.844   4.309  18.365
 2212TIP3   OH230830   4.745   3.948  17.557
 2212TIP3    H130831   4.723   4.010  17.626
 2212TIP3    H230832   4.830   3.977  17.526
 2213TIP3   OH230833   4.391   5.443  17.380
 2213TIP3    H130834   4.434   5.495  17.313
 2213TIP3    H230835   4.441   5.362  17.383
 2214TIP3   OH230836   4.368   4.176  17.246
 2214TIP3    H130837   4.303   4.106  17.252
 2214TIP3    H230838   4.451   4.133  17.267
 2215TIP3   OH230839   5.348   4.135  18.497
 2215TIP3    H130840   5.256   4.149  18.472
 2215TIP3    H230841   5.394   4.123  18.414
 2216TIP3   OH230842   5.358   5.449  18.047
 2216TIP3    H130843   5.348   5.522  17.986
 2216TIP3    H230844   5.452   5.445  18.065
 2217TIP3   OH230845   4.098   3.858  17.940
 2217TIP3    H130846   4.079   3.853  17.846
 2217TIP3    H230847   4.068   3.774  17.975
 2218TIP3   OH230848   3.961   5.240  17.498
 2218TIP3    H130849   3.890   5.288  17.539
 2218TIP3    H230850   4.041   5.286  17.525
 2219TIP3   OH230851   3.909   5.539  18.697
 2219TIP3    H130852   3.970   5.518  18.769
 2219TIP3    H230853   3.873   5.454  18.671
 2220TIP3   OH230854   4.356   5.417  18.828
 2220TIP3    H130855   4.440   5.386  18.860
 2220TIP3    H230856   4.338   5.363  18.751
 2221TIP3   OH230857   4.730   5.405  17.102
 2221TIP3    H130858   4.719   5.338  17.169
 2221TIP3    H230859   4.767   5.359  17.027
 2222TIP3   OH230860   5.025   5.253  18.722
 2222TIP3    H130861   4.997   5.173  18.765
 2222TIP3    H230862   5.098   5.285  18.775
 2223TIP3   OH230863   3.893   4.899  18.788
 2223TIP3    H130864   3.853   4.817  18.814
 2223TIP3    H230865   3.837   4.934  18.719
 2224TIP3   OH230866   4.560   4.910  18.705
 2224TIP3    H130867   4.536   4.951  18.622
 2224TIP3    H230868   4.572   4.817  18.684
 2225TIP3   OH230869   5.123   4.906  18.490
 2225TIP3    H130870   5.208   4.948  18.478
 2225TIP3    H230871   5.059   4.976  18.479
 2226TIP3   OH230872   4.003   4.584  18.740
 2226TIP3    H130873   4.077   4.523  18.735
 2226TIP3    H230874   4.012   4.625  18.826
 2227TIP3   OH230875   4.452   4.648  17.201
 2227TIP3    H130876   4.402   4.696  17.267
 2227TIP3    H230877   4.498   4.579  17.249
 2228TIP3   OH230878   4.363   4.511  18.447
 2228TIP3    H130879   4.301   4.583  18.451
 2228TIP3    H230880   4.437   4.545  18.397
 2229TIP3   OH230881   4.924   4.776  18.774
 2229TIP3    H130882   5.007   4.740  18.745
 2229TIP3    H230883   4.888   4.710  18.833
 2230TIP3   OH230884   4.434   4.261  18.545
 2230TIP3    H130885   4.446   4.196  18.476
 2230TIP3    H230886   4.413   4.342  18.499
 2231TIP3   OH230887   4.468   4.097  18.317
 2231TIP3    H130888   4.524   4.125  18.244
 2231TIP3    H230889   4.380   4.092  18.280
 2232TIP3   OH230890   4.576   4.638  18.338
 2232TIP3    H130891   4.672   4.642  18.337
 2232TIP3    H230892   4.548   4.713  18.286
 2233TIP3   OH230893   5.047   4.404  18.811
 2233TIP3    H130894   5.025   4.315  18.781
 2233TIP3    H230895   5.141   4.413  18.794
 2234TIP3   OH230896   5.196   4.717  18.670
 2234TIP3    H130897   5.164   4.789  18.614
 2234TIP3    H230898   5.290   4.714  18.653
 2235TIP3   OH230899   4.263   4.330  18.763
 2235TIP3    H130900   4.187   4.271  18.755
 2235TIP3    H230901   4.315   4.312  18.685
 2236TIP3   OH230902   4.549   3.835  18.375
 2236TIP3    H130903   4.519   3.923  18.352
 2236TIP3    H230904   4.488   3.777  18.329
 2237TIP3   OH230905   4.648   4.245  18.723
 2237TIP3    H130906   4.607   4.215  18.804
 2237TIP3    H230907   4.578   4.243  18.659
 2238TIP3   OH230908   4.928   4.191  18.669
 2238TIP3    H130909   4.835   4.180  18.689
 2238TIP3    H230910   4.971   4.119  18.713
 2239TIP3   OH230911   5.100   4.044  18.825
 2239TIP3    H130912   5.093   3.949  18.816
 2239TIP3    H230913   5.075   4.061  18.916
 2240TIP3   OH230914   4.058   4.138  18.756
 2240TIP3    H130915   4.058   4.056  18.705
 2240TIP3    H230916   4.065   4.109  18.847
 2241TIP3   OH230917   4.515   3.785  18.645
 2241TIP3    H130918   4.572   3.708  18.648
 2241TIP3    H230919   4.518   3.813  18.553
 2242TIP3   OH230920   4.590   3.932  18.864
 2242TIP3    H130921   4.569   3.884  18.784
 2242TIP3    H230922   4.527   4.005  18.865
 2243TIP3   OH230923   4.548   5.594  17.195
 2243TIP3    H130924   4.601   5.532  17.145
 2243TIP3    H230925   4.521   5.660  17.131
 2244TIP3   OH230926   3.798   5.601  17.631
 2244TIP3    H130927   3.732   5.569  17.570
 2244TIP3    H230928   3.814   5.528  17.690
 2245TIP3   OH230929   3.870   5.400  17.811
 2245TIP3    H130930   3.826   5.321  17.842
 2245TIP3    H230931   3.904   5.441  17.891
 2246TIP3   OH230932   5.624   5.479  18.108
 2246TIP3    H130933   5.630   5.511  18.198
 2246TIP3    H230934   5.699   5.520  18.063
 2247TIP3   OH230935   5.571   5.449  18.395
 2247TIP3    H130936   5.531   5.376  18.348
 2247TIP3    H230937   5.618   5.409  18.467
 2248TIP3   OH230938   5.429   5.031  18.872
 2248TIP3    H130939   5.342   5.040  18.911
 2248TIP3    H230940   5.480   5.103  18.909
 2249TIP3   OH230941   5.552   4.959  18.056
 2249TIP3    H130942   5.618   4.893  18.034
 2249TIP3    H230943   5.592   5.042  18.030
 2250TIP3   OH230944   5.416   5.233  18.300
 2250TIP3    H130945   5.348   5.285  18.342
 2250TIP3    H230946   5.381   5.213  18.213
 2251TIP3   OH230947   5.392   4.400  17.076
 2251TIP3    H130948   5.481   4.418  17.106
 2251TIP3    H230949   5.397   4.312  17.037
 2252TIP3   OH230950   3.853   4.740  18.042
 2252TIP3    H130951   3.864   4.724  17.948
 2252TIP3    H230952   3.936   4.711  18.081
 2253TIP3   OH230953   5.468   4.713  18.614
 2253TIP3    H130954   5.513   4.629  18.621
 2253TIP3    H230955   5.528   4.769  18.564
 2254TIP3   OH230956   5.581   4.471  18.661
 2254TIP3    H130957   5.495   4.429  18.652
 2254TIP3    H230958   5.644   4.401  18.645
 2255TIP3   OH230959   5.422   4.436  18.331
 2255TIP3    H130960   5.339   4.475  18.360
 2255TIP3    H230961   5.475   4.510  18.304
 2256TIP3   OH230962   3.853   4.242  18.604
 2256TIP3    H130963   3.923   4.229  18.667
 2256TIP3    H230964   3.791   4.171  18.621
 2257TIP3   OH230965   5.631   3.824  18.822
 2257TIP3    H130966   5.687   3.761  18.776
 2257TIP3    H230967   5.626   3.899  18.762
 2258TIP3   OH230968   3.954   4.085  18.000
 2258TIP3    H130969   4.000   4.003  17.987
 2258TIP3    H230970   4.018   4.153  17.978
 2259TIP3   OH230971   3.793   4.410  18.042
 2259TIP3    H130972   3.845   4.384  17.966
 2259TIP3    H230973   3.851   4.466  18.093
 2260TIP3   OH230974   5.567   4.034  18.659
 2260TIP3    H130975   5.491   4.071  18.704
 2260TIP3    H230976   5.532   3.996  18.579
 2261TIP3   OH230977   3.820   4.077  17.481
 2261TIP3    H130978   3.772   4.003  17.444
 2261TIP3    H230979   3.879   4.105  17.411
 2262TIP3   OH230980   5.302   5.498  17.655
 2262TIP3    H130981   5.336   5.472  17.569
 2262TIP3    H230982   5.377   5.538  17.699
 2263TIP3   OH230983   3.822   3.871  18.291
 2263TIP3    H130984   3.752   3.874  18.356
 2263TIP3    H230985   3.790   3.927  18.220
 2264TIP3   OH230986   4.035   5.218  18.703
 2264TIP3    H130987   3.947   5.236  18.668
 2264TIP3    H230988   4.019   5.180  18.789
 2265TIP3   OH230989   4.335   5.345  18.339
 2265TIP3    H130990   4.307   5.430  18.304
 2265TIP3    H230991   4.430   5.342  18.323
 2266TIP3   OH230992   4.748   5.463  18.600
 2266TIP3    H130993   4.752   5.440  18.693
 2266TIP3    H230994   4.830   5.508  18.583
 2267TIP3   OH230995   4.986   5.597  18.565
 2267TIP3    H130996   5.061   5.543  18.541
 2267TIP3    H230997   5.010   5.635  18.650
 2268TIP3   OH230998   5.477   3.821  18.459
 2268TIP3    H130999   5.399   3.826  18.403
 2268TIP3    H231000   5.514   3.735  18.440
 2269TIP3   OH231001   4.069   5.645  18.346
 2269TIP3    H131002   3.986   5.676  18.309
 2269TIP3    H231003   4.073   5.685  18.433
 2270TIP3   OH231004   4.316   5.600  18.237
 2270TIP3    H131005   4.228   5.619  18.269
 2270TIP3    H231006   4.322   5.647  18.154
 2271TIP3   OH231007   4.751   5.566  18.115
 2271TIP3    H131008   4.694   5.611  18.053
 2271TIP3    H231009   4.770   5.631  18.182
 2272TIP3   OH231010   5.003   5.498  18.269
 2272TIP3    H131011   4.944   5.560  18.312
 2272TIP3    H231012   5.087   5.544  18.263
 2273TIP3   OH231013   5.251   5.603  18.254
 2273TIP3    H131014   5.258   5.696  18.233
 2273TIP3    H231015   5.295   5.559  18.181
 2274TIP3   OH231016   4.008   5.492  18.038
 2274TIP3    H131017   4.004   5.440  18.118
 2274TIP3    H231018   4.087   5.461  17.993
 2275TIP3   OH231019   4.222   5.381  17.920
 2275TIP3    H131020   4.221   5.286  17.931
 2275TIP3    H231021   4.314   5.405  17.926
 2276TIP3   OH231022   4.494   5.419  18.002
 2276TIP3    H131023   4.526   5.349  17.945
 2276TIP3    H231024   4.519   5.392  18.090
 2277TIP3   OH231025   4.821   3.938  17.889
 2277TIP3    H131026   4.741   3.890  17.909
 2277TIP3    H231027   4.878   3.873  17.848
 2278TIP3   OH231028   4.026   3.829  17.677
 2278TIP3    H131029   3.933   3.809  17.663
 2278TIP3    H231030   4.071   3.747  17.656
 2279TIP3   OH231031   4.501   3.815  17.646
 2279TIP3    H131032   4.580   3.833  17.594
 2279TIP3    H231033   4.532   3.808  17.736
 2280TIP3   OH231034   4.599   4.088  17.352
 2280TIP3    H131035   4.635   4.004  17.381
 2280TIP3    H231036   4.652   4.154  17.397
 2281TIP3   OH231037   4.048   3.888  18.612
 2281TIP3    H131038   3.987   3.818  18.632
 2281TIP3    H231039   4.126   3.868  18.664
 2282TIP3   OH231040   4.251   3.823  18.790
 2282TIP3    H131041   4.337   3.805  18.753
 2282TIP3    H231042   4.224   3.740  18.829
 2283TIP3   OH231043   5.109   3.771  18.799
 2283TIP3    H131044   5.098   3.716  18.877
 2283TIP3    H231045   5.200   3.759  18.774
 2284TIP3   OH231046   5.403   5.378  18.663
 2284TIP3    H131047   5.346   5.373  18.586
 2284TIP3    H231048   5.395   5.468  18.693
 2285TIP3   OH231049   6.871   4.731  17.632
 2285TIP3    H131050   6.916   4.764  17.710
 2285TIP3    H231051   6.827   4.808  17.596
 2286TIP3   OH231052   6.730   4.665  18.015
 2286TIP3    H131053   6.761   4.627  18.097
 2286TIP3    H231054   6.686   4.593  17.970
 2287TIP3   OH231055   5.948   4.647  18.180
 2287TIP3    H131056   5.965   4.554  18.196
 2287TIP3    H231057   6.009   4.692  18.239
 2288TIP3   OH231058   7.118   4.964  17.876
 2288TIP3    H131059   7.084   4.900  17.939
 2288TIP3    H231060   7.141   5.040  17.929
 2289TIP3   OH231061   6.094   5.102  17.973
 2289TIP3    H131062   6.063   5.013  17.958
 2289TIP3    H231063   6.185   5.092  18.002
 2290TIP3   OH231064   5.774   4.650  17.796
 2290TIP3    H131065   5.821   4.569  17.818
 2290TIP3    H231066   5.828   4.692  17.729
 2291TIP3   OH231067   6.583   4.913  18.046
 2291TIP3    H131068   6.617   4.832  18.008
 2291TIP3    H231069   6.652   4.943  18.105
 2292TIP3   OH231070   7.425   4.088  18.109
 2292TIP3    H131071   7.444   4.133  18.192
 2292TIP3    H231072   7.471   4.140  18.043
 2293TIP3   OH231073   6.921   4.351  18.071
 2293TIP3    H131074   6.941   4.257  18.075
 2293TIP3    H231075   6.896   4.365  17.979
 2294TIP3   OH231076   6.238   4.153  17.775
 2294TIP3    H131077   6.238   4.235  17.726
 2294TIP3    H231078   6.195   4.090  17.718
 2295TIP3   OH231079   7.009   4.227  17.640
 2295TIP3    H131080   7.038   4.177  17.716
 2295TIP3    H231081   7.090   4.251  17.595
 2296TIP3   OH231082   5.899   4.413  17.861
 2296TIP3    H131083   5.967   4.372  17.915
 2296TIP3    H231084   5.908   4.373  17.775
 2297TIP3   OH231085   6.367   4.546  17.821
 2297TIP3    H131086   6.448   4.502  17.849
 2297TIP3    H231087   6.324   4.482  17.764
 2298TIP3   OH231088   7.452   4.205  18.357
 2298TIP3    H131089   7.397   4.282  18.346
 2298TIP3    H231090   7.525   4.235  18.411
 2299TIP3   OH231091   6.115   4.085  18.217
 2299TIP3    H131092   6.077   4.127  18.140
 2299TIP3    H231093   6.044   4.086  18.282
 2300TIP3   OH231094   6.793   4.982  17.558
 2300TIP3    H131095   6.787   4.993  17.463
 2300TIP3    H231096   6.724   5.038  17.594
 2301TIP3   OH231097   6.351   4.839  18.176
 2301TIP3    H131098   6.300   4.914  18.206
 2301TIP3    H231099   6.426   4.879  18.130
 2302TIP3   OH231100   7.127   4.127  17.860
 2302TIP3    H131101   7.076   4.080  17.926
 2302TIP3    H231102   7.218   4.107  17.882
 2303TIP3   OH231103   6.081   4.237  17.984
 2303TIP3    H131104   6.146   4.284  18.036
 2303TIP3    H231105   6.131   4.196  17.914
 2304TIP3   OH231106   6.211   5.053  18.278
 2304TIP3    H131107   6.212   5.149  18.268
 2304TIP3    H231108   6.127   5.034  18.319
 2305TIP3   OH231109   7.161   5.178  18.063
 2305TIP3    H131110   7.066   5.182  18.079
 2305TIP3    H231111   7.185   5.267  18.039
 2306TIP3   OH231112   7.176   3.982  18.206
 2306TIP3    H131113   7.100   4.019  18.162
 2306TIP3    H231114   7.251   4.023  18.163
 2307TIP3   OH231115   6.485   3.782  17.962
 2307TIP3    H131116   6.452   3.693  17.949
 2307TIP3    H231117   6.408   3.833  17.987
 2308TIP3   OH231118   7.262   4.985  18.430
 2308TIP3    H131119   7.257   4.934  18.349
 2308TIP3    H231120   7.271   5.075  18.400
 2309TIP3   OH231121   7.406   4.637  18.241
 2309TIP3    H131122   7.344   4.709  18.229
 2309TIP3    H231123   7.464   4.641  18.165
 2310TIP3   OH231124   7.065   4.619  17.477
 2310TIP3    H131125   7.003   4.674  17.524
 2310TIP3    H231126   7.139   4.610  17.536
 2311TIP3   OH231127   7.039   4.527  18.425
 2311TIP3    H131128   7.037   4.611  18.470
 2311TIP3    H231129   6.975   4.536  18.355
 2312TIP3   OH231130   6.218   4.754  17.711
 2312TIP3    H131131   6.176   4.719  17.632
 2312TIP3    H231132   6.274   4.683  17.743
 2313TIP3   OH231133   6.388   5.109  17.955
 2313TIP3    H131134   6.370   5.094  17.863
 2313TIP3    H231135   6.454   5.043  17.978
 2314TIP3   OH231136   6.235   4.625  18.050
 2314TIP3    H131137   6.284   4.609  17.969
 2314TIP3    H231138   6.277   4.702  18.088
 2315TIP3   OH231139   6.895   5.191  18.128
 2315TIP3    H131140   6.880   5.259  18.193
 2315TIP3    H231141   6.857   5.112  18.166
 2316TIP3   OH231142   6.366   5.084  18.508
 2316TIP3    H131143   6.302   5.141  18.549
 2316TIP3    H231144   6.326   5.059  18.424
 2317TIP3   OH231145   6.047   4.705  18.451
 2317TIP3    H131146   6.058   4.774  18.516
 2317TIP3    H231147   5.953   4.686  18.452
 2318TIP3   OH231148   6.176   5.262  18.589
 2318TIP3    H131149   6.165   5.295  18.499
 2318TIP3    H231150   6.087   5.242  18.617
 2319TIP3   OH231151   7.286   3.841  17.246
 2319TIP3    H131152   7.230   3.766  17.226
 2319TIP3    H231153   7.313   3.873  17.160
 2320TIP3   OH231154   6.116   4.659  17.466
 2320TIP3    H131155   6.193   4.656  17.409
 2320TIP3    H231156   6.070   4.578  17.448
 2321TIP3   OH231157   7.410   5.239  17.221
 2321TIP3    H131158   7.352   5.275  17.288
 2321TIP3    H231159   7.499   5.258  17.253
 2322TIP3   OH231160   5.747   4.911  18.342
 2322TIP3    H131161   5.726   4.902  18.249
 2322TIP3    H231162   5.762   4.821  18.371
 2323TIP3   OH231163   5.711   5.194  18.013
 2323TIP3    H131164   5.803   5.169  18.017
 2323TIP3    H231165   5.701   5.258  18.084
 2324TIP3   OH231166   7.536   5.266  18.615
 2324TIP3    H131167   7.537   5.171  18.601
 2324TIP3    H231168   7.447   5.285  18.645
 2325TIP3   OH231169   6.611   5.211  18.499
 2325TIP3    H131170   6.610   5.294  18.547
 2325TIP3    H231171   6.523   5.176  18.511
 2326TIP3   OH231172   6.034   5.468  17.666
 2326TIP3    H131173   6.063   5.433  17.750
 2326TIP3    H231174   5.979   5.398  17.629
 2327TIP3   OH231175   7.202   4.407  18.645
 2327TIP3    H131176   7.147   4.441  18.575
 2327TIP3    H231177   7.218   4.315  18.622
 2328TIP3   OH231178   5.977   5.046  18.418
 2328TIP3    H131179   5.992   5.019  18.509
 2328TIP3    H231180   5.894   5.004  18.394
 2329TIP3   OH231181   6.247   3.908  18.042
 2329TIP3    H131182   6.173   3.896  17.982
 2329TIP3    H231183   6.215   3.972  18.106
 2330TIP3   OH231184   6.716   3.861  18.372
 2330TIP3    H131185   6.758   3.811  18.442
 2330TIP3    H231186   6.622   3.845  18.384
 2331TIP3   OH231187   6.994   4.245  18.467
 2331TIP3    H131188   6.929   4.231  18.536
 2331TIP3    H231189   6.987   4.338  18.446
 2332TIP3   OH231190   7.139   4.680  17.091
 2332TIP3    H131191   7.058   4.717  17.056
 2332TIP3    H231192   7.153   4.727  17.174
 2333TIP3   OH231193   6.699   4.164  17.121
 2333TIP3    H131194   6.628   4.118  17.167
 2333TIP3    H231195   6.666   4.175  17.032
 2334TIP3   OH231196   6.242   4.379  18.159
 2334TIP3    H131197   6.166   4.378  18.217
 2334TIP3    H231198   6.243   4.466  18.121
 2335TIP3   OH231199   6.210   4.395  17.647
 2335TIP3    H131200   6.117   4.377  17.632
 2335TIP3    H231201   6.249   4.389  17.560
 2336TIP3   OH231202   6.787   4.478  17.469
 2336TIP3    H131203   6.811   4.557  17.518
 2336TIP3    H231204   6.868   4.429  17.459
 2337TIP3   OH231205   6.685   4.455  18.654
 2337TIP3    H131206   6.635   4.380  18.687
 2337TIP3    H231207   6.772   4.445  18.693
 2338TIP3   OH231208   6.884   4.408  17.802
 2338TIP3    H131209   6.831   4.465  17.747
 2338TIP3    H231210   6.913   4.338  17.744
 2339TIP3   OH231211   6.004   4.391  18.302
 2339TIP3    H131212   6.044   4.423  18.383
 2339TIP3    H231213   5.968   4.306  18.325
 2340TIP3   OH231214   6.236   4.234  17.066
 2340TIP3    H131215   6.303   4.170  17.089
 2340TIP3    H231216   6.199   4.202  16.983
 2341TIP3   OH231217   5.645   4.145  17.753
 2341TIP3    H131218   5.722   4.133  17.808
 2341TIP3    H231219   5.672   4.115  17.666
 2342TIP3   OH231220   5.820   4.220  17.316
 2342TIP3    H131221   5.873   4.195  17.240
 2342TIP3    H231222   5.754   4.279  17.281
 2343TIP3   OH231223   6.829   4.536  18.242
 2343TIP3    H131224   6.867   4.473  18.180
 2343TIP3    H231225   6.762   4.486  18.288
 2344TIP3   OH231226   6.525   4.187  17.782
 2344TIP3    H131227   6.434   4.159  17.788
 2344TIP3    H231228   6.574   4.118  17.828
 2345TIP3   OH231229   5.947   4.296  17.612
 2345TIP3    H131230   5.886   4.300  17.538
 2345TIP3    H231231   5.983   4.208  17.609
 2346TIP3   OH231232   6.321   4.358  17.402
 2346TIP3    H131233   6.408   4.330  17.429
 2346TIP3    H231234   6.305   4.312  17.320
 2347TIP3   OH231235   6.931   4.068  18.071
 2347TIP3    H131236   6.873   4.081  18.147
 2347TIP3    H231237   6.873   4.032  18.004
 2348TIP3   OH231238   6.153   4.480  17.153
 2348TIP3    H131239   6.061   4.462  17.130
 2348TIP3    H231240   6.201   4.403  17.122
 2349TIP3   OH231241   7.268   5.607  18.733
 2349TIP3    H131242   7.289   5.649  18.649
 2349TIP3    H231243   7.342   5.630  18.790
 2350TIP3   OH231244   6.029   4.890  18.660
 2350TIP3    H131245   6.093   4.904  18.730
 2350TIP3    H231246   5.945   4.889  18.705
 2351TIP3   OH231247   6.597   4.422  17.937
 2351TIP3    H131248   6.620   4.355  17.872
 2351TIP3    H231249   6.566   4.372  18.012
 2352TIP3   OH231250   6.058   4.045  17.585
 2352TIP3    H131251   6.015   3.965  17.617
 2352TIP3    H231252   6.083   4.024  17.495
 2353TIP3   OH231253   6.499   4.284  18.160
 2353TIP3    H131254   6.410   4.320  18.165
 2353TIP3    H231255   6.544   4.321  18.236
 2354TIP3   OH231256   6.495   4.878  17.353
 2354TIP3    H131257   6.438   4.805  17.327
 2354TIP3    H231258   6.470   4.897  17.443
 2355TIP3   OH231259   7.250   4.853  18.192
 2355TIP3    H131260   7.308   4.898  18.131
 2355TIP3    H231261   7.172   4.831  18.139
 2356TIP3   OH231262   6.960   4.147  17.212
 2356TIP3    H131263   6.872   4.156  17.175
 2356TIP3    H231264   6.982   4.235  17.242
 2357TIP3   OH231265   6.675   4.934  18.475
 2357TIP3    H131266   6.660   4.891  18.559
 2357TIP3    H231267   6.650   5.025  18.490
 2358TIP3   OH231268   7.033   4.376  17.366
 2358TIP3    H131269   7.108   4.328  17.402
 2358TIP3    H231270   7.051   4.468  17.387
 2359TIP3   OH231271   6.062   4.832  17.930
 2359TIP3    H131272   6.112   4.809  17.852
 2359TIP3    H231273   6.069   4.755  17.987
 2360TIP3   OH231274   6.723   5.024  17.300
 2360TIP3    H131275   6.700   5.117  17.294
 2360TIP3    H231276   6.640   4.978  17.302
 2361TIP3   OH231277   5.772   4.663  18.469
 2361TIP3    H131278   5.770   4.610  18.549
 2361TIP3    H231279   5.707   4.622  18.411
 2362TIP3   OH231280   6.456   4.617  18.647
 2362TIP3    H131281   6.399   4.586  18.577
 2362TIP3    H231282   6.538   4.571  18.633
 2363TIP3   OH231283   6.899   5.163  18.475
 2363TIP3    H131284   6.806   5.177  18.455
 2363TIP3    H231285   6.909   5.196  18.564
 2364TIP3   OH231286   7.498   4.991  18.568
 2364TIP3    H131287   7.407   5.004  18.543
 2364TIP3    H231288   7.541   4.962  18.487
 2365TIP3   OH231289   7.031   4.756  18.041
 2365TIP3    H131290   6.937   4.744  18.031
 2365TIP3    H231291   7.070   4.681  17.997
 2366TIP3   OH231292   6.284   5.181  17.670
 2366TIP3    H131293   6.303   5.266  17.632
 2366TIP3    H231294   6.188   5.174  17.666
 2367TIP3   OH231295   6.401   4.939  17.606
 2367TIP3    H131296   6.363   5.025  17.622
 2367TIP3    H231297   6.341   4.878  17.648
 2368TIP3   OH231298   6.492   5.360  18.279
 2368TIP3    H131299   6.549   5.432  18.253
 2368TIP3    H231300   6.544   5.309  18.341
 2369TIP3   OH231301   6.292   5.448  17.575
 2369TIP3    H131302   6.198   5.462  17.592
 2369TIP3    H231303   6.334   5.529  17.601
 2370TIP3   OH231304   6.794   4.946  18.228
 2370TIP3    H131305   6.753   4.939  18.315
 2370TIP3    H231306   6.864   4.881  18.230
 2371TIP3   OH231307   7.104   5.381  18.444
 2371TIP3    H131308   7.021   5.336  18.424
 2371TIP3    H231309   7.103   5.458  18.387
 2372TIP3   OH231310   5.917   4.141  18.412
 2372TIP3    H131311   5.850   4.181  18.467
 2372TIP3    H231312   5.909   4.047  18.430
 2373TIP3   OH231313   7.179   4.860  17.291
 2373TIP3    H131314   7.127   4.917  17.348
 2373TIP3    H231315   7.268   4.864  17.328
 2374TIP3   OH231316   5.894   5.320  18.235
 2374TIP3    H131317   5.937   5.241  18.268
 2374TIP3    H231318   5.901   5.383  18.307
 2375TIP3   OH231319   6.433   5.190  16.963
 2375TIP3    H131320   6.392   5.209  16.878
 2375TIP3    H231321   6.415   5.097  16.978
 2376TIP3   OH231322   6.795   4.119  18.315
 2376TIP3    H131323   6.875   4.130  18.366
 2376TIP3    H231324   6.765   4.030  18.335
 2377TIP3   OH231325   6.890   4.051  17.459
 2377TIP3    H131326   6.917   4.073  17.370
 2377TIP3    H231327   6.931   4.117  17.514
 2378TIP3   OH231328   6.639   5.290  17.328
 2378TIP3    H131329   6.545   5.306  17.329
 2378TIP3    H231330   6.668   5.321  17.241
 2379TIP3   OH231331   6.559   4.284  17.523
 2379TIP3    H131332   6.637   4.338  17.514
 2379TIP3    H231333   6.559   4.256  17.615
 2380TIP3   OH231334   6.665   4.362  18.376
 2380TIP3    H131335   6.670   4.376  18.470
 2380TIP3    H231336   6.703   4.275  18.362
 2381TIP3   OH231337   6.711   3.946  17.630
 2381TIP3    H131338   6.627   3.965  17.589
 2381TIP3    H231339   6.776   3.976  17.566
 2382TIP3   OH231340   6.375   5.368  17.324
 2382TIP3    H131341   6.383   5.450  17.275
 2382TIP3    H231342   6.340   5.394  17.409
 2383TIP3   OH231343   7.242   4.152  18.536
 2383TIP3    H131344   7.155   4.161  18.497
 2383TIP3    H231345   7.301   4.147  18.461
 2384TIP3   OH231346   7.111   4.530  17.903
 2384TIP3    H131347   7.031   4.485  17.878
 2384TIP3    H231348   7.159   4.467  17.956
 2385TIP3   OH231349   5.905   4.393  17.066
 2385TIP3    H131350   5.848   4.466  17.044
 2385TIP3    H231351   5.883   4.325  17.002
 2386TIP3   OH231352   7.237   5.447  18.063
 2386TIP3    H131353   7.222   5.508  17.991
 2386TIP3    H231354   7.332   5.444  18.072
 2387TIP3   OH231355   5.984   3.873  17.949
 2387TIP3    H131356   5.975   3.851  17.856
 2387TIP3    H231357   5.959   3.794  17.996
 2388TIP3   OH231358   5.868   5.282  17.559
 2388TIP3    H131359   5.794   5.278  17.620
 2388TIP3    H231360   5.834   5.329  17.483
 2389TIP3   OH231361   5.788   5.536  18.702
 2389TIP3    H131362   5.852   5.513  18.769
 2389TIP3    H231363   5.747   5.452  18.680
 2390TIP3   OH231364   6.211   5.348  18.859
 2390TIP3    H131365   6.245   5.436  18.877
 2390TIP3    H231366   6.222   5.338  18.764
 2391TIP3   OH231367   6.674   5.348  17.059
 2391TIP3    H131368   6.608   5.294  17.014
 2391TIP3    H231369   6.756   5.300  17.048
 2392TIP3   OH231370   6.895   5.250  18.737
 2392TIP3    H131371   6.870   5.168  18.780
 2392TIP3    H231372   6.971   5.281  18.786
 2393TIP3   OH231373   5.773   4.893  18.782
 2393TIP3    H131374   5.716   4.826  18.817
 2393TIP3    H231375   5.722   4.933  18.711
 2394TIP3   OH231376   6.442   4.895  18.693
 2394TIP3    H131377   6.417   4.940  18.612
 2394TIP3    H231378   6.448   4.802  18.668
 2395TIP3   OH231379   7.008   4.894  18.497
 2395TIP3    H131380   7.096   4.928  18.478
 2395TIP3    H231381   6.950   4.969  18.484
 2396TIP3   OH231382   5.904   4.575  18.741
 2396TIP3    H131383   5.997   4.557  18.723
 2396TIP3    H231384   5.906   4.628  18.821
 2397TIP3   OH231385   6.335   4.663  17.252
 2397TIP3    H131386   6.271   4.594  17.232
 2397TIP3    H231387   6.404   4.651  17.186
 2398TIP3   OH231388   6.248   4.517  18.443
 2398TIP3    H131389   6.183   4.587  18.444
 2398TIP3    H231390   6.320   4.552  18.390
 2399TIP3   OH231391   6.503   4.562  17.031
 2399TIP3    H131392   6.418   4.553  16.989
 2399TIP3    H231393   6.566   4.563  16.959
 2400TIP3   OH231394   6.794   4.773  18.793
 2400TIP3    H131395   6.873   4.738  18.750
 2400TIP3    H231396   6.758   4.699  18.840
 2401TIP3   OH231397   6.323   4.271  18.545
 2401TIP3    H131398   6.335   4.204  18.478
 2401TIP3    H231399   6.301   4.350  18.496
 2402TIP3   OH231400   6.363   4.096  18.330
 2402TIP3    H131401   6.418   4.133  18.260
 2402TIP3    H231402   6.276   4.090  18.291
 2403TIP3   OH231403   6.461   4.645  18.335
 2403TIP3    H131404   6.555   4.654  18.322
 2403TIP3    H231405   6.423   4.714  18.281
 2404TIP3   OH231406   6.948   4.408  18.827
 2404TIP3    H131407   6.962   4.315  18.812
 2404TIP3    H231408   7.029   4.449  18.797
 2405TIP3   OH231409   7.053   4.708  18.687
 2405TIP3    H131410   7.024   4.776  18.626
 2405TIP3    H231411   7.146   4.698  18.669
 2406TIP3   OH231412   6.157   4.337  18.763
 2406TIP3    H131413   6.078   4.285  18.750
 2406TIP3    H231414   6.208   4.324  18.683
 2407TIP3   OH231415   6.440   3.832  18.372
 2407TIP3    H131416   6.413   3.923  18.355
 2407TIP3    H231417   6.373   3.780  18.328
 2408TIP3   OH231418   6.535   4.236  18.720
 2408TIP3    H131419   6.488   4.206  18.799
 2408TIP3    H231420   6.467   4.242  18.653
 2409TIP3   OH231421   6.812   4.186  18.661
 2409TIP3    H131422   6.720   4.178  18.686
 2409TIP3    H231423   6.858   4.125  18.718
 2410TIP3   OH231424   6.983   4.049  18.833
 2410TIP3    H131425   6.980   3.954  18.822
 2410TIP3    H231426   6.956   4.064  18.924
 2411TIP3   OH231427   5.946   4.153  18.752
 2411TIP3    H131428   5.941   4.072  18.700
 2411TIP3    H231429   5.950   4.122  18.843
 2412TIP3   OH231430   6.417   3.773  18.640
 2412TIP3    H131431   6.471   3.694  18.635
 2412TIP3    H231432   6.410   3.803  18.549
 2413TIP3   OH231433   6.472   3.922  18.861
 2413TIP3    H131434   6.456   3.873  18.780
 2413TIP3    H231435   6.411   3.996  18.857
 2414TIP3   OH231436   6.423   5.622  17.217
 2414TIP3    H131437   6.513   5.606  17.187
 2414TIP3    H231438   6.421   5.716  17.236
 2415TIP3   OH231439   5.650   5.574  17.607
 2415TIP3    H131440   5.672   5.527  17.526
 2415TIP3    H231441   5.672   5.513  17.677
 2416TIP3   OH231442   5.726   5.397  17.804
 2416TIP3    H131443   5.686   5.328  17.856
 2416TIP3    H231444   5.791   5.437  17.861
 2417TIP3   OH231445   7.508   5.469  18.116
 2417TIP3    H131446   7.511   5.535  18.185
 2417TIP3    H231447   7.548   5.513  18.040
 2418TIP3   OH231448   7.443   5.450  18.418
 2418TIP3    H131449   7.408   5.385  18.357
 2418TIP3    H231450   7.495   5.400  18.481
 2419TIP3   OH231451   7.307   5.020  18.879
 2419TIP3    H131452   7.221   5.033  18.919
 2419TIP3    H231453   7.354   5.101  18.897
 2420TIP3   OH231454   7.457   4.823  17.362
 2420TIP3    H131455   7.517   4.897  17.369
 2420TIP3    H231456   7.466   4.776  17.445
 2421TIP3   OH231457   7.475   4.672  17.593
 2421TIP3    H131458   7.391   4.633  17.616
 2421TIP3    H231459   7.502   4.721  17.671
 2422TIP3   OH231460   7.497   4.942  18.079
 2422TIP3    H131461   7.578   4.914  18.037
 2422TIP3    H231462   7.492   5.036  18.060
 2423TIP3   OH231463   7.293   5.230  18.309
 2423TIP3    H131464   7.222   5.283  18.346
 2423TIP3    H231465   7.264   5.211  18.220
 2424TIP3   OH231466   7.519   4.570  17.209
 2424TIP3    H131467   7.569   4.597  17.132
 2424TIP3    H231468   7.496   4.651  17.253
 2425TIP3   OH231469   7.251   4.538  17.666
 2425TIP3    H131470   7.247   4.445  17.641
 2425TIP3    H231471   7.207   4.541  17.751
 2426TIP3   OH231472   5.733   4.752  18.048
 2426TIP3    H131473   5.736   4.721  17.958
 2426TIP3    H231474   5.816   4.724  18.086
 2427TIP3   OH231475   7.317   4.734  18.616
 2427TIP3    H131476   7.383   4.667  18.598
 2427TIP3    H231477   7.339   4.806  18.557
 2428TIP3   OH231478   7.460   4.499  18.633
 2428TIP3    H131479   7.368   4.472  18.633
 2428TIP3    H231480   7.507   4.421  18.663
 2429TIP3   OH231481   7.253   4.287  17.515
 2429TIP3    H131482   7.261   4.192  17.502
 2429TIP3    H231483   7.340   4.322  17.492
 2430TIP3   OH231484   7.265   4.363  18.052
 2430TIP3    H131485   7.360   4.351  18.042
 2430TIP3    H231486   7.250   4.354  18.146
 2431TIP3   OH231487   7.278   4.413  18.329
 2431TIP3    H131488   7.191   4.445  18.355
 2431TIP3    H231489   7.322   4.491  18.296
 2432TIP3   OH231490   5.734   4.245  18.603
 2432TIP3    H131491   5.810   4.233  18.660
 2432TIP3    H231492   5.677   4.171  18.624
 2433TIP3   OH231493   7.538   3.785  18.822
 2433TIP3    H131494   7.610   3.742  18.775
 2433TIP3    H231495   7.516   3.861  18.768
 2434TIP3   OH231496   7.265   4.016  17.471
 2434TIP3    H131497   7.259   3.965  17.552
 2434TIP3    H231498   7.247   3.953  17.401
 2435TIP3   OH231499   5.831   4.101  17.960
 2435TIP3    H131500   5.873   4.015  17.962
 2435TIP3    H231501   5.902   4.163  17.969
 2436TIP3   OH231502   5.660   4.438  18.019
 2436TIP3    H131503   5.730   4.414  17.959
 2436TIP3    H231504   5.703   4.443  18.105
 2437TIP3   OH231505   7.438   3.998  18.684
 2437TIP3    H131506   7.365   4.044  18.725
 2437TIP3    H231507   7.404   3.969  18.599
 2438TIP3   OH231508   5.695   4.058  17.496
 2438TIP3    H131509   5.635   4.011  17.439
 2438TIP3    H231510   5.752   4.107  17.437
 2439TIP3   OH231511   5.711   3.896  18.297
 2439TIP3    H131512   5.636   3.870  18.351
 2439TIP3    H231513   5.672   3.923  18.214
 2440TIP3   OH231514   5.922   5.215  18.689
 2440TIP3    H131515   5.832   5.231  18.661
 2440TIP3    H231516   5.922   5.240  18.782
 2441TIP3   OH231517   6.221   5.328  18.315
 2441TIP3    H131518   6.194   5.415  18.285
 2441TIP3    H231519   6.316   5.331  18.315
 2442TIP3   OH231520   6.614   5.464  18.620
 2442TIP3    H131521   6.624   5.445  18.713
 2442TIP3    H231522   6.691   5.515  18.597
 2443TIP3   OH231523   6.849   5.602  18.573
 2443TIP3    H131524   6.917   5.548  18.532
 2443TIP3    H231525   6.890   5.633  18.654
 2444TIP3   OH231526   7.336   3.809  18.470
 2444TIP3    H131527   7.260   3.824  18.414
 2444TIP3    H231528   7.369   3.723  18.443
 2445TIP3   OH231529   5.946   5.634  18.332
 2445TIP3    H131530   5.865   5.667  18.293
 2445TIP3    H231531   5.948   5.674  18.419
 2446TIP3   OH231532   6.199   5.590  18.237
 2446TIP3    H131533   6.111   5.609  18.270
 2446TIP3    H231534   6.207   5.643  18.157
 2447TIP3   OH231535   6.650   5.561  18.159
 2447TIP3    H131536   6.594   5.600  18.092
 2447TIP3    H231537   6.671   5.634  18.218
 2448TIP3   OH231538   6.872   5.433  18.272
 2448TIP3    H131539   6.793   5.469  18.232
 2448TIP3    H231540   6.940   5.499  18.257
 2449TIP3   OH231541   7.111   5.594  18.261
 2449TIP3    H131542   7.124   5.686  18.238
 2449TIP3    H231543   7.155   5.546  18.191
 2450TIP3   OH231544   5.902   5.481  18.009
 2450TIP3    H131545   5.894   5.434  18.092
 2450TIP3    H231546   5.983   5.448  17.971
 2451TIP3   OH231547   6.124   5.364  17.903
 2451TIP3    H131548   6.108   5.272  17.923
 2451TIP3    H231549   6.213   5.381  17.934
 2452TIP3   OH231550   6.383   5.381  18.013
 2452TIP3    H131551   6.390   5.288  17.992
 2452TIP3    H231552   6.403   5.385  18.107
 2453TIP3   OH231553   6.700   3.988  17.903
 2453TIP3    H131554   6.647   3.913  17.930
 2453TIP3    H231555   6.725   3.969  17.813
 2454TIP3   OH231556   7.204   3.769  17.887
 2454TIP3    H131557   7.259   3.830  17.837
 2454TIP3    H231558   7.115   3.793  17.862
 2455TIP3   OH231559   7.359   3.920  17.723
 2455TIP3    H131560   7.419   3.852  17.691
 2455TIP3    H231561   7.412   3.999  17.728
 2456TIP3   OH231562   5.938   3.811  17.684
 2456TIP3    H131563   5.848   3.783  17.664
 2456TIP3    H231564   5.992   3.734  17.666
 2457TIP3   OH231565   5.868   3.845  17.265
 2457TIP3    H131566   5.929   3.915  17.244
 2457TIP3    H231567   5.786   3.871  17.223
 2458TIP3   OH231568   6.363   3.841  17.683
 2458TIP3    H131569   6.398   3.899  17.616
 2458TIP3    H231570   6.432   3.837  17.750
 2459TIP3   OH231571   6.957   3.837  17.794
 2459TIP3    H131572   6.920   3.863  17.710
 2459TIP3    H231573   6.910   3.757  17.817
 2460TIP3   OH231574   5.779   5.444  17.350
 2460TIP3    H131575   5.786   5.390  17.272
 2460TIP3    H231576   5.790   5.534  17.318
 2461TIP3   OH231577   6.482   4.009  17.495
 2461TIP3    H131578   6.457   3.986  17.405
 2461TIP3    H231579   6.498   4.103  17.492
 2462TIP3   OH231580   6.689   5.606  17.150
 2462TIP3    H131581   6.771   5.645  17.122
 2462TIP3    H231582   6.688   5.520  17.108
 2463TIP3   OH231583   5.913   3.902  18.641
 2463TIP3    H131584   5.859   3.823  18.638
 2463TIP3    H231585   5.996   3.873  18.680
 2464TIP3   OH231586   6.126   3.825  18.803
 2464TIP3    H131587   6.210   3.797  18.767
 2464TIP3    H231588   6.086   3.744  18.837
 2465TIP3   OH231589   7.002   3.774  18.808
 2465TIP3    H131590   6.987   3.725  18.889
 2465TIP3    H231591   7.091   3.752  18.783
 2466TIP3   OH231592   7.271   5.338  18.666
 2466TIP3    H131593   7.217   5.336  18.587
 2466TIP3    H231594   7.272   5.430  18.692
 2467TIP3   OH231595   7.494   4.427  17.450
 2467TIP3    H131596   7.502   4.497  17.514
 2467TIP3    H231597   7.507   4.470  17.365
 2468TIP3   OH231598   7.584   4.882  18.335
 2468TIP3    H131599   7.545   4.901  18.249
 2468TIP3    H231600   7.579   4.787  18.343
 2469TIP3   OH231601   7.543   5.205  18.023
 2469TIP3    H131602   7.639   5.205  18.014
 2469TIP3    H231603   7.523   5.289  18.063
 2470TIP3   OH231604   7.518   4.141  17.709
 2470TIP3    H131605   7.598   4.179  17.746
 2470TIP3    H231606   7.534   4.141  17.614
 2471TIP3   OH231607   7.600   4.611  18.429
 2471TIP3    H131608   7.562   4.570  18.507
 2471TIP3    H231609   7.534   4.598  18.361
 2472TIP3   OH231610   7.630   4.843  18.757
 2472TIP3    H131611   7.562   4.795  18.805
 2472TIP3    H231612   7.582   4.895  18.693
 2473TIP3   OH231613   7.490   5.615  17.645
 2473TIP3    H131614   7.415   5.598  17.588
 2473TIP3    H231615   7.500   5.536  17.696
 2474TIP3   OH231616   7.541   5.405  17.813
 2474TIP3    H131617   7.531   5.315  17.842
 2474TIP3    H231618   7.636   5.418  17.805
 2475TIP3   OH231619   7.592   4.646  18.043
 2475TIP3    H131620   7.583   4.654  17.948
 2475TIP3    H231621   7.675   4.690  18.064
 2476TIP3   OH231622   7.555   4.254  18.688
 2476TIP3    H131623   7.646   4.234  18.663
 2476TIP3    H231624   7.512   4.168  18.690
 2477TIP3   OH231625   7.542   4.369  18.063
 2477TIP3    H131626   7.634   4.345  18.050
 2477TIP3    H231627   7.541   4.464  18.067
 2478TIP3   OH231628   7.529   4.030  17.396
 2478TIP3    H131629   7.437   4.035  17.423
 2478TIP3    H231630   7.533   3.952  17.340
 2479TIP3   OH231631   7.505   3.852  18.230
 2479TIP3    H131632   7.449   3.856  18.307
 2479TIP3    H231633   7.471   3.920  18.172
 2480TIP3   OH231634   1.224   6.720  17.604
 2480TIP3    H131635   1.243   6.792  17.543
 2480TIP3    H231636   1.155   6.670  17.561
 2481TIP3   OH231637   1.054   6.557  18.016
 2481TIP3    H131638   1.087   6.517  18.096
 2481TIP3    H231639   1.022   6.483  17.963
 2482TIP3   OH231640   0.322   6.510  18.158
 2482TIP3    H131641   0.331   6.434  18.216
 2482TIP3    H231642   0.412   6.536  18.139
 2483TIP3   OH231643   0.406   6.977  17.965
 2483TIP3    H131644   0.391   6.888  17.934
 2483TIP3    H231645   0.490   6.971  18.012
 2484TIP3   OH231646   0.192   6.350  17.539
 2484TIP3    H131647   0.102   6.380  17.526
 2484TIP3    H231648   0.183   6.260  17.569
 2485TIP3   OH231649   0.112   6.551  17.809
 2485TIP3    H131650   0.166   6.473  17.820
 2485TIP3    H231651   0.146   6.595  17.731
 2486TIP3   OH231652   0.931   6.805  18.046
 2486TIP3    H131653   0.961   6.720  18.013
 2486TIP3    H231654   0.999   6.834  18.106
 2487TIP3   OH231655   1.805   5.939  18.125
 2487TIP3    H131656   1.802   6.015  18.183
 2487TIP3    H231657   1.871   5.962  18.059
 2488TIP3   OH231658   1.273   6.232  18.076
 2488TIP3    H131659   1.292   6.138  18.080
 2488TIP3    H231660   1.257   6.250  17.984
 2489TIP3   OH231661   1.343   6.093  17.648
 2489TIP3    H131662   1.392   6.059  17.723
 2489TIP3    H231663   1.410   6.130  17.591
 2490TIP3   OH231664   0.256   6.319  17.851
 2490TIP3    H131665   0.320   6.271  17.903
 2490TIP3    H231666   0.219   6.253  17.792
 2491TIP3   OH231667   0.715   6.445  17.812
 2491TIP3    H131668   0.800   6.413  17.842
 2491TIP3    H231669   0.699   6.399  17.730
 2492TIP3   OH231670   1.792   6.112  18.348
 2492TIP3    H131671   1.744   6.190  18.321
 2492TIP3    H231672   1.857   6.144  18.411
 2493TIP3   OH231673   0.455   5.951  18.186
 2493TIP3    H131674   0.435   6.019  18.123
 2493TIP3    H231675   0.394   5.966  18.259
 2494TIP3   OH231676   0.713   6.738  18.207
 2494TIP3    H131677   0.656   6.808  18.236
 2494TIP3    H231678   0.781   6.782  18.155
 2495TIP3   OH231679   1.507   6.053  17.865
 2495TIP3    H131680   1.521   5.962  17.889
 2495TIP3    H231681   1.570   6.103  17.918
 2496TIP3   OH231682   0.428   6.161  18.010
 2496TIP3    H131683   0.468   6.219  18.075
 2496TIP3    H231684   0.499   6.141  17.949
 2497TIP3   OH231685   0.554   6.945  18.293
 2497TIP3    H131686   0.563   7.041  18.292
 2497TIP3    H231687   0.464   6.930  18.321
 2498TIP3   OH231688   0.121   6.874  17.343
 2498TIP3    H131689   0.125   6.925  17.262
 2498TIP3    H231690   0.144   6.937  17.411
 2499TIP3   OH231691   1.461   7.108  18.119
 2499TIP3    H131692   1.382   7.138  18.164
 2499TIP3    H231693   1.504   7.189  18.089
 2500TIP3   OH231694   1.517   5.857  18.193
 2500TIP3    H131695   1.446   5.898  18.144
 2500TIP3    H231696   1.597   5.885  18.148
 2501TIP3   OH231697   0.806   5.695  17.938
 2501TIP3    H131698   0.800   5.638  17.862
 2501TIP3    H231699   0.784   5.639  18.012
 2502TIP3   OH231700   1.615   6.863  18.435
 2502TIP3    H131701   1.613   6.810  18.355
 2502TIP3    H231702   1.626   6.953  18.403
 2503TIP3   OH231703   1.066   6.587  17.412
 2503TIP3    H131704   0.997   6.644  17.380
 2503TIP3    H231705   1.139   6.599  17.351
 2504TIP3   OH231706   1.808   6.541  18.254
 2504TIP3    H131707   1.735   6.603  18.249
 2504TIP3    H231708   1.862   6.562  18.178
 2505TIP3   OH231709   1.459   6.596  17.519
 2505TIP3    H131710   1.386   6.629  17.571
 2505TIP3    H231711   1.507   6.538  17.578
 2506TIP3   OH231712   1.399   6.427  18.405
 2506TIP3    H131713   1.397   6.513  18.446
 2506TIP3    H231714   1.333   6.432  18.335
 2507TIP3   OH231715   0.597   6.672  17.687
 2507TIP3    H131716   0.542   6.635  17.618
 2507TIP3    H231717   0.642   6.596  17.725
 2508TIP3   OH231718   0.718   6.967  17.953
 2508TIP3    H131719   0.709   6.966  17.858
 2508TIP3    H231720   0.793   6.910  17.971
 2509TIP3   OH231721   0.589   6.542  18.059
 2509TIP3    H131722   0.643   6.527  17.981
 2509TIP3    H231723   0.635   6.610  18.108
 2510TIP3   OH231724   0.709   6.967  18.527
 2510TIP3    H131725   0.645   7.023  18.572
 2510TIP3    H231726   0.665   6.942  18.446
 2511TIP3   OH231727   1.311   6.592  17.286
 2511TIP3    H131728   1.335   6.510  17.329
 2511TIP3    H231729   1.359   6.660  17.333
 2512TIP3   OH231730   0.443   6.588  18.457
 2512TIP3    H131731   0.437   6.668  18.508
 2512TIP3    H231732   0.352   6.563  18.441
 2513TIP3   OH231733   0.511   7.144  18.617
 2513TIP3    H131734   0.517   7.176  18.527
 2513TIP3    H231735   0.418   7.139  18.636
 2514TIP3   OH231736   1.675   5.678  17.321
 2514TIP3    H131737   1.584   5.701  17.337
 2514TIP3    H231738   1.715   5.759  17.289
 2515TIP3   OH231739   0.431   6.550  17.504
 2515TIP3    H131740   0.403   6.599  17.426
 2515TIP3    H231741   0.373   6.474  17.506
 2516TIP3   OH231742   0.158   6.764  18.376
 2516TIP3    H131743   0.067   6.777  18.353
 2516TIP3    H231744   0.168   6.669  18.382
 2517TIP3   OH231745   0.143   7.079  17.995
 2517TIP3    H131746   0.221   7.026  17.979
 2517TIP3    H231747   0.157   7.116  18.083
 2518TIP3   OH231748   1.875   7.137  18.636
 2518TIP3    H131749   1.857   7.044  18.622
 2518TIP3    H231750   1.790   7.174  18.662
 2519TIP3   OH231751   0.959   7.080  18.487
 2519TIP3    H131752   0.965   7.160  18.539
 2519TIP3    H231753   0.871   7.047  18.503
 2520TIP3   OH231754   1.030   7.545  17.450
 2520TIP3    H131755   1.036   7.506  17.363
 2520TIP3    H231756   1.020   7.639  17.433
 2521TIP3   OH231757   0.392   7.316  17.639
 2521TIP3    H131758   0.421   7.292  17.727
 2521TIP3    H231759   0.313   7.263  17.625
 2522TIP3   OH231760   1.567   6.275  18.623
 2522TIP3    H131761   1.515   6.331  18.565
 2522TIP3    H231762   1.536   6.186  18.605
 2523TIP3   OH231763   0.312   6.977  18.422
 2523TIP3    H131764   0.347   6.949  18.506
 2523TIP3    H231765   0.253   6.906  18.396
 2524TIP3   OH231766   1.048   5.739  18.362
 2524TIP3    H131767   1.093   5.695  18.433
 2524TIP3    H231768   0.955   5.725  18.379
 2525TIP3   OH231769   1.352   6.126  18.489
 2525TIP3    H131770   1.280   6.109  18.551
 2525TIP3    H231771   1.331   6.212  18.451
 2526TIP3   OH231772   0.602   6.292  18.173
 2526TIP3    H131773   0.541   6.296  18.246
 2526TIP3    H231774   0.606   6.382  18.140
 2527TIP3   OH231775   1.128   6.361  17.558
 2527TIP3    H131776   1.094   6.438  17.513
 2527TIP3    H231777   1.193   6.324  17.497
 2528TIP3   OH231778   1.029   6.333  18.660
 2528TIP3    H131779   0.978   6.260  18.693
 2528TIP3    H231780   1.110   6.331  18.711
 2529TIP3   OH231781   1.228   6.286  17.807
 2529TIP3    H131782   1.197   6.345  17.738
 2529TIP3    H231783   1.259   6.208  17.761
 2530TIP3   OH231784   0.366   6.283  18.320
 2530TIP3    H131785   0.333   6.332  18.395
 2530TIP3    H231786   0.324   6.197  18.326
 2531TIP3   OH231787   0.158   6.095  17.732
 2531TIP3    H131788   0.150   6.031  17.802
 2531TIP3    H231789   0.141   6.046  17.652
 2532TIP3   OH231790   0.131   6.200  17.247
 2532TIP3    H131791   0.222   6.208  17.275
 2532TIP3    H231792   0.091   6.142  17.312
 2533TIP3   OH231793   1.158   6.418  18.235
 2533TIP3    H131794   1.202   6.355  18.180
 2533TIP3    H231795   1.100   6.365  18.290
 2534TIP3   OH231796   0.667   6.219  17.450
 2534TIP3    H131797   0.738   6.160  17.424
 2534TIP3    H231798   0.629   6.249  17.367
 2535TIP3   OH231799   1.271   5.951  18.077
 2535TIP3    H131800   1.205   5.962  18.146
 2535TIP3    H231801   1.225   5.905  18.007
 2536TIP3   OH231802   0.587   6.287  17.181
 2536TIP3    H131803   0.512   6.335  17.147
 2536TIP3    H231804   0.661   6.316  17.128
 2537TIP3   OH231805   1.542   7.548  18.702
 2537TIP3    H131806   1.567   7.561  18.610
 2537TIP3    H231807   1.625   7.552  18.750
 2538TIP3   OH231808   0.403   6.804  18.640
 2538TIP3    H131809   0.468   6.794  18.710
 2538TIP3    H231810   0.319   6.807  18.686
 2539TIP3   OH231811   0.954   6.314  17.908
 2539TIP3    H131812   1.036   6.285  17.868
 2539TIP3    H231813   0.936   6.249  17.976
 2540TIP3   OH231814   0.844   6.162  18.173
 2540TIP3    H131815   0.767   6.219  18.175
 2540TIP3    H231816   0.901   6.197  18.241
 2541TIP3   OH231817   0.857   6.749  17.336
 2541TIP3    H131818   0.771   6.741  17.295
 2541TIP3    H231819   0.839   6.788  17.422
 2542TIP3   OH231820   1.608   6.720  18.205
 2542TIP3    H131821   1.653   6.773  18.140
 2542TIP3    H231822   1.531   6.686  18.159
 2543TIP3   OH231823   1.047   6.815  18.477
 2543TIP3    H131824   1.041   6.776  18.564
 2543TIP3    H231825   1.012   6.903  18.488
 2544TIP3   OH231826   1.327   6.286  17.372
 2544TIP3    H131827   1.410   6.258  17.411
 2544TIP3    H231828   1.318   6.231  17.294
 2545TIP3   OH231829   0.418   6.713  17.894
 2545TIP3    H131830   0.473   6.711  17.816
 2545TIP3    H231831   0.451   6.640  17.948
 2546TIP3   OH231832   0.183   6.490  18.461
 2546TIP3    H131833   0.187   6.485  18.557
 2546TIP3    H231834   0.089   6.486  18.441
 2547TIP3   OH231835   0.818   6.515  18.655
 2547TIP3    H131836   0.757   6.479  18.591
 2547TIP3    H231837   0.899   6.466  18.641
 2548TIP3   OH231838   1.266   7.070  18.465
 2548TIP3    H131839   1.176   7.068  18.433
 2548TIP3    H231840   1.258   7.089  18.558
 2549TIP3   OH231841   1.766   6.293  17.349
 2549TIP3    H131842   1.742   6.280  17.258
 2549TIP3    H231843   1.766   6.388  17.361
 2550TIP3   OH231844   1.847   6.862  18.576
 2550TIP3    H131845   1.755   6.870  18.549
 2550TIP3    H231846   1.895   6.849  18.495
 2551TIP3   OH231847   1.693   7.093  17.297
 2551TIP3    H131848   1.632   7.029  17.334
 2551TIP3    H231849   1.652   7.122  17.216
 2552TIP3   OH231850   1.397   6.599  18.075
 2552TIP3    H131851   1.305   6.601  18.049
 2552TIP3    H231852   1.437   6.534  18.017
 2553TIP3   OH231853   0.641   7.058  17.666
 2553TIP3    H131854   0.658   7.141  17.624
 2553TIP3    H231855   0.549   7.040  17.648
 2554TIP3   OH231856   0.214   6.511  17.108
 2554TIP3    H131857   0.284   6.574  17.125
 2554TIP3    H231858   0.160   6.514  17.187
 2555TIP3   OH231859   0.793   6.844  17.590
 2555TIP3    H131860   0.752   6.929  17.610
 2555TIP3    H231861   0.732   6.779  17.626
 2556TIP3   OH231862   0.843   7.228  18.272
 2556TIP3    H131863   0.868   7.319  18.289
 2556TIP3    H231864   0.905   7.176  18.322
 2557TIP3   OH231865   0.648   7.307  17.544
 2557TIP3    H131866   0.554   7.318  17.555
 2557TIP3    H231867   0.687   7.377  17.595
 2558TIP3   OH231868   1.142   6.828  18.220
 2558TIP3    H131869   1.108   6.819  18.309
 2558TIP3    H231870   1.226   6.783  18.221
 2559TIP3   OH231871   1.452   7.281  18.448
 2559TIP3    H131872   1.384   7.215  18.435
 2559TIP3    H231873   1.440   7.343  18.376
 2560TIP3   OH231874   0.255   6.016  18.366
 2560TIP3    H131875   0.214   6.052  18.445
 2560TIP3    H231876   0.207   5.934  18.350
 2561TIP3   OH231877   0.234   7.185  18.247
 2561TIP3    H131878   0.266   7.111  18.299
 2561TIP3    H231879   0.218   7.254  18.311
 2562TIP3   OH231880   0.763   7.077  17.244
 2562TIP3    H131881   0.743   6.989  17.210
 2562TIP3    H231882   0.839   7.064  17.300
 2563TIP3   OH231883   0.331   6.699  17.289
 2563TIP3    H131884   0.259   6.758  17.311
 2563TIP3    H231885   0.397   6.755  17.248
 2564TIP3   OH231886   1.139   5.997  18.329
 2564TIP3    H131887   1.226   5.994  18.370
 2564TIP3    H231888   1.105   5.908  18.339
 2565TIP3   OH231889   1.178   5.991  17.437
 2565TIP3    H131890   1.231   5.997  17.357
 2565TIP3    H231891   1.236   6.024  17.506
 2566TIP3   OH231892   0.930   6.136  17.644
 2566TIP3    H131893   0.979   6.118  17.564
 2566TIP3    H231894   0.941   6.230  17.658
 2567TIP3   OH231895   1.016   6.239  18.387
 2567TIP3    H131896   1.020   6.260  18.480
 2567TIP3    H231897   1.055   6.152  18.380
 2568TIP3   OH231898   1.035   5.843  17.631
 2568TIP3    H131899   0.975   5.917  17.631
 2568TIP3    H231900   1.095   5.861  17.558
 2569TIP3   OH231901   1.586   5.977  18.476
 2569TIP3    H131902   1.498   6.016  18.470
 2569TIP3    H231903   1.637   6.023  18.409
 2570TIP3   OH231904   1.484   6.393  17.907
 2570TIP3    H131905   1.404   6.347  17.883
 2570TIP3    H231906   1.539   6.327  17.950
 2571TIP3   OH231907   0.208   6.269  16.981
 2571TIP3    H131908   0.219   6.361  17.004
 2571TIP3    H231909   0.169   6.229  17.059
 2572TIP3   OH231910   1.578   7.349  18.074
 2572TIP3    H131911   1.564   7.402  17.995
 2572TIP3    H231912   1.674   7.347  18.084
 2573TIP3   OH231913   0.192   7.073  17.527
 2573TIP3    H131914   0.141   7.118  17.594
 2573TIP3    H231915   0.199   7.136  17.456
 2574TIP3   OH231916   0.111   7.426  18.701
 2574TIP3    H131917   0.191   7.428  18.755
 2574TIP3    H231918   0.101   7.334  18.676
 2575TIP3   OH231919   0.629   7.255  18.841
 2575TIP3    H131920   0.709   7.203  18.850
 2575TIP3    H231921   0.586   7.220  18.763
 2576TIP3   OH231922   1.248   7.131  18.737
 2576TIP3    H131923   1.229   7.046  18.777
 2576TIP3    H231924   1.325   7.163  18.783
 2577TIP3   OH231925   0.190   6.796  18.821
 2577TIP3    H131926   0.217   6.714  18.862
 2577TIP3    H231927   0.103   6.777  18.784
 2578TIP3   OH231928   0.799   6.791  18.718
 2578TIP3    H131929   0.773   6.835  18.638
 2578TIP3    H231930   0.813   6.700  18.691
 2579TIP3   OH231931   1.108   6.940  17.014
 2579TIP3    H131932   1.117   6.966  17.106
 2579TIP3    H231933   1.017   6.910  17.007
 2580TIP3   OH231934   1.360   6.770  18.483
 2580TIP3    H131935   1.446   6.810  18.469
 2580TIP3    H231936   1.298   6.842  18.473
 2581TIP3   OH231937   0.235   6.457  18.732
 2581TIP3    H131938   0.318   6.411  18.728
 2581TIP3    H231939   0.234   6.497  18.819
 2582TIP3   OH231940   0.641   6.399  18.461
 2582TIP3    H131941   0.570   6.463  18.458
 2582TIP3    H231942   0.707   6.432  18.401
 2583TIP3   OH231943   0.802   6.402  17.030
 2583TIP3    H131944   0.784   6.491  16.998
 2583TIP3    H231945   0.854   6.415  17.109
 2584TIP3   OH231946   1.153   6.649  18.783
 2584TIP3    H131947   1.234   6.612  18.749
 2584TIP3    H231948   1.119   6.581  18.841
 2585TIP3   OH231949   0.659   6.141  18.551
 2585TIP3    H131950   0.667   6.078  18.479
 2585TIP3    H231951   0.656   6.227  18.508
 2586TIP3   OH231952   0.695   5.975  18.322
 2586TIP3    H131953   0.753   6.025  18.265
 2586TIP3    H231954   0.615   5.963  18.271
 2587TIP3   OH231955   0.836   6.520  18.319
 2587TIP3    H131956   0.930   6.537  18.316
 2587TIP3    H231957   0.796   6.601  18.286
 2588TIP3   OH231958   1.260   6.293  18.828
 2588TIP3    H131959   1.261   6.202  18.800
 2588TIP3    H231960   1.351   6.321  18.824
 2589TIP3   OH231961   1.422   6.599  18.683
 2589TIP3    H131962   1.389   6.663  18.620
 2589TIP3    H231963   1.515   6.590  18.662
 2590TIP3   OH231964   0.450   6.281  18.727
 2590TIP3    H131965   0.410   6.194  18.740
 2590TIP3    H231966   0.521   6.265  18.664
 2591TIP3   OH231967   0.768   5.714  18.365
 2591TIP3    H131968   0.748   5.806  18.352
 2591TIP3    H231969   0.699   5.667  18.318
 2592TIP3   OH231970   0.874   6.116  18.725
 2592TIP3    H131971   0.831   6.096  18.808
 2592TIP3    H231972   0.804   6.120  18.661
 2593TIP3   OH231973   1.160   6.063  18.677
 2593TIP3    H131974   1.067   6.057  18.699
 2593TIP3    H231975   1.202   5.996  18.731
 2594TIP3   OH231976   1.340   5.923  18.842
 2594TIP3    H131977   1.326   5.829  18.835
 2594TIP3    H231978   1.312   5.945  18.931
 2595TIP3   OH231979   0.353   6.026  18.768
 2595TIP3    H131980   0.355   5.947  18.714
 2595TIP3    H231981   0.332   5.993  18.856
 2596TIP3   OH231982   0.763   5.663  18.636
 2596TIP3    H131983   0.824   5.590  18.633
 2596TIP3    H231984   0.753   5.691  18.545
 2597TIP3   OH231985   0.806   5.811  18.863
 2597TIP3    H131986   0.797   5.767  18.778
 2597TIP3    H231987   0.745   5.884  18.859
 2598TIP3   OH231988   0.133   6.985  17.090
 2598TIP3    H131989   0.201   7.052  17.082
 2598TIP3    H231990   0.149   6.925  17.017
 2599TIP3   OH231991   0.048   7.483  17.541
 2599TIP3    H131992  -0.037   7.523  17.560
 2599TIP3    H231993   0.034   7.389  17.554
 2600TIP3   OH231994   0.131   7.252  17.778
 2600TIP3    H131995   0.135   7.184  17.845
 2600TIP3    H231996   0.166   7.330  17.821
 2601TIP3   OH231997   1.843   7.392  18.074
 2601TIP3    H131998   1.878   7.445  18.146
 2601TIP3    H231999   1.886   7.425  17.996
 2602TIP3   OH232000   1.808   7.318  18.419
 2602TIP3    H132001   1.776   7.246  18.365
 2602TIP3    H232002   1.860   7.276  18.488
 2603TIP3   OH232003   1.651   6.916  18.850
 2603TIP3    H132004   1.566   6.922  18.893
 2603TIP3    H232005   1.704   6.983  18.894
 2604TIP3   OH232006   1.805   6.736  17.365
 2604TIP3    H132007   1.894   6.768  17.380
 2604TIP3    H232008   1.790   6.674  17.436
 2605TIP3   OH232009   1.834   6.554  17.584
 2605TIP3    H132010   1.753   6.514  17.615
 2605TIP3    H232011   1.884   6.571  17.663
 2606TIP3   OH232012   1.790   6.850  18.047
 2606TIP3    H132013   1.854   6.780  18.033
 2606TIP3    H232014   1.836   6.930  18.021
 2607TIP3   OH232015   1.645   7.112  18.326
 2607TIP3    H132016   1.582   7.170  18.370
 2607TIP3    H232017   1.604   7.094  18.241
 2608TIP3   OH232018   1.700   6.301  17.084
 2608TIP3    H132019   1.754   6.336  17.014
 2608TIP3    H232020   1.631   6.252  17.039
 2609TIP3   OH232021   1.610   6.413  17.663
 2609TIP3    H132022   1.591   6.328  17.624
 2609TIP3    H232023   1.574   6.408  17.751
 2610TIP3   OH232024   0.150   6.706  18.054
 2610TIP3    H132025   0.169   6.689  17.961
 2610TIP3    H232026   0.220   6.662  18.101
 2611TIP3   OH232027   1.692   6.596  18.614
 2611TIP3    H132028   1.747   6.520  18.598
 2611TIP3    H232029   1.734   6.667  18.564
 2612TIP3   OH232030   1.828   6.359  18.601
 2612TIP3    H132031   1.740   6.322  18.611
 2612TIP3    H232032   1.887   6.285  18.616
 2613TIP3   OH232033   1.562   6.183  17.501
 2613TIP3    H132034   1.580   6.089  17.506
 2613TIP3    H232035   1.631   6.218  17.444
 2614TIP3   OH232036   1.657   6.217  18.035
 2614TIP3    H132037   1.750   6.234  18.026
 2614TIP3    H232038   1.636   6.245  18.124
 2615TIP3   OH232039   1.637   6.327  18.289
 2615TIP3    H132040   1.555   6.364  18.322
 2615TIP3    H232041   1.694   6.402  18.276
 2616TIP3   OH232042   0.131   6.055  18.610
 2616TIP3    H132043   0.200   6.081  18.671
 2616TIP3    H232044   0.127   5.960  18.618
 2617TIP3   OH232045   1.860   5.722  18.835
 2617TIP3    H132046   1.919   5.650  18.814
 2617TIP3    H232047   1.880   5.790  18.771
 2618TIP3   OH232048   1.611   5.916  17.522
 2618TIP3    H132049   1.640   5.864  17.597
 2618TIP3    H232050   1.546   5.860  17.479
 2619TIP3   OH232051   0.197   5.955  17.972
 2619TIP3    H132052   0.232   5.878  18.018
 2619TIP3    H232053   0.217   6.029  18.029
 2620TIP3   OH232054   0.101   6.294  18.074
 2620TIP3    H132055   0.144   6.302  17.989
 2620TIP3    H232056   0.131   6.370  18.123
 2621TIP3   OH232057   1.792   5.911  18.645
 2621TIP3    H132058   1.741   5.939  18.721
 2621TIP3    H232059   1.733   5.927  18.571
 2622TIP3   OH232060   1.783   5.916  17.206
 2622TIP3    H132061   1.780   5.859  17.129
 2622TIP3    H232062   1.857   5.974  17.191
 2623TIP3   OH232063   0.120   5.963  17.496
 2623TIP3    H132064   0.029   5.948  17.472
 2623TIP3    H232065   0.159   5.876  17.502
 2624TIP3   OH232066   1.543   7.345  17.669
 2624TIP3    H132067   1.609   7.348  17.599
 2624TIP3    H232068   1.568   7.415  17.729
 2625TIP3   OH232069   0.086   5.793  18.290
 2625TIP3    H132070   0.002   5.752  18.314
 2625TIP3    H232071   0.071   5.830  18.204
 2626TIP3   OH232072   0.241   7.119  18.692
 2626TIP3    H132073   0.166   7.078  18.648
 2626TIP3    H232074   0.229   7.096  18.785
 2627TIP3   OH232075   0.581   7.212  18.355
 2627TIP3    H132076   0.547   7.294  18.319
 2627TIP3    H232077   0.673   7.210  18.329
 2628TIP3   OH232078   0.982   7.323  18.621
 2628TIP3    H132079   0.995   7.307  18.714
 2628TIP3    H232080   1.064   7.362  18.591
 2629TIP3   OH232081   1.225   7.440  18.558
 2629TIP3    H132082   1.305   7.400  18.525
 2629TIP3    H232083   1.242   7.457  18.650
 2630TIP3   OH232084   1.650   5.707  18.464
 2630TIP3    H132085   1.616   5.796  18.450
 2630TIP3    H232086   1.602   5.653  18.401
 2631TIP3   OH232087   0.293   7.512  18.367
 2631TIP3    H132088   0.214   7.543  18.322
 2631TIP3    H232089   0.269   7.511  18.460
 2632TIP3   OH232090   0.539   7.465  18.263
 2632TIP3    H132091   0.452   7.484  18.299
 2632TIP3    H232092   0.540   7.507  18.177
 2633TIP3   OH232093   1.048   7.461  18.110
 2633TIP3    H132094   0.964   7.479  18.067
 2633TIP3    H232095   1.050   7.522  18.184
 2634TIP3   OH232096   1.254   7.309  18.215
 2634TIP3    H132097   1.172   7.342  18.179
 2634TIP3    H232098   1.306   7.387  18.231
 2635TIP3   OH232099   1.453   7.501  18.262
 2635TIP3    H132100   1.444   7.592  18.235
 2635TIP3    H232101   1.499   7.459  18.190
 2636TIP3   OH232102   0.267   7.356  18.029
 2636TIP3    H132103   0.253   7.302  18.107
 2636TIP3    H232104   0.341   7.314  17.984
 2637TIP3   OH232105   0.467   7.236  17.889
 2637TIP3    H132106   0.448   7.143  17.904
 2637TIP3    H232107   0.553   7.249  17.930
 2638TIP3   OH232108   0.701   7.228  18.032
 2638TIP3    H132109   0.712   7.137  18.006
 2638TIP3    H232110   0.755   7.237  18.111
 2639TIP3   OH232111   1.062   5.822  17.919
 2639TIP3    H132112   0.972   5.788  17.924
 2639TIP3    H232113   1.082   5.821  17.825
 2640TIP3   OH232114   1.571   5.679  17.909
 2640TIP3    H132115   1.631   5.729  17.854
 2640TIP3    H232116   1.485   5.694  17.870
 2641TIP3   OH232117   1.743   5.791  17.733
 2641TIP3    H132118   1.806   5.733  17.691
 2641TIP3    H232119   1.793   5.871  17.752
 2642TIP3   OH232120   1.327   5.707  17.793
 2642TIP3    H132121   1.316   5.698  17.698
 2642TIP3    H232122   1.265   5.644  17.829
 2643TIP3   OH232123   1.419   5.743  17.396
 2643TIP3    H132124   1.387   5.756  17.307
 2643TIP3    H232125   1.371   5.667  17.428
 2644TIP3   OH232126   0.176   7.256  17.331
 2644TIP3    H132127   0.101   7.252  17.272
 2644TIP3    H232128   0.221   7.337  17.307
 2645TIP3   OH232129   0.885   5.984  17.388
 2645TIP3    H132130   0.875   5.889  17.384
 2645TIP3    H232131   0.971   6.000  17.350
 2646TIP3   OH232132   1.727   7.326  17.454
 2646TIP3    H132133   1.711   7.240  17.416
 2646TIP3    H232134   1.706   7.388  17.384
 2647TIP3   OH232135   0.272   5.763  18.642
 2647TIP3    H132136   0.212   5.692  18.664
 2647TIP3    H232137   0.352   5.743  18.691
 2648TIP3   OH232138   0.488   5.701  18.804
 2648TIP3    H132139   0.577   5.688  18.771
 2648TIP3    H232140   0.462   5.615  18.837
 2649TIP3   OH232141   1.330   5.648  18.801
 2649TIP3    H132142   1.318   5.597  18.881
 2649TIP3    H232143   1.424   5.640  18.782
 2650TIP3   OH232144   1.626   7.257  18.677
 2650TIP3    H132145   1.567   7.259  18.601
 2650TIP3    H232146   1.642   7.349  18.697
 2651TIP3   OH232147   3.087   6.641  17.663
 2651TIP3    H132148   3.071   6.736  17.665
 2651TIP3    H232149   3.027   6.609  17.595
 2652TIP3   OH232150   2.990   6.550  18.015
 2652TIP3    H132151   3.005   6.518  18.104
 2652TIP3    H232152   2.927   6.489  17.977
 2653TIP3   OH232153   2.184   6.511  18.168
 2653TIP3    H132154   2.197   6.433  18.221
 2653TIP3    H232155   2.272   6.536  18.140
 2654TIP3   OH232156   3.335   6.861  17.844
 2654TIP3    H132157   3.305   6.788  17.898
 2654TIP3    H232158   3.352   6.932  17.906
 2655TIP3   OH232159   2.309   6.971  17.967
 2655TIP3    H132160   2.282   6.883  17.941
 2655TIP3    H232161   2.402   6.963  17.988
 2656TIP3   OH232162   1.972   6.309  17.541
 2656TIP3    H132163   1.950   6.400  17.559
 2656TIP3    H232164   1.898   6.275  17.491
 2657TIP3   OH232165   2.025   6.558  17.797
 2657TIP3    H132166   2.055   6.470  17.819
 2657TIP3    H232167   2.106   6.608  17.785
 2658TIP3   OH232168   3.030   7.334  17.837
 2658TIP3    H132169   3.102   7.278  17.805
 2658TIP3    H232170   3.012   7.301  17.925
 2659TIP3   OH232171   2.811   6.813  18.035
 2659TIP3    H132172   2.853   6.744  17.983
 2659TIP3    H232173   2.878   6.839  18.099
 2660TIP3   OH232174   3.687   5.945  18.140
 2660TIP3    H132175   3.699   6.014  18.206
 2660TIP3    H232176   3.746   5.970  18.069
 2661TIP3   OH232177   3.146   6.219  18.076
 2661TIP3    H132178   3.116   6.143  18.126
 2661TIP3    H232179   3.102   6.212  17.992
 2662TIP3   OH232180   2.473   6.033  17.779
 2662TIP3    H132181   2.477   6.120  17.740
 2662TIP3    H232182   2.425   5.981  17.715
 2663TIP3   OH232183   2.124   6.308  17.879
 2663TIP3    H132184   2.191   6.264  17.931
 2663TIP3    H232185   2.136   6.273  17.790
 2664TIP3   OH232186   2.593   6.449  17.841
 2664TIP3    H132187   2.679   6.413  17.862
 2664TIP3    H232188   2.553   6.383  17.784
 2665TIP3   OH232189   3.687   6.118  18.359
 2665TIP3    H132190   3.638   6.197  18.335
 2665TIP3    H232191   3.741   6.144  18.434
 2666TIP3   OH232192   2.335   5.969  18.212
 2666TIP3    H132193   2.314   6.025  18.137
 2666TIP3    H232194   2.263   5.984  18.274
 2667TIP3   OH232195   3.032   6.912  17.541
 2667TIP3    H132196   3.126   6.933  17.545
 2667TIP3    H232197   2.988   6.994  17.564
 2668TIP3   OH232198   2.592   6.731  18.182
 2668TIP3    H132199   2.541   6.803  18.219
 2668TIP3    H232200   2.661   6.773  18.132
 2669TIP3   OH232201   2.313   6.125  17.986
 2669TIP3    H132202   2.377   6.182  18.029
 2669TIP3    H232203   2.361   6.085  17.914
 2670TIP3   OH232204   2.443   6.932  18.293
 2670TIP3    H132205   2.444   7.028  18.283
 2670TIP3    H232206   2.357   6.913  18.330
 2671TIP3   OH232207   2.023   6.921  17.372
 2671TIP3    H132208   1.936   6.959  17.363
 2671TIP3    H232209   2.065   6.973  17.440
 2672TIP3   OH232210   3.391   7.082  18.064
 2672TIP3    H132211   3.297   7.078  18.078
 2672TIP3    H232212   3.409   7.175  18.047
 2673TIP3   OH232213   3.429   5.860  18.210
 2673TIP3    H132214   3.377   5.940  18.203
 2673TIP3    H232215   3.515   5.884  18.176
 2674TIP3   OH232216   2.686   5.668  17.940
 2674TIP3    H132217   2.661   5.576  17.943
 2674TIP3    H232218   2.610   5.714  17.977
 2675TIP3   OH232219   3.221   7.207  17.691
 2675TIP3    H132220   3.252   7.123  17.656
 2675TIP3    H232221   3.289   7.270  17.667
 2676TIP3   OH232222   3.300   6.966  17.583
 2676TIP3    H132223   3.345   6.921  17.512
 2676TIP3    H232224   3.326   6.918  17.662
 2677TIP3   OH232225   3.503   6.864  18.421
 2677TIP3    H132226   3.499   6.810  18.343
 2677TIP3    H232227   3.510   6.954  18.388
 2678TIP3   OH232228   2.954   6.554  17.434
 2678TIP3    H132229   2.892   6.622  17.407
 2678TIP3    H232230   3.024   6.557  17.369
 2679TIP3   OH232231   3.691   6.535  18.242
 2679TIP3    H132232   3.619   6.597  18.234
 2679TIP3    H232233   3.747   6.554  18.166
 2680TIP3   OH232234   3.318   6.588  17.526
 2680TIP3    H132235   3.247   6.608  17.587
 2680TIP3    H232236   3.381   6.537  17.577
 2681TIP3   OH232237   3.286   6.423  18.418
 2681TIP3    H132238   3.289   6.503  18.470
 2681TIP3    H232239   3.216   6.437  18.355
 2682TIP3   OH232240   2.461   6.644  17.688
 2682TIP3    H132241   2.421   6.603  17.612
 2682TIP3    H232242   2.514   6.575  17.728
 2683TIP3   OH232243   2.592   6.972  17.952
 2683TIP3    H132244   2.589   6.987  17.857
 2683TIP3    H232245   2.672   6.921  17.966
 2684TIP3   OH232246   2.444   6.544  18.051
 2684TIP3    H132247   2.497   6.519  17.976
 2684TIP3    H232248   2.497   6.609  18.098
 2685TIP3   OH232249   3.127   7.071  18.127
 2685TIP3    H132250   3.111   7.141  18.190
 2685TIP3    H232251   3.080   6.996  18.162
 2686TIP3   OH232252   2.601   6.966  18.521
 2686TIP3    H132253   2.539   7.023  18.567
 2686TIP3    H232254   2.556   6.942  18.440
 2687TIP3   OH232255   3.190   6.529  17.296
 2687TIP3    H132256   3.234   6.535  17.381
 2687TIP3    H232257   3.233   6.596  17.242
 2688TIP3   OH232258   2.281   6.564  18.480
 2688TIP3    H132259   2.287   6.643  18.534
 2688TIP3    H232260   2.187   6.557  18.459
 2689TIP3   OH232261   2.942   7.173  17.577
 2689TIP3    H132262   2.988   7.207  17.654
 2689TIP3    H232263   2.875   7.238  17.558
 2690TIP3   OH232264   2.403   7.137  18.608
 2690TIP3    H132265   2.402   7.170  18.518
 2690TIP3    H232266   2.311   7.122  18.629
 2691TIP3   OH232267   3.595   5.680  17.282
 2691TIP3    H132268   3.501   5.683  17.301
 2691TIP3    H232269   3.611   5.755  17.226
 2692TIP3   OH232270   2.340   6.538  17.467
 2692TIP3    H132271   2.295   6.602  17.412
 2692TIP3    H232272   2.352   6.462  17.409
 2693TIP3   OH232273   1.979   6.790  18.347
 2693TIP3    H132274   1.958   6.785  18.253
 2693TIP3    H232275   1.996   6.699  18.372
 2694TIP3   OH232276   1.973   7.058  18.000
 2694TIP3    H132277   2.064   7.032  17.991
 2694TIP3    H232278   1.972   7.120  18.073
 2695TIP3   OH232279   3.760   7.142  18.638
 2695TIP3    H132280   3.742   7.049  18.626
 2695TIP3    H232281   3.676   7.178  18.666
 2696TIP3   OH232282   2.851   7.075  18.488
 2696TIP3    H132283   2.858   7.158  18.534
 2696TIP3    H232284   2.762   7.044  18.505
 2697TIP3   OH232285   2.918   7.495  17.432
 2697TIP3    H132286   2.908   7.520  17.340
 2697TIP3    H232287   2.888   7.572  17.481
 2698TIP3   OH232288   2.286   7.298  17.643
 2698TIP3    H132289   2.309   7.275  17.733
 2698TIP3    H232290   2.223   7.231  17.617
 2699TIP3   OH232291   3.151   7.352  17.445
 2699TIP3    H132292   3.062   7.388  17.446
 2699TIP3    H232293   3.145   7.272  17.495
 2700TIP3   OH232294   3.456   6.273  18.638
 2700TIP3    H132295   3.400   6.318  18.576
 2700TIP3    H232296   3.453   6.181  18.612
 2701TIP3   OH232297   2.204   6.927  18.422
 2701TIP3    H132298   2.223   6.899  18.511
 2701TIP3    H232299   2.123   6.881  18.399
 2702TIP3   OH232300   2.453   5.782  18.039
 2702TIP3    H132301   2.377   5.772  17.982
 2702TIP3    H232302   2.429   5.854  18.098
 2703TIP3   OH232303   2.946   5.768  18.363
 2703TIP3    H132304   2.991   5.720  18.434
 2703TIP3    H232305   2.853   5.755  18.381
 2704TIP3   OH232306   3.214   6.144  18.447
 2704TIP3    H132307   3.153   6.127  18.520
 2704TIP3    H232308   3.218   6.240  18.443
 2705TIP3   OH232309   2.472   6.284  18.143
 2705TIP3    H132310   2.404   6.282  18.211
 2705TIP3    H232311   2.472   6.374  18.112
 2706TIP3   OH232312   2.455   6.285  17.671
 2706TIP3    H132313   2.360   6.274  17.661
 2706TIP3    H232314   2.490   6.271  17.583
 2707TIP3   OH232315   3.028   6.302  17.531
 2707TIP3    H132316   2.999   6.387  17.500
 2707TIP3    H232317   3.110   6.285  17.483
 2708TIP3   OH232318   2.914   6.341  18.657
 2708TIP3    H132319   2.865   6.267  18.694
 2708TIP3    H232320   2.998   6.340  18.703
 2709TIP3   OH232321   3.079   6.292  17.803
 2709TIP3    H132322   3.099   6.386  17.808
 2709TIP3    H232323   3.059   6.277  17.711
 2710TIP3   OH232324   2.250   6.279  18.312
 2710TIP3    H132325   2.291   6.315  18.391
 2710TIP3    H232326   2.212   6.196  18.340
 2711TIP3   OH232327   1.910   6.001  17.764
 2711TIP3    H132328   1.982   6.012  17.826
 2711TIP3    H232329   1.951   6.012  17.678
 2712TIP3   OH232330   1.993   6.131  17.250
 2712TIP3    H132331   2.051   6.082  17.308
 2712TIP3    H232332   1.922   6.162  17.307
 2713TIP3   OH232333   3.063   6.417  18.248
 2713TIP3    H132334   3.099   6.352  18.188
 2713TIP3    H232335   2.996   6.370  18.298
 2714TIP3   OH232336   2.763   6.052  17.765
 2714TIP3    H132337   2.672   6.032  17.786
 2714TIP3    H232338   2.811   5.974  17.793
 2715TIP3   OH232339   2.196   6.192  17.643
 2715TIP3    H132340   2.121   6.221  17.592
 2715TIP3    H232341   2.219   6.107  17.606
 2716TIP3   OH232342   2.553   6.217  17.426
 2716TIP3    H132343   2.645   6.193  17.436
 2716TIP3    H232344   2.548   6.257  17.339
 2717TIP3   OH232345   2.507   6.324  17.179
 2717TIP3    H132346   2.419   6.333  17.143
 2717TIP3    H232347   2.559   6.390  17.131
 2718TIP3   OH232348   3.430   7.535  18.702
 2718TIP3    H132349   3.458   7.553  18.612
 2718TIP3    H232350   3.510   7.545  18.754
 2719TIP3   OH232351   2.260   6.774  18.662
 2719TIP3    H132352   2.326   6.779  18.731
 2719TIP3    H232353   2.177   6.777  18.709
 2720TIP3   OH232354   2.827   6.323  17.930
 2720TIP3    H132355   2.896   6.291  17.872
 2720TIP3    H232356   2.791   6.243  17.970
 2721TIP3   OH232357   2.302   5.945  17.569
 2721TIP3    H132358   2.258   5.863  17.591
 2721TIP3    H232359   2.345   5.928  17.485
 2722TIP3   OH232360   2.715   6.158  18.187
 2722TIP3    H132361   2.639   6.213  18.170
 2722TIP3    H232362   2.771   6.210  18.244
 2723TIP3   OH232363   2.774   6.748  17.344
 2723TIP3    H132364   2.703   6.727  17.284
 2723TIP3    H232365   2.730   6.774  17.425
 2724TIP3   OH232366   3.488   6.714  18.192
 2724TIP3    H132367   3.545   6.769  18.138
 2724TIP3    H232368   3.410   6.700  18.137
 2725TIP3   OH232369   2.894   6.794  18.472
 2725TIP3    H132370   2.912   6.762  18.560
 2725TIP3    H232371   2.876   6.887  18.483
 2726TIP3   OH232372   3.271   6.239  17.406
 2726TIP3    H132373   3.295   6.154  17.368
 2726TIP3    H232374   3.301   6.303  17.342
 2727TIP3   OH232375   2.280   6.705  17.884
 2727TIP3    H132376   2.338   6.699  17.808
 2727TIP3    H232377   2.320   6.647  17.949
 2728TIP3   OH232378   2.882   6.996  17.285
 2728TIP3    H132379   2.945   7.003  17.357
 2728TIP3    H232380   2.846   6.908  17.293
 2729TIP3   OH232381   2.000   6.535  18.456
 2729TIP3    H132382   1.976   6.484  18.534
 2729TIP3    H232383   1.933   6.514  18.392
 2730TIP3   OH232384   2.688   6.507  18.651
 2730TIP3    H132385   2.630   6.469  18.584
 2730TIP3    H232386   2.772   6.462  18.638
 2731TIP3   OH232387   3.134   7.036  18.483
 2731TIP3    H132388   3.041   7.052  18.463
 2731TIP3    H232389   3.145   7.072  18.571
 2732TIP3   OH232390   3.725   6.339  17.292
 2732TIP3    H132391   3.661   6.297  17.235
 2732TIP3    H232392   3.733   6.428  17.259
 2733TIP3   OH232393   3.728   6.867  18.575
 2733TIP3    H132394   3.637   6.877  18.547
 2733TIP3    H232395   3.777   6.853  18.495
 2734TIP3   OH232396   3.563   7.119  17.319
 2734TIP3    H132397   3.475   7.082  17.306
 2734TIP3    H232398   3.597   7.131  17.231
 2735TIP3   OH232399   3.270   6.641  18.019
 2735TIP3    H132400   3.176   6.628  18.012
 2735TIP3    H232401   3.308   6.561  17.981
 2736TIP3   OH232402   2.535   7.045  17.688
 2736TIP3    H132403   2.561   7.126  17.645
 2736TIP3    H232404   2.440   7.040  17.674
 2737TIP3   OH232405   2.638   6.819  17.569
 2737TIP3    H132406   2.620   6.904  17.609
 2737TIP3    H232407   2.580   6.758  17.614
 2738TIP3   OH232408   2.721   7.225  18.283
 2738TIP3    H132409   2.745   7.315  18.302
 2738TIP3    H232410   2.785   7.172  18.331
 2739TIP3   OH232411   2.553   7.287  17.560
 2739TIP3    H132412   2.459   7.305  17.568
 2739TIP3    H232413   2.595   7.360  17.604
 2740TIP3   OH232414   3.012   6.833  18.226
 2740TIP3    H132415   2.971   6.817  18.311
 2740TIP3    H232416   3.091   6.778  18.228
 2741TIP3   OH232417   3.319   7.001  17.180
 2741TIP3    H132418   3.339   6.924  17.232
 2741TIP3    H232419   3.241   6.977  17.130
 2742TIP3   OH232420   3.332   7.276  18.454
 2742TIP3    H132421   3.254   7.226  18.431
 2742TIP3    H232422   3.333   7.349  18.392
 2743TIP3   OH232423   2.152   6.029  18.414
 2743TIP3    H132424   2.080   6.072  18.462
 2743TIP3    H232425   2.167   5.948  18.463
 2744TIP3   OH232426   3.391   6.803  17.368
 2744TIP3    H132427   3.365   6.726  17.419
 2744TIP3    H232428   3.486   6.793  17.356
 2745TIP3   OH232429   2.135   7.162  18.256
 2745TIP3    H132430   2.162   7.079  18.296
 2745TIP3    H232431   2.155   7.228  18.322
 2746TIP3   OH232432   2.211   6.715  17.297
 2746TIP3    H132433   2.149   6.783  17.323
 2746TIP3    H232434   2.235   6.738  17.207
 2747TIP3   OH232435   3.070   6.008  18.252
 2747TIP3    H132436   3.123   6.035  18.327
 2747TIP3    H232437   3.027   5.928  18.281
 2748TIP3   OH232438   2.810   6.127  17.499
 2748TIP3    H132439   2.886   6.184  17.505
 2748TIP3    H232440   2.792   6.101  17.590
 2749TIP3   OH232441   2.901   6.249  18.392
 2749TIP3    H132442   2.901   6.281  18.482
 2749TIP3    H232443   2.929   6.158  18.398
 2750TIP3   OH232444   2.450   5.973  17.320
 2750TIP3    H132445   2.473   6.061  17.351
 2750TIP3    H232446   2.532   5.939  17.283
 2751TIP3   OH232447   3.457   6.028  18.498
 2751TIP3    H132448   3.370   6.050  18.465
 2751TIP3    H232449   3.516   6.044  18.424
 2752TIP3   OH232450   3.352   6.385  17.924
 2752TIP3    H132451   3.277   6.341  17.964
 2752TIP3    H232452   3.428   6.337  17.957
 2753TIP3   OH232453   2.242   6.421  17.099
 2753TIP3    H132454   2.256   6.491  17.035
 2753TIP3    H232455   2.182   6.459  17.163
 2754TIP3   OH232456   3.473   7.354  18.074
 2754TIP3    H132457   3.458   7.410  17.998
 2754TIP3    H232458   3.568   7.352  18.085
 2755TIP3   OH232459   2.198   5.744  17.937
 2755TIP3    H132460   2.189   5.739  17.842
 2755TIP3    H232461   2.172   5.658  17.968
 2756TIP3   OH232462   2.073   7.147  17.539
 2756TIP3    H132463   2.013   7.179  17.607
 2756TIP3    H232464   2.053   7.202  17.462
 2757TIP3   OH232465   2.028   7.396  18.696
 2757TIP3    H132466   2.100   7.398  18.758
 2757TIP3    H232467   2.012   7.303  18.680
 2758TIP3   OH232468   2.467   7.255  18.851
 2758TIP3    H132469   2.558   7.233  18.872
 2758TIP3    H232470   2.452   7.215  18.766
 2759TIP3   OH232471   3.138   7.136  18.742
 2759TIP3    H132472   3.117   7.053  18.783
 2759TIP3    H232473   3.211   7.171  18.794
 2760TIP3   OH232474   3.428   7.201  17.014
 2760TIP3    H132475   3.392   7.126  17.062
 2760TIP3    H232476   3.522   7.192  17.023
 2761TIP3   OH232477   2.008   6.772  18.781
 2761TIP3    H132478   1.981   6.681  18.791
 2761TIP3    H232479   1.948   6.808  18.716
 2762TIP3   OH232480   2.673   6.784  18.714
 2762TIP3    H132481   2.654   6.833  18.634
 2762TIP3    H232482   2.685   6.694  18.685
 2763TIP3   OH232483   3.069   6.927  17.067
 2763TIP3    H132484   2.990   6.947  17.117
 2763TIP3    H232485   3.047   6.952  16.977
 2764TIP3   OH232486   3.246   6.779  18.476
 2764TIP3    H132487   3.335   6.809  18.460
 2764TIP3    H232488   3.193   6.858  18.476
 2765TIP3   OH232489   2.111   6.465  18.760
 2765TIP3    H132490   2.197   6.459  18.719
 2765TIP3    H232491   2.128   6.507  18.845
 2766TIP3   OH232492   2.495   6.397  18.441
 2766TIP3    H132493   2.429   6.466  18.451
 2766TIP3    H232494   2.563   6.437  18.387
 2767TIP3   OH232495   3.032   6.652  18.768
 2767TIP3    H132496   3.115   6.617  18.738
 2767TIP3    H232497   3.000   6.587  18.832
 2768TIP3   OH232498   2.552   6.153  18.551
 2768TIP3    H132499   2.563   6.085  18.484
 2768TIP3    H232500   2.539   6.233  18.500
 2769TIP3   OH232501   2.578   5.973  18.338
 2769TIP3    H132502   2.635   6.022  18.279
 2769TIP3    H232503   2.493   5.970  18.293
 2770TIP3   OH232504   2.703   6.523  18.321
 2770TIP3    H132505   2.791   6.551  18.344
 2770TIP3    H232506   2.666   6.597  18.272
 2771TIP3   OH232507   3.151   6.289  18.820
 2771TIP3    H132508   3.165   6.195  18.810
 2771TIP3    H232509   3.239   6.326  18.822
 2772TIP3   OH232510   3.306   6.599  18.669
 2772TIP3    H132511   3.274   6.668  18.611
 2772TIP3    H232512   3.401   6.596  18.652
 2773TIP3   OH232513   2.394   6.236  18.768
 2773TIP3    H132514   2.312   6.189  18.752
 2773TIP3    H232515   2.447   6.220  18.690
 2774TIP3   OH232516   2.668   5.715  18.357
 2774TIP3    H132517   2.636   5.805  18.348
 2774TIP3    H232518   2.599   5.661  18.318
 2775TIP3   OH232519   2.767   6.120  18.725
 2775TIP3    H132520   2.724   6.096  18.808
 2775TIP3    H232521   2.695   6.126  18.662
 2776TIP3   OH232522   3.035   6.063  18.638
 2776TIP3    H132523   2.947   6.064  18.675
 2776TIP3    H232524   3.086   6.006  18.696
 2777TIP3   OH232525   3.210   5.938  18.821
 2777TIP3    H132526   3.206   5.843  18.812
 2777TIP3    H232527   3.190   5.955  18.913
 2778TIP3   OH232528   2.190   6.041  18.756
 2778TIP3    H132529   2.252   5.969  18.746
 2778TIP3    H232530   2.169   6.043  18.850
 2779TIP3   OH232531   2.682   5.673  18.626
 2779TIP3    H132532   2.730   5.590  18.625
 2779TIP3    H232533   2.669   5.694  18.533
 2780TIP3   OH232534   2.643   5.783  18.869
 2780TIP3    H132535   2.663   5.753  18.781
 2780TIP3    H232536   2.613   5.873  18.858
 2781TIP3   OH232537   2.721   7.488  17.149
 2781TIP3    H132538   2.808   7.512  17.117
 2781TIP3    H232539   2.666   7.564  17.127
 2782TIP3   OH232540   1.905   7.464  17.616
 2782TIP3    H132541   1.836   7.428  17.560
 2782TIP3    H232542   1.911   7.402  17.689
 2783TIP3   OH232543   1.967   7.276  17.807
 2783TIP3    H132544   1.922   7.201  17.846
 2783TIP3    H232545   2.032   7.302  17.873
 2784TIP3   OH232546   3.744   7.388  18.085
 2784TIP3    H132547   3.754   7.461  18.147
 2784TIP3    H232548   3.833   7.366  18.059
 2785TIP3   OH232549   3.686   7.314  18.418
 2785TIP3    H132550   3.649   7.245  18.364
 2785TIP3    H232551   3.732   7.267  18.488
 2786TIP3   OH232552   3.531   6.918  18.849
 2786TIP3    H132553   3.446   6.924  18.893
 2786TIP3    H232554   3.586   6.983  18.892
 2787TIP3   OH232555   3.665   6.745  17.392
 2787TIP3    H132556   3.742   6.802  17.394
 2787TIP3    H232557   3.683   6.679  17.458
 2788TIP3   OH232558   3.717   6.565  17.600
 2788TIP3    H132559   3.632   6.526  17.620
 2788TIP3    H232560   3.746   6.603  17.683
 2789TIP3   OH232561   3.710   6.833  18.082
 2789TIP3    H132562   3.766   6.765  18.044
 2789TIP3    H232563   3.744   6.915  18.047
 2790TIP3   OH232564   3.519   7.114  18.312
 2790TIP3    H132565   3.451   7.167  18.355
 2790TIP3    H232566   3.487   7.102  18.223
 2791TIP3   OH232567   3.703   6.591  17.159
 2791TIP3    H132568   3.654   6.624  17.083
 2791TIP3    H232569   3.683   6.653  17.229
 2792TIP3   OH232570   3.578   6.239  17.091
 2792TIP3    H132571   3.599   6.288  17.011
 2792TIP3    H232572   3.560   6.150  17.061
 2793TIP3   OH232573   3.487   6.432  17.677
 2793TIP3    H132574   3.506   6.343  17.647
 2793TIP3    H232575   3.442   6.420  17.761
 2794TIP3   OH232576   1.973   6.641  18.056
 2794TIP3    H132577   1.979   6.620  17.962
 2794TIP3    H232578   2.054   6.607  18.093
 2795TIP3   OH232579   3.577   6.606  18.611
 2795TIP3    H132580   3.633   6.530  18.598
 2795TIP3    H232581   3.624   6.678  18.569
 2796TIP3   OH232582   3.711   6.370  18.601
 2796TIP3    H132583   3.627   6.329  18.622
 2796TIP3    H232584   3.777   6.303  18.623
 2797TIP3   OH232585   3.542   6.225  18.029
 2797TIP3    H132586   3.637   6.233  18.017
 2797TIP3    H232587   3.528   6.243  18.122
 2798TIP3   OH232588   3.520   6.323  18.290
 2798TIP3    H132589   3.440   6.359  18.327
 2798TIP3    H232590   3.577   6.398  18.275
 2799TIP3   OH232591   1.970   6.119  18.604
 2799TIP3    H132592   2.045   6.108  18.663
 2799TIP3    H232593   1.911   6.047  18.625
 2800TIP3   OH232594   3.747   5.726  18.815
 2800TIP3    H132595   3.803   5.661  18.772
 2800TIP3    H232596   3.742   5.798  18.753
 2801TIP3   OH232597   2.070   5.980  17.998
 2801TIP3    H132598   2.110   5.894  17.984
 2801TIP3    H232599   2.144   6.041  17.997
 2802TIP3   OH232600   1.921   6.293  18.066
 2802TIP3    H132601   1.979   6.287  17.991
 2802TIP3    H232602   1.963   6.356  18.125
 2803TIP3   OH232603   3.680   5.933  18.650
 2803TIP3    H132604   3.612   5.966  18.708
 2803TIP3    H232605   3.634   5.908  18.570
 2804TIP3   OH232606   3.768   5.871  17.135
 2804TIP3    H132607   3.841   5.854  17.076
 2804TIP3    H232608   3.790   5.954  17.178
 2805TIP3   OH232609   1.898   5.960  17.474
 2805TIP3    H132610   1.805   5.962  17.496
 2805TIP3    H232611   1.903   5.905  17.396
 2806TIP3   OH232612   3.407   7.401  17.639
 2806TIP3    H132613   3.480   7.380  17.581
 2806TIP3    H232614   3.447   7.445  17.714
 2807TIP3   OH232615   1.916   5.740  18.283
 2807TIP3    H132616   1.886   5.673  18.222
 2807TIP3    H232617   1.891   5.822  18.242
 2808TIP3   OH232618   2.143   7.097  18.690
 2808TIP3    H132619   2.051   7.102  18.663
 2808TIP3    H232620   2.140   7.085  18.785
 2809TIP3   OH232621   2.453   7.203  18.341
 2809TIP3    H132622   2.426   7.290  18.311
 2809TIP3    H232623   2.547   7.201  18.325
 2810TIP3   OH232624   2.870   7.324  18.605
 2810TIP3    H132625   2.879   7.306  18.699
 2810TIP3    H232626   2.953   7.366  18.581
 2811TIP3   OH232627   3.113   7.448  18.564
 2811TIP3    H132628   3.190   7.400  18.534
 2811TIP3    H232629   3.126   7.461  18.657
 2812TIP3   OH232630   3.587   5.708  18.452
 2812TIP3    H132631   3.518   5.733  18.391
 2812TIP3    H232632   3.608   5.618  18.428
 2813TIP3   OH232633   2.173   7.498  18.349
 2813TIP3    H132634   2.093   7.524  18.303
 2813TIP3    H232635   2.154   7.513  18.441
 2814TIP3   OH232636   2.429   7.463  18.268
 2814TIP3    H132637   2.341   7.484  18.300
 2814TIP3    H232638   2.434   7.508  18.183
 2815TIP3   OH232639   2.924   7.444  18.139
 2815TIP3    H132640   2.851   7.469  18.082
 2815TIP3    H232641   2.933   7.517  18.200
 2816TIP3   OH232642   3.109   7.303  18.275
 2816TIP3    H132643   3.032   7.337  18.229
 2816TIP3    H232644   3.174   7.374  18.269
 2817TIP3   OH232645   3.332   7.485  18.270
 2817TIP3    H132646   3.307   7.572  18.239
 2817TIP3    H232647   3.378   7.446  18.196
 2818TIP3   OH232648   2.137   7.321  18.026
 2818TIP3    H132649   2.131   7.277  18.111
 2818TIP3    H232650   2.221   7.291  17.990
 2819TIP3   OH232651   2.359   7.231  17.899
 2819TIP3    H132652   2.343   7.140  17.922
 2819TIP3    H232653   2.443   7.252  17.939
 2820TIP3   OH232654   2.597   7.235  18.033
 2820TIP3    H132655   2.606   7.143  18.009
 2820TIP3    H232656   2.647   7.244  18.115
 2821TIP3   OH232657   2.898   5.813  17.829
 2821TIP3    H132658   2.830   5.767  17.879
 2821TIP3    H232659   2.954   5.743  17.795
 2822TIP3   OH232660   3.457   5.609  17.820
 2822TIP3    H132661   3.538   5.617  17.771
 2822TIP3    H232662   3.402   5.552  17.766
 2823TIP3   OH232663   2.162   5.720  17.663
 2823TIP3    H132664   2.072   5.702  17.636
 2823TIP3    H232665   2.208   5.637  17.651
 2824TIP3   OH232666   2.579   5.713  17.671
 2824TIP3    H132667   2.634   5.763  17.611
 2824TIP3    H232668   2.625   5.716  17.754
 2825TIP3   OH232669   1.999   7.318  17.325
 2825TIP3    H132670   1.904   7.321  17.321
 2825TIP3    H232671   2.025   7.405  17.358
 2826TIP3   OH232672   2.275   6.003  17.107
 2826TIP3    H132673   2.215   5.929  17.101
 2826TIP3    H232674   2.333   5.981  17.180
 2827TIP3   OH232675   2.731   5.964  17.262
 2827TIP3    H132676   2.746   5.870  17.265
 2827TIP3    H232677   2.770   5.997  17.343
 2828TIP3   OH232678   3.625   7.337  17.477
 2828TIP3    H132679   3.611   7.249  17.444
 2828TIP3    H232680   3.609   7.394  17.402
 2829TIP3   OH232681   2.140   5.733  18.599
 2829TIP3    H132682   2.107   5.652  18.637
 2829TIP3    H232683   2.218   5.753  18.650
 2830TIP3   OH232684   2.346   5.726  18.793
 2830TIP3    H132685   2.442   5.718  18.795
 2830TIP3    H232686   2.314   5.641  18.824
 2831TIP3   OH232687   3.223   5.661  18.793
 2831TIP3    H132688   3.215   5.610  18.873
 2831TIP3    H232689   3.315   5.653  18.768
 2832TIP3   OH232690   3.508   7.253  18.678
 2832TIP3    H132691   3.447   7.247  18.604
 2832TIP3    H232692   3.508   7.346  18.701
 2833TIP3   OH232693   4.111   6.547  18.165
 2833TIP3    H132694   4.109   6.455  18.188
 2833TIP3    H232695   4.142   6.592  18.244
 2834TIP3   OH232696   5.214   6.850  17.867
 2834TIP3    H132697   5.192   6.779  17.928
 2834TIP3    H232698   5.239   6.923  17.923
 2835TIP3   OH232699   4.186   6.973  17.973
 2835TIP3    H132700   4.169   6.884  17.943
 2835TIP3    H232701   4.278   6.973  17.998
 2836TIP3   OH232702   3.856   6.326  17.540
 2836TIP3    H132703   3.816   6.411  17.562
 2836TIP3    H232704   3.815   6.302  17.457
 2837TIP3   OH232705   3.972   6.568  17.784
 2837TIP3    H132706   3.983   6.475  17.806
 2837TIP3    H232707   3.988   6.573  17.690
 2838TIP3   OH232708   4.918   7.348  17.836
 2838TIP3    H132709   4.986   7.286  17.810
 2838TIP3    H232710   4.877   7.308  17.912
 2839TIP3   OH232711   4.682   6.829  18.052
 2839TIP3    H132712   4.738   6.832  17.974
 2839TIP3    H232713   4.744   6.832  18.125
 2840TIP3   OH232714   5.567   5.945  18.133
 2840TIP3    H132715   5.572   6.007  18.205
 2840TIP3    H232716   5.638   5.972  18.074
 2841TIP3   OH232717   5.037   6.251  18.068
 2841TIP3    H132718   5.051   6.158  18.084
 2841TIP3    H232719   5.027   6.258  17.973
 2842TIP3   OH232720   4.326   6.074  17.756
 2842TIP3    H132721   4.274   6.142  17.713
 2842TIP3    H232722   4.304   5.994  17.710
 2843TIP3   OH232723   5.136   6.076  17.648
 2843TIP3    H132724   5.180   6.046  17.728
 2843TIP3    H232725   5.205   6.118  17.598
 2844TIP3   OH232726   4.019   6.311  17.869
 2844TIP3    H132727   4.078   6.260  17.924
 2844TIP3    H232728   4.027   6.271  17.782
 2845TIP3   OH232729   5.564   6.107  18.356
 2845TIP3    H132730   5.518   6.187  18.334
 2845TIP3    H232731   5.611   6.128  18.437
 2846TIP3   OH232732   4.220   5.970  18.217
 2846TIP3    H132733   4.186   6.021  18.144
 2846TIP3    H232734   4.153   5.979  18.285
 2847TIP3   OH232735   4.460   6.726  18.188
 2847TIP3    H132736   4.404   6.795  18.224
 2847TIP3    H232737   4.530   6.773  18.143
 2848TIP3   OH232738   5.282   6.025  17.871
 2848TIP3    H132739   5.268   5.953  17.931
 2848TIP3    H232740   5.341   6.085  17.917
 2849TIP3   OH232741   4.188   6.128  17.992
 2849TIP3    H132742   4.253   6.177  18.041
 2849TIP3    H232743   4.235   6.096  17.915
 2850TIP3   OH232744   4.319   6.938  18.293
 2850TIP3    H132745   4.324   7.033  18.286
 2850TIP3    H232746   4.232   6.921  18.331
 2851TIP3   OH232747   3.916   6.898  17.397
 2851TIP3    H132748   3.876   6.955  17.331
 2851TIP3    H232749   3.934   6.956  17.471
 2852TIP3   OH232750   5.266   7.079  18.071
 2852TIP3    H132751   5.171   7.076  18.081
 2852TIP3    H232752   5.285   7.170  18.048
 2853TIP3   OH232753   5.290   5.865  18.194
 2853TIP3    H132754   5.220   5.919  18.155
 2853TIP3    H232755   5.371   5.903  18.159
 2854TIP3   OH232756   4.565   5.683  17.938
 2854TIP3    H132757   4.532   5.594  17.937
 2854TIP3    H232758   4.492   5.736  17.970
 2855TIP3   OH232759   5.127   7.213  17.727
 2855TIP3    H132760   5.151   7.127  17.693
 2855TIP3    H232761   5.196   7.272  17.696
 2856TIP3   OH232762   5.198   6.977  17.606
 2856TIP3    H132763   5.116   6.945  17.570
 2856TIP3    H232764   5.213   6.924  17.684
 2857TIP3   OH232765   5.384   6.869  18.431
 2857TIP3    H132766   5.384   6.812  18.354
 2857TIP3    H232767   5.391   6.957  18.396
 2858TIP3   OH232768   5.579   6.534  18.249
 2858TIP3    H132769   5.507   6.598  18.248
 2858TIP3    H232770   5.633   6.557  18.174
 2859TIP3   OH232771   5.171   6.559  17.498
 2859TIP3    H132772   5.133   6.629  17.552
 2859TIP3    H232773   5.243   6.525  17.551
 2860TIP3   OH232774   5.180   6.416  18.443
 2860TIP3    H132775   5.175   6.490  18.504
 2860TIP3    H232776   5.119   6.438  18.373
 2861TIP3   OH232777   4.464   6.986  17.966
 2861TIP3    H132778   4.472   6.989  17.870
 2861TIP3    H232779   4.540   6.934  17.994
 2862TIP3   OH232780   4.401   6.517  18.021
 2862TIP3    H132781   4.334   6.562  17.969
 2862TIP3    H232782   4.426   6.581  18.087
 2863TIP3   OH232783   4.998   7.071  18.128
 2863TIP3    H132784   4.989   7.144  18.188
 2863TIP3    H232785   4.953   6.998  18.172
 2864TIP3   OH232786   4.488   6.962  18.514
 2864TIP3    H132787   4.428   7.016  18.564
 2864TIP3    H232788   4.439   6.939  18.434
 2865TIP3   OH232789   4.166   6.595  18.442
 2865TIP3    H132790   4.179   6.660  18.511
 2865TIP3    H232791   4.074   6.571  18.448
 2866TIP3   OH232792   4.294   7.131  18.608
 2866TIP3    H132793   4.293   7.169  18.520
 2866TIP3    H232794   4.201   7.119  18.630
 2867TIP3   OH232795   4.202   6.542  17.504
 2867TIP3    H132796   4.175   6.604  17.437
 2867TIP3    H232797   4.182   6.456  17.467
 2868TIP3   OH232798   3.853   6.795  18.343
 2868TIP3    H132799   3.808   6.798  18.259
 2868TIP3    H232800   3.866   6.701  18.360
 2869TIP3   OH232801   3.872   7.049  18.013
 2869TIP3    H132802   3.965   7.035  18.000
 2869TIP3    H232803   3.866   7.109  18.088
 2870TIP3   OH232804   5.643   7.141  18.637
 2870TIP3    H132805   5.625   7.047  18.624
 2870TIP3    H232806   5.559   7.177  18.665
 2871TIP3   OH232807   4.735   7.076  18.482
 2871TIP3    H132808   4.740   7.158  18.531
 2871TIP3    H232809   4.646   7.044  18.498
 2872TIP3   OH232810   4.774   7.444  17.439
 2872TIP3    H132811   4.860   7.404  17.444
 2872TIP3    H232812   4.740   7.442  17.528
 2873TIP3   OH232813   4.164   7.273  17.655
 2873TIP3    H132814   4.184   7.256  17.747
 2873TIP3    H232815   4.098   7.207  17.632
 2874TIP3   OH232816   5.061   7.386  17.183
 2874TIP3    H132817   5.109   7.343  17.113
 2874TIP3    H232818   5.044   7.316  17.247
 2875TIP3   OH232819   5.023   7.316  17.480
 2875TIP3    H132820   4.997   7.291  17.569
 2875TIP3    H232821   5.106   7.271  17.465
 2876TIP3   OH232822   5.345   6.279  18.642
 2876TIP3    H132823   5.287   6.320  18.578
 2876TIP3    H232824   5.337   6.185  18.625
 2877TIP3   OH232825   4.079   6.930  18.422
 2877TIP3    H132826   4.098   6.902  18.511
 2877TIP3    H232827   3.999   6.882  18.399
 2878TIP3   OH232828   4.331   5.792  18.036
 2878TIP3    H132829   4.252   5.777  17.985
 2878TIP3    H232830   4.306   5.857  18.101
 2879TIP3   OH232831   4.822   5.692  18.357
 2879TIP3    H132832   4.860   5.682  18.445
 2879TIP3    H232833   4.728   5.703  18.373
 2880TIP3   OH232834   5.089   6.143  18.473
 2880TIP3    H132835   5.031   6.124  18.547
 2880TIP3    H232836   5.096   6.238  18.472
 2881TIP3   OH232837   4.367   6.274  18.143
 2881TIP3    H132838   4.305   6.293  18.213
 2881TIP3    H232839   4.383   6.358  18.101
 2882TIP3   OH232840   4.920   6.362  17.535
 2882TIP3    H132841   4.914   6.451  17.502
 2882TIP3    H232842   4.981   6.318  17.475
 2883TIP3   OH232843   4.809   6.335  18.651
 2883TIP3    H132844   4.757   6.262  18.686
 2883TIP3    H232845   4.887   6.338  18.706
 2884TIP3   OH232846   5.012   6.278  17.796
 2884TIP3    H132847   4.978   6.330  17.723
 2884TIP3    H232848   5.041   6.196  17.755
 2885TIP3   OH232849   4.122   6.291  18.296
 2885TIP3    H132850   4.164   6.323  18.376
 2885TIP3    H232851   4.084   6.207  18.320
 2886TIP3   OH232852   4.418   6.078  17.009
 2886TIP3    H132853   4.420   5.993  17.052
 2886TIP3    H232854   4.467   6.066  16.928
 2887TIP3   OH232855   3.734   5.985  17.750
 2887TIP3    H132856   3.807   5.985  17.811
 2887TIP3    H232857   3.775   5.974  17.664
 2888TIP3   OH232858   3.874   6.105  17.249
 2888TIP3    H132859   3.945   6.130  17.191
 2888TIP3    H232860   3.823   6.185  17.263
 2889TIP3   OH232861   4.987   6.449  18.246
 2889TIP3    H132862   5.007   6.381  18.182
 2889TIP3    H232863   4.909   6.418  18.291
 2890TIP3   OH232864   4.616   6.049  17.738
 2890TIP3    H132865   4.521   6.048  17.748
 2890TIP3    H232866   4.647   6.106  17.808
 2891TIP3   OH232867   4.080   6.183  17.636
 2891TIP3    H132868   4.004   6.217  17.588
 2891TIP3    H232869   4.097   6.098  17.596
 2892TIP3   OH232870   4.456   6.209  17.390
 2892TIP3    H132871   4.547   6.228  17.366
 2892TIP3    H232872   4.404   6.246  17.319
 2893TIP3   OH232873   5.042   5.972  18.078
 2893TIP3    H132874   4.990   5.977  18.158
 2893TIP3    H232875   4.983   5.934  18.013
 2894TIP3   OH232876   4.339   6.297  17.163
 2894TIP3    H132877   4.348   6.221  17.106
 2894TIP3    H232878   4.335   6.372  17.104
 2895TIP3   OH232879   5.315   7.546  18.703
 2895TIP3    H132880   5.337   7.561  18.611
 2895TIP3    H232881   5.399   7.550  18.749
 2896TIP3   OH232882   4.144   6.775  18.658
 2896TIP3    H132883   4.210   6.777  18.728
 2896TIP3    H232884   4.060   6.770  18.705
 2897TIP3   OH232885   4.722   6.229  17.916
 2897TIP3    H132886   4.816   6.247  17.922
 2897TIP3    H232887   4.696   6.206  18.005
 2898TIP3   OH232888   4.185   5.927  17.568
 2898TIP3    H132889   4.133   5.853  17.598
 2898TIP3    H232890   4.225   5.897  17.486
 2899TIP3   OH232891   4.619   6.164  18.169
 2899TIP3    H132892   4.535   6.209  18.162
 2899TIP3    H232893   4.666   6.213  18.237
 2900TIP3   OH232894   5.381   6.718  18.206
 2900TIP3    H132895   5.435   6.773  18.149
 2900TIP3    H232896   5.305   6.695  18.152
 2901TIP3   OH232897   4.964   6.056  17.207
 2901TIP3    H132898   4.924   6.091  17.128
 2901TIP3    H232899   5.008   6.130  17.247
 2902TIP3   OH232900   4.773   6.792  18.478
 2902TIP3    H132901   4.791   6.762  18.567
 2902TIP3    H232902   4.757   6.886  18.487
 2903TIP3   OH232903   5.118   6.244  17.346
 2903TIP3    H132904   5.185   6.214  17.407
 2903TIP3    H232905   5.164   6.306  17.289
 2904TIP3   OH232906   4.191   6.680  17.924
 2904TIP3    H132907   4.125   6.654  17.861
 2904TIP3    H232908   4.160   6.644  18.007
 2905TIP3   OH232909   3.895   6.539  18.451
 2905TIP3    H132910   3.896   6.503  18.539
 2905TIP3    H232911   3.819   6.499  18.409
 2906TIP3   OH232912   4.585   6.504  18.648
 2906TIP3    H132913   4.526   6.464  18.584
 2906TIP3    H232914   4.668   6.457  18.639
 2907TIP3   OH232915   5.016   7.045  18.481
 2907TIP3    H132916   4.923   7.059  18.463
 2907TIP3    H232917   5.028   7.078  18.570
 2908TIP3   OH232918   5.547   6.270  17.329
 2908TIP3    H132919   5.608   6.214  17.281
 2908TIP3    H232920   5.562   6.357  17.293
 2909TIP3   OH232921   5.614   6.864  18.576
 2909TIP3    H132922   5.524   6.875  18.546
 2909TIP3    H232923   5.664   6.850  18.495
 2910TIP3   OH232924   5.438   7.101  17.307
 2910TIP3    H132925   5.395   7.027  17.350
 2910TIP3    H232926   5.475   7.063  17.227
 2911TIP3   OH232927   5.168   6.620  18.056
 2911TIP3    H132928   5.104   6.576  18.112
 2911TIP3    H232929   5.202   6.551  18.000
 2912TIP3   OH232930   4.485   7.016  17.690
 2912TIP3    H132931   4.565   7.015  17.637
 2912TIP3    H232932   4.432   7.085  17.652
 2913TIP3   OH232933   4.042   6.578  17.066
 2913TIP3    H132934   4.065   6.612  17.153
 2913TIP3    H232935   3.946   6.573  17.067
 2914TIP3   OH232936   4.610   7.233  18.279
 2914TIP3    H132937   4.640   7.323  18.292
 2914TIP3    H232938   4.672   7.179  18.328
 2915TIP3   OH232939   4.413   7.282  17.547
 2915TIP3    H132940   4.321   7.284  17.575
 2915TIP3    H232941   4.455   7.351  17.597
 2916TIP3   OH232942   4.892   6.827  18.235
 2916TIP3    H132943   4.853   6.811  18.320
 2916TIP3    H232944   4.979   6.786  18.240
 2917TIP3   OH232945   5.215   7.277  18.454
 2917TIP3    H132946   5.139   7.223  18.432
 2917TIP3    H232947   5.213   7.349  18.390
 2918TIP3   OH232948   5.673   7.409  17.143
 2918TIP3    H132949   5.717   7.493  17.148
 2918TIP3    H232950   5.582   7.427  17.167
 2919TIP3   OH232951   4.039   6.030  18.422
 2919TIP3    H132952   3.970   6.075  18.470
 2919TIP3    H232953   4.047   5.945  18.465
 2920TIP3   OH232954   5.292   6.750  17.302
 2920TIP3    H132955   5.240   6.722  17.378
 2920TIP3    H232956   5.378   6.770  17.339
 2921TIP3   OH232957   4.025   7.164  18.267
 2921TIP3    H132958   4.041   7.080  18.310
 2921TIP3    H232959   4.051   7.229  18.333
 2922TIP3   OH232960   4.563   7.074  16.981
 2922TIP3    H132961   4.659   7.074  16.980
 2922TIP3    H232962   4.541   7.042  17.068
 2923TIP3   OH232963   4.473   7.006  17.232
 2923TIP3    H132964   4.530   6.979  17.304
 2923TIP3    H232965   4.454   7.098  17.249
 2924TIP3   OH232966   4.117   6.722  17.307
 2924TIP3    H132967   4.042   6.774  17.339
 2924TIP3    H232968   4.179   6.788  17.275
 2925TIP3   OH232969   4.914   5.998  18.320
 2925TIP3    H132970   4.983   6.032  18.376
 2925TIP3    H232971   4.885   5.917  18.363
 2926TIP3   OH232972   5.007   5.921  17.454
 2926TIP3    H132973   4.985   5.978  17.380
 2926TIP3    H232974   5.044   5.980  17.520
 2927TIP3   OH232975   4.744   6.135  17.508
 2927TIP3    H132976   4.794   6.212  17.531
 2927TIP3    H232977   4.691   6.116  17.586
 2928TIP3   OH232978   4.800   6.269  18.374
 2928TIP3    H132979   4.801   6.289  18.468
 2928TIP3    H232980   4.835   6.180  18.368
 2929TIP3   OH232981   4.768   5.833  17.581
 2929TIP3    H132982   4.737   5.914  17.624
 2929TIP3    H232983   4.847   5.859  17.535
 2930TIP3   OH232984   4.426   7.275  17.276
 2930TIP3    H132985   4.354   7.335  17.258
 2930TIP3    H232986   4.434   7.275  17.371
 2931TIP3   OH232987   4.361   5.950  17.292
 2931TIP3    H132988   4.377   6.038  17.326
 2931TIP3    H232989   4.449   5.916  17.273
 2932TIP3   OH232990   5.335   6.028  18.512
 2932TIP3    H132991   5.246   6.050  18.485
 2932TIP3    H232992   5.386   6.035  18.432
 2933TIP3   OH232993   5.256   6.401  17.900
 2933TIP3    H132994   5.175   6.353  17.882
 2933TIP3    H232995   5.310   6.339  17.949
 2934TIP3   OH232996   5.351   7.353  18.075
 2934TIP3    H132997   5.339   7.402  17.993
 2934TIP3    H232998   5.445   7.347  18.086
 2935TIP3   OH232999   4.075   5.749  17.945
 2935TIP3    H133000   4.065   5.739  17.850
 2935TIP3    H233001   4.044   5.666  17.982
 2936TIP3   OH233002   3.946   7.127  17.560
 2936TIP3    H133003   3.889   7.171  17.622
 2936TIP3    H233004   3.937   7.178  17.479
 2937TIP3   OH233005   3.911   7.400  18.695
 2937TIP3    H133006   3.982   7.394  18.759
 2937TIP3    H233007   3.886   7.309  18.678
 2938TIP3   OH233008   4.357   7.261  18.846
 2938TIP3    H133009   4.444   7.232  18.876
 2938TIP3    H233010   4.344   7.215  18.764
 2939TIP3   OH233011   5.024   7.135  18.741
 2939TIP3    H133012   5.000   7.054  18.784
 2939TIP3    H233013   5.096   7.170  18.794
 2940TIP3   OH233014   3.888   6.776  18.782
 2940TIP3    H133015   3.837   6.704  18.819
 2940TIP3    H233016   3.832   6.813  18.713
 2941TIP3   OH233017   4.557   6.780  18.710
 2941TIP3    H133018   4.540   6.827  18.629
 2941TIP3    H233019   4.571   6.689  18.683
 2942TIP3   OH233020   5.125   6.788  18.481
 2942TIP3    H133021   5.215   6.816  18.466
 2942TIP3    H233022   5.074   6.869  18.481
 2943TIP3   OH233023   3.998   6.458  18.722
 2943TIP3    H133024   4.053   6.382  18.738
 2943TIP3    H233025   4.009   6.513  18.799
 2944TIP3   OH233026   4.362   6.397  18.428
 2944TIP3    H133027   4.303   6.471  18.441
 2944TIP3    H233028   4.439   6.435  18.386
 2945TIP3   OH233029   4.924   6.655  18.783
 2945TIP3    H133030   5.009   6.622  18.754
 2945TIP3    H233031   4.893   6.589  18.845
 2946TIP3   OH233032   4.437   6.153  18.540
 2946TIP3    H133033   4.449   6.086  18.474
 2946TIP3    H233034   4.414   6.232  18.491
 2947TIP3   OH233035   4.474   5.972  18.322
 2947TIP3    H133036   4.528   6.020  18.259
 2947TIP3    H233037   4.386   5.973  18.284
 2948TIP3   OH233038   4.580   6.528  18.333
 2948TIP3    H133039   4.665   6.561  18.361
 2948TIP3    H233040   4.541   6.600  18.284
 2949TIP3   OH233041   5.046   6.285  18.823
 2949TIP3    H133042   5.064   6.191  18.831
 2949TIP3    H233043   5.133   6.325  18.822
 2950TIP3   OH233044   5.193   6.603  18.668
 2950TIP3    H133045   5.159   6.673  18.612
 2950TIP3    H233046   5.287   6.602  18.651
 2951TIP3   OH233047   4.272   6.214  18.763
 2951TIP3    H133048   4.197   6.155  18.754
 2951TIP3    H233049   4.323   6.199  18.683
 2952TIP3   OH233050   4.545   5.706  18.355
 2952TIP3    H133051   4.524   5.799  18.347
 2952TIP3    H233052   4.470   5.661  18.316
 2953TIP3   OH233053   4.649   6.123  18.722
 2953TIP3    H133054   4.607   6.095  18.803
 2953TIP3    H233055   4.577   6.128  18.659
 2954TIP3   OH233056   4.913   6.042  18.654
 2954TIP3    H133057   4.825   6.053  18.691
 2954TIP3    H233058   4.962   5.996  18.722
 2955TIP3   OH233059   5.099   5.933  18.836
 2955TIP3    H133060   5.095   5.838  18.828
 2955TIP3    H233061   5.078   5.951  18.928
 2956TIP3   OH233062   4.069   6.023  18.755
 2956TIP3    H133063   4.067   5.940  18.708
 2956TIP3    H233064   4.073   5.998  18.848
 2957TIP3   OH233065   4.555   5.667  18.629
 2957TIP3    H133066   4.609   5.588  18.628
 2957TIP3    H233067   4.538   5.685  18.536
 2958TIP3   OH233068   4.595   5.809  18.858
 2958TIP3    H133069   4.580   5.765  18.774
 2958TIP3    H233070   4.533   5.882  18.859
 2959TIP3   OH233071   3.776   7.499  17.644
 2959TIP3    H133072   3.725   7.454  17.577
 2959TIP3    H233073   3.786   7.434  17.714
 2960TIP3   OH233074   3.855   7.278  17.801
 2960TIP3    H133075   3.794   7.216  17.841
 2960TIP3    H233076   3.918   7.297  17.870
 2961TIP3   OH233077   5.622   7.373  18.085
 2961TIP3    H133078   5.648   7.440  18.149
 2961TIP3    H233079   5.691   7.375  18.020
 2962TIP3   OH233080   5.572   7.315  18.417
 2962TIP3    H133081   5.536   7.247  18.360
 2962TIP3    H233082   5.617   7.266  18.487
 2963TIP3   OH233083   5.416   6.907  18.853
 2963TIP3    H133084   5.332   6.915  18.896
 2963TIP3    H233085   5.471   6.974  18.893
 2964TIP3   OH233086   5.546   6.772  17.404
 2964TIP3    H133087   5.623   6.828  17.398
 2964TIP3    H233088   5.568   6.708  17.473
 2965TIP3   OH233089   5.613   6.557  17.576
 2965TIP3    H133090   5.530   6.524  17.609
 2965TIP3    H233091   5.665   6.573  17.654
 2966TIP3   OH233092   5.580   6.843  18.071
 2966TIP3    H133093   5.639   6.774  18.041
 2966TIP3    H233094   5.619   6.924  18.039
 2967TIP3   OH233095   5.402   7.114  18.314
 2967TIP3    H133096   5.336   7.169  18.357
 2967TIP3    H233097   5.369   7.100  18.226
 2968TIP3   OH233098   5.601   6.532  17.261
 2968TIP3    H133099   5.566   6.619  17.244
 2968TIP3    H233100   5.660   6.543  17.335
 2969TIP3   OH233101   5.372   6.432  17.650
 2969TIP3    H133102   5.370   6.339  17.624
 2969TIP3    H233103   5.342   6.432  17.741
 2970TIP3   OH233104   3.873   6.614  18.041
 2970TIP3    H133105   3.894   6.602  17.948
 2970TIP3    H233106   3.956   6.597  18.087
 2971TIP3   OH233107   5.463   6.603  18.609
 2971TIP3    H133108   5.519   6.528  18.592
 2971TIP3    H233109   5.511   6.677  18.571
 2972TIP3   OH233110   5.602   6.366  18.596
 2972TIP3    H133111   5.515   6.331  18.618
 2972TIP3    H233112   5.662   6.295  18.619
 2973TIP3   OH233113   5.346   6.178  17.493
 2973TIP3    H133114   5.372   6.086  17.498
 2973TIP3    H233115   5.414   6.220  17.441
 2974TIP3   OH233116   5.415   6.217  18.033
 2974TIP3    H133117   5.509   6.231  18.023
 2974TIP3    H233118   5.396   6.240  18.124
 2975TIP3   OH233119   5.406   6.322  18.293
 2975TIP3    H133120   5.331   6.358  18.340
 2975TIP3    H233121   5.465   6.396  18.281
 2976TIP3   OH233122   3.860   6.134  18.613
 2976TIP3    H133123   3.933   6.119  18.673
 2976TIP3    H233124   3.798   6.064  18.632
 2977TIP3   OH233125   5.629   5.729  18.819
 2977TIP3    H133126   5.688   5.662  18.786
 2977TIP3    H233127   5.629   5.797  18.752
 2978TIP3   OH233128   5.410   5.913  17.499
 2978TIP3    H133129   5.439   5.876  17.582
 2978TIP3    H233130   5.351   5.846  17.463
 2979TIP3   OH233131   3.927   5.983  17.972
 2979TIP3    H133132   3.971   5.898  17.968
 2979TIP3    H233133   3.999   6.046  17.976
 2980TIP3   OH233134   3.808   6.289  18.049
 2980TIP3    H133135   3.870   6.289  17.977
 2980TIP3    H233136   3.847   6.347  18.115
 2981TIP3   OH233137   5.566   5.913  18.628
 2981TIP3    H133138   5.484   5.958  18.651
 2981TIP3    H233139   5.542   5.855  18.556
 2982TIP3   OH233140   5.568   5.942  17.113
 2982TIP3    H133141   5.523   5.966  17.033
 2982TIP3    H233142   5.640   6.004  17.120
 2983TIP3   OH233143   3.817   5.951  17.482
 2983TIP3    H133144   3.766   5.880  17.443
 2983TIP3    H233145   3.848   6.002  17.407
 2984TIP3   OH233146   5.298   7.395  17.609
 2984TIP3    H133147   5.374   7.371  17.556
 2984TIP3    H233148   5.335   7.439  17.686
 2985TIP3   OH233149   3.820   5.747  18.287
 2985TIP3    H133150   3.754   5.742  18.357
 2985TIP3    H233151   3.783   5.810  18.225
 2986TIP3   OH233152   4.031   7.102  18.689
 2986TIP3    H133153   3.939   7.107  18.664
 2986TIP3    H233154   4.030   7.098  18.784
 2987TIP3   OH233155   4.343   7.209  18.343
 2987TIP3    H133156   4.314   7.297  18.316
 2987TIP3    H233157   4.437   7.209  18.327
 2988TIP3   OH233158   4.753   7.323  18.602
 2988TIP3    H133159   4.762   7.305  18.696
 2988TIP3    H233160   4.835   7.366  18.578
 2989TIP3   OH233161   4.993   7.450  18.558
 2989TIP3    H133162   5.068   7.399  18.528
 2989TIP3    H233163   5.009   7.464  18.652
 2990TIP3   OH233164   5.483   5.708  18.455
 2990TIP3    H133165   5.412   5.725  18.393
 2990TIP3    H233166   5.509   5.618  18.437
 2991TIP3   OH233167   4.044   7.506  18.351
 2991TIP3    H133168   3.965   7.536  18.306
 2991TIP3    H233169   4.020   7.504  18.444
 2992TIP3   OH233170   4.301   7.469  18.270
 2992TIP3    H133171   4.214   7.489  18.304
 2992TIP3    H233172   4.308   7.520  18.189
 2993TIP3   OH233173   4.796   7.451  18.152
 2993TIP3    H133174   4.729   7.482  18.091
 2993TIP3    H233175   4.809   7.523  18.213
 2994TIP3   OH233176   4.992   7.308  18.270
 2994TIP3    H133177   4.915   7.344  18.228
 2994TIP3    H233178   5.058   7.378  18.265
 2995TIP3   OH233179   5.215   7.488  18.269
 2995TIP3    H133180   5.195   7.577  18.240
 2995TIP3    H233181   5.259   7.447  18.195
 2996TIP3   OH233182   4.010   7.319  18.040
 2996TIP3    H133183   4.013   7.274  18.124
 2996TIP3    H233184   4.094   7.298  17.999
 2997TIP3   OH233185   4.239   7.240  17.918
 2997TIP3    H133186   4.226   7.147  17.936
 2997TIP3    H233187   4.326   7.260  17.951
 2998TIP3   OH233188   4.494   7.253  18.028
 2998TIP3    H133189   4.492   7.160  18.005
 2998TIP3    H233190   4.537   7.256  18.113
 2999TIP3   OH233191   4.851   5.860  17.906
 2999TIP3    H133192   4.756   5.868  17.910
 2999TIP3    H233193   4.867   5.798  17.835
 3000TIP3   OH233194   5.341   5.677  17.899
 3000TIP3    H133195   5.406   5.727  17.850
 3000TIP3    H233196   5.258   5.696  17.855
 3001TIP3   OH233197   5.518   5.791  17.720
 3001TIP3    H133198   5.573   5.725  17.679
 3001TIP3    H233199   5.577   5.864  17.738
 3002TIP3   OH233200   4.046   5.711  17.673
 3002TIP3    H133201   3.954   5.702  17.650
 3002TIP3    H233202   4.085   5.626  17.654
 3003TIP3   OH233203   4.527   5.722  17.659
 3003TIP3    H133204   4.608   5.759  17.625
 3003TIP3    H233205   4.539   5.720  17.754
 3004TIP3   OH233206   5.108   5.696  17.742
 3004TIP3    H133207   5.100   5.775  17.689
 3004TIP3    H233208   5.155   5.634  17.686
 3005TIP3   OH233209   5.213   5.728  17.430
 3005TIP3    H133210   5.139   5.789  17.426
 3005TIP3    H233211   5.172   5.641  17.429
 3006TIP3   OH233212   3.916   7.266  17.323
 3006TIP3    H133213   3.842   7.257  17.264
 3006TIP3    H233214   3.939   7.359  17.321
 3007TIP3   OH233215   4.126   5.841  17.104
 3007TIP3    H133216   4.179   5.862  17.027
 3007TIP3    H233217   4.174   5.879  17.177
 3008TIP3   OH233218   4.668   5.932  17.324
 3008TIP3    H133219   4.653   5.872  17.397
 3008TIP3    H233220   4.683   6.017  17.366
 3009TIP3   OH233221   5.506   7.332  17.441
 3009TIP3    H133222   5.492   7.247  17.400
 3009TIP3    H233223   5.494   7.395  17.370
 3010TIP3   OH233224   4.052   5.774  18.608
 3010TIP3    H133225   3.988   5.706  18.628
 3010TIP3    H233226   4.127   5.752  18.664
 3011TIP3   OH233227   4.238   5.700  18.800
 3011TIP3    H133228   4.326   5.667  18.785
 3011TIP3    H233229   4.191   5.626  18.838
 3012TIP3   OH233230   5.110   5.658  18.803
 3012TIP3    H133231   5.100   5.609  18.884
 3012TIP3    H233232   5.203   5.650  18.781
 3013TIP3   OH233233   5.393   7.256  18.678
 3013TIP3    H133234   5.332   7.252  18.604
 3013TIP3    H233235   5.397   7.349  18.700
 3014TIP3   OH233236   6.846   6.615  17.645
 3014TIP3    H133237   6.844   6.711  17.649
 3014TIP3    H233238   6.788   6.592  17.573
 3015TIP3   OH233239   6.755   6.564  18.016
 3015TIP3    H133240   6.772   6.524  18.101
 3015TIP3    H233241   6.696   6.503  17.971
 3016TIP3   OH233242   5.958   6.499  18.162
 3016TIP3    H133243   5.969   6.425  18.222
 3016TIP3    H233244   6.047   6.526  18.139
 3017TIP3   OH233245   7.133   6.883  17.862
 3017TIP3    H133246   7.089   6.813  17.910
 3017TIP3    H233247   7.145   6.953  17.927
 3018TIP3   OH233248   6.078   6.972  17.974
 3018TIP3    H133249   6.052   6.885  17.945
 3018TIP3    H233250   6.172   6.964  17.993
 3019TIP3   OH233251   5.742   6.307  17.524
 3019TIP3    H133252   5.723   6.398  17.549
 3019TIP3    H233253   5.670   6.284  17.465
 3020TIP3   OH233254   5.803   6.554  17.787
 3020TIP3    H133255   5.834   6.467  17.813
 3020TIP3    H233256   5.882   6.608  17.784
 3021TIP3   OH233257   6.816   7.365  17.868
 3021TIP3    H133258   6.873   7.293  17.840
 3021TIP3    H233259   6.770   7.330  17.945
 3022TIP3   OH233260   6.581   6.820  18.042
 3022TIP3    H133261   6.624   6.754  17.988
 3022TIP3    H233262   6.647   6.844  18.107
 3023TIP3   OH233263   7.434   5.964  18.097
 3023TIP3    H133264   7.457   6.028  18.165
 3023TIP3    H233265   7.468   6.003  18.017
 3024TIP3   OH233266   6.920   6.234  18.075
 3024TIP3    H133267   6.946   6.143  18.087
 3024TIP3    H233268   6.906   6.242  17.981
 3025TIP3   OH233269   6.228   6.045  17.767
 3025TIP3    H133270   6.236   6.132  17.729
 3025TIP3    H233271   6.171   5.997  17.707
 3026TIP3   OH233272   6.990   6.102  17.649
 3026TIP3    H133273   7.030   6.059  17.725
 3026TIP3    H233274   7.064   6.127  17.594
 3027TIP3   OH233275   5.893   6.303  17.873
 3027TIP3    H133276   5.956   6.259  17.930
 3027TIP3    H233277   5.914   6.272  17.785
 3028TIP3   OH233278   6.365   6.443  17.833
 3028TIP3    H133279   6.450   6.405  17.856
 3028TIP3    H233280   6.327   6.382  17.770
 3029TIP3   OH233281   7.455   6.093  18.352
 3029TIP3    H133282   7.395   6.165  18.336
 3029TIP3    H233283   7.495   6.113  18.437
 3030TIP3   OH233284   6.115   5.960  18.210
 3030TIP3    H133285   6.086   6.018  18.140
 3030TIP3    H233286   6.045   5.965  18.276
 3031TIP3   OH233287   6.822   6.882  17.552
 3031TIP3    H133288   6.806   6.894  17.458
 3031TIP3    H233289   6.790   6.963  17.592
 3032TIP3   OH233290   6.356   6.736  18.178
 3032TIP3    H133291   6.306   6.808  18.216
 3032TIP3    H233292   6.427   6.778  18.131
 3033TIP3   OH233293   7.146   6.017  17.855
 3033TIP3    H133294   7.211   5.948  17.844
 3033TIP3    H233295   7.184   6.075  17.921
 3034TIP3   OH233296   6.078   6.124  17.989
 3034TIP3    H133297   6.141   6.180  18.035
 3034TIP3    H233298   6.127   6.088  17.915
 3035TIP3   OH233299   6.213   6.939  18.295
 3035TIP3    H133300   6.213   7.034  18.287
 3035TIP3    H233301   6.127   6.918  18.332
 3036TIP3   OH233302   5.785   6.904  17.402
 3036TIP3    H133303   5.829   6.931  17.321
 3036TIP3    H233304   5.809   6.972  17.465
 3037TIP3   OH233305   7.148   7.083  18.067
 3037TIP3    H133306   7.052   7.084  18.074
 3037TIP3    H233307   7.170   7.173  18.044
 3038TIP3   OH233308   7.186   5.866  18.211
 3038TIP3    H133309   7.109   5.905  18.171
 3038TIP3    H233310   7.260   5.905  18.164
 3039TIP3   OH233311   6.465   5.648  17.955
 3039TIP3    H133312   6.432   5.559  17.958
 3039TIP3    H233313   6.391   5.703  17.982
 3040TIP3   OH233314   6.992   7.203  17.728
 3040TIP3    H133315   7.033   7.123  17.696
 3040TIP3    H233316   7.050   7.273  17.699
 3041TIP3   OH233317   7.127   6.995  17.602
 3041TIP3    H133318   7.098   6.929  17.539
 3041TIP3    H233319   7.136   6.947  17.684
 3042TIP3   OH233320   7.252   6.868  18.422
 3042TIP3    H133321   7.246   6.814  18.343
 3042TIP3    H233322   7.262   6.957  18.388
 3043TIP3   OH233323   6.727   6.554  17.403
 3043TIP3    H133324   6.662   6.621  17.384
 3043TIP3    H233325   6.796   6.568  17.338
 3044TIP3   OH233326   7.403   6.506  18.213
 3044TIP3    H133327   7.337   6.575  18.211
 3044TIP3    H233328   7.468   6.534  18.148
 3045TIP3   OH233329   7.078   6.576  17.501
 3045TIP3    H133330   7.007   6.595  17.563
 3045TIP3    H233331   7.141   6.526  17.553
 3046TIP3   OH233332   7.040   6.413  18.431
 3046TIP3    H133333   7.037   6.493  18.482
 3046TIP3    H233334   6.976   6.426  18.361
 3047TIP3   OH233335   6.220   6.638  17.676
 3047TIP3    H133336   6.189   6.601  17.594
 3047TIP3    H233337   6.277   6.571  17.713
 3048TIP3   OH233338   6.363   6.984  17.951
 3048TIP3    H133339   6.356   6.993  17.856
 3048TIP3    H233340   6.442   6.932  17.964
 3049TIP3   OH233341   6.218   6.539  18.049
 3049TIP3    H133342   6.272   6.515  17.974
 3049TIP3    H233343   6.269   6.606  18.094
 3050TIP3   OH233344   6.881   7.077  18.119
 3050TIP3    H133345   6.870   7.147  18.183
 3050TIP3    H233346   6.839   7.001  18.160
 3051TIP3   OH233347   6.374   6.970  18.521
 3051TIP3    H133348   6.311   7.024  18.569
 3051TIP3    H233349   6.328   6.946  18.440
 3052TIP3   OH233350   6.965   6.512  17.259
 3052TIP3    H133351   7.018   6.540  17.334
 3052TIP3    H233352   7.012   6.547  17.183
 3053TIP3   OH233353   6.056   6.555  18.477
 3053TIP3    H133354   6.062   6.633  18.533
 3053TIP3    H233355   5.963   6.547  18.456
 3054TIP3   OH233356   6.744   7.140  17.624
 3054TIP3    H133357   6.819   7.172  17.674
 3054TIP3    H233358   6.690   7.218  17.609
 3055TIP3   OH233359   6.171   7.133  18.613
 3055TIP3    H133360   6.167   7.166  18.523
 3055TIP3    H233361   6.079   7.116  18.635
 3056TIP3   OH233362   6.102   6.543  17.425
 3056TIP3    H133363   6.040   6.606  17.387
 3056TIP3    H233364   6.077   6.459  17.386
 3057TIP3   OH233365   5.750   6.791  18.349
 3057TIP3    H133366   5.718   6.791  18.258
 3057TIP3    H233367   5.769   6.699  18.368
 3058TIP3   OH233368   5.751   7.053  18.010
 3058TIP3    H133369   5.844   7.033  18.000
 3058TIP3    H233370   5.747   7.115  18.083
 3059TIP3   OH233371   7.536   7.149  18.613
 3059TIP3    H133372   7.527   7.054  18.605
 3059TIP3    H233373   7.452   7.178  18.648
 3060TIP3   OH233374   6.627   7.072  18.486
 3060TIP3    H133375   6.631   7.157  18.531
 3060TIP3    H233376   6.537   7.041  18.501
 3061TIP3   OH233377   6.684   7.437  17.452
 3061TIP3    H133378   6.624   7.423  17.379
 3061TIP3    H233379   6.663   7.525  17.485
 3062TIP3   OH233380   6.041   7.303  17.646
 3062TIP3    H133381   6.074   7.277  17.732
 3062TIP3    H233382   5.982   7.232  17.621
 3063TIP3   OH233383   7.034   7.387  17.173
 3063TIP3    H133384   6.963   7.364  17.114
 3063TIP3    H233385   7.007   7.351  17.258
 3064TIP3   OH233386   6.931   7.324  17.424
 3064TIP3    H133387   6.844   7.362  17.431
 3064TIP3    H233388   6.926   7.242  17.474
 3065TIP3   OH233389   7.213   6.287  18.646
 3065TIP3    H133390   7.149   6.324  18.584
 3065TIP3    H233391   7.224   6.196  18.617
 3066TIP3   OH233392   5.973   6.932  18.425
 3066TIP3    H133393   5.993   6.898  18.512
 3066TIP3    H233394   5.893   6.886  18.399
 3067TIP3   OH233395   6.226   5.773  18.033
 3067TIP3    H133396   6.146   5.764  17.981
 3067TIP3    H233397   6.206   5.843  18.095
 3068TIP3   OH233398   6.710   5.734  18.370
 3068TIP3    H133399   6.753   5.694  18.445
 3068TIP3    H233400   6.616   5.725  18.388
 3069TIP3   OH233401   6.981   6.135  18.476
 3069TIP3    H133402   6.916   6.118  18.545
 3069TIP3    H233403   6.977   6.230  18.462
 3070TIP3   OH233404   7.106   6.603  17.039
 3070TIP3    H133405   7.076   6.571  16.954
 3070TIP3    H233406   7.177   6.664  17.018
 3071TIP3   OH233407   6.240   6.280  18.149
 3071TIP3    H133408   6.175   6.278  18.220
 3071TIP3    H233409   6.240   6.371  18.119
 3072TIP3   OH233410   6.234   6.289  17.646
 3072TIP3    H133411   6.138   6.284  17.640
 3072TIP3    H233412   6.264   6.280  17.556
 3073TIP3   OH233413   6.809   6.302  17.458
 3073TIP3    H133414   6.766   6.386  17.442
 3073TIP3    H233415   6.898   6.325  17.486
 3074TIP3   OH233416   6.686   6.340  18.659
 3074TIP3    H133417   6.633   6.267  18.692
 3074TIP3    H233418   6.767   6.336  18.710
 3075TIP3   OH233419   6.866   6.297  17.808
 3075TIP3    H133420   6.846   6.373  17.753
 3075TIP3    H233421   6.895   6.230  17.746
 3076TIP3   OH233422   6.019   6.270  18.320
 3076TIP3    H133423   6.040   6.312  18.404
 3076TIP3    H233424   5.983   6.185  18.344
 3077TIP3   OH233425   5.695   5.995  17.756
 3077TIP3    H133426   5.738   6.000  17.841
 3077TIP3    H233427   5.745   6.055  17.701
 3078TIP3   OH233428   5.763   6.124  17.234
 3078TIP3    H133429   5.790   6.158  17.148
 3078TIP3    H233430   5.831   6.156  17.294
 3079TIP3   OH233431   6.828   6.421  18.246
 3079TIP3    H133432   6.865   6.356  18.187
 3079TIP3    H233433   6.761   6.374  18.295
 3080TIP3   OH233434   6.503   6.026  17.736
 3080TIP3    H133435   6.408   6.018  17.744
 3080TIP3    H233436   6.530   6.067  17.818
 3081TIP3   OH233437   5.970   6.205  17.632
 3081TIP3    H133438   5.896   6.235  17.579
 3081TIP3    H233439   5.991   6.118  17.596
 3082TIP3   OH233440   6.305   6.238  17.389
 3082TIP3    H133441   6.398   6.215  17.382
 3082TIP3    H233442   6.278   6.256  17.299
 3083TIP3   OH233443   6.943   5.957  18.098
 3083TIP3    H133444   6.873   5.964  18.164
 3083TIP3    H233445   6.902   5.913  18.024
 3084TIP3   OH233446   6.241   6.285  17.129
 3084TIP3    H133447   6.198   6.239  17.056
 3084TIP3    H233448   6.298   6.348  17.086
 3085TIP3   OH233449   7.255   7.512  18.730
 3085TIP3    H133450   7.273   7.533  18.638
 3085TIP3    H233451   7.341   7.519  18.773
 3086TIP3   OH233452   6.028   6.769  18.659
 3086TIP3    H133453   6.093   6.773  18.729
 3086TIP3    H233454   5.944   6.766  18.704
 3087TIP3   OH233455   6.601   6.312  17.925
 3087TIP3    H133456   6.690   6.288  17.898
 3087TIP3    H233457   6.585   6.259  18.003
 3088TIP3   OH233458   6.060   5.951  17.569
 3088TIP3    H133459   6.017   5.868  17.590
 3088TIP3    H233460   6.108   5.934  17.488
 3089TIP3   OH233461   6.499   6.176  18.163
 3089TIP3    H133462   6.415   6.221  18.163
 3089TIP3    H233463   6.546   6.212  18.238
 3090TIP3   OH233464   6.543   6.748  17.350
 3090TIP3    H133465   6.473   6.694  17.313
 3090TIP3    H233466   6.507   6.783  17.431
 3091TIP3   OH233467   7.236   6.721  18.191
 3091TIP3    H133468   7.298   6.770  18.138
 3091TIP3    H233469   7.160   6.709  18.134
 3092TIP3   OH233470   6.683   6.794  18.488
 3092TIP3    H133471   6.694   6.759  18.576
 3092TIP3    H233472   6.660   6.886  18.500
 3093TIP3   OH233473   6.052   6.704  17.885
 3093TIP3    H133474   6.108   6.698  17.807
 3093TIP3    H233475   6.094   6.647  17.950
 3094TIP3   OH233476   6.745   6.928  17.281
 3094TIP3    H133477   6.696   6.994  17.232
 3094TIP3    H233478   6.679   6.860  17.300
 3095TIP3   OH233479   5.779   6.530  18.446
 3095TIP3    H133480   5.756   6.484  18.526
 3095TIP3    H233481   5.709   6.508  18.385
 3096TIP3   OH233482   6.461   6.510  18.653
 3096TIP3    H133483   6.399   6.467  18.594
 3096TIP3    H233484   6.543   6.462  18.640
 3097TIP3   OH233485   6.910   7.051  18.481
 3097TIP3    H133486   6.817   7.057  18.461
 3097TIP3    H233487   6.918   7.079  18.572
 3098TIP3   OH233488   7.402   6.292  17.345
 3098TIP3    H133489   7.380   6.260  17.258
 3098TIP3    H233490   7.431   6.382  17.331
 3099TIP3   OH233491   7.481   6.878  18.570
 3099TIP3    H133492   7.390   6.894  18.545
 3099TIP3    H233493   7.524   6.850  18.489
 3100TIP3   OH233494   7.264   7.100  17.352
 3100TIP3    H133495   7.227   7.064  17.433
 3100TIP3    H233496   7.195   7.087  17.287
 3101TIP3   OH233497   7.031   6.656  18.013
 3101TIP3    H133498   6.936   6.643  18.007
 3101TIP3    H233499   7.068   6.581  17.968
 3102TIP3   OH233500   6.297   7.042  17.687
 3102TIP3    H133501   6.323   7.126  17.650
 3102TIP3    H233502   6.206   7.031  17.661
 3103TIP3   OH233503   5.894   6.552  17.208
 3103TIP3    H133504   5.941   6.555  17.124
 3103TIP3    H233505   5.808   6.517  17.186
 3104TIP3   OH233506   6.416   6.816  17.582
 3104TIP3    H133507   6.395   6.904  17.614
 3104TIP3    H233508   6.349   6.760  17.619
 3105TIP3   OH233509   6.491   7.227  18.284
 3105TIP3    H133510   6.524   7.316  18.295
 3105TIP3    H233511   6.556   7.171  18.327
 3106TIP3   OH233512   6.311   7.292  17.578
 3106TIP3    H133513   6.217   7.310  17.573
 3106TIP3    H233514   6.351   7.377  17.593
 3107TIP3   OH233515   6.784   6.837  18.234
 3107TIP3    H133516   6.748   6.817  18.321
 3107TIP3    H233517   6.860   6.780  18.226
 3108TIP3   OH233518   7.029   6.971  17.195
 3108TIP3    H133519   7.075   6.906  17.249
 3108TIP3    H233520   6.938   6.965  17.222
 3109TIP3   OH233521   7.099   7.278  18.450
 3109TIP3    H133522   7.025   7.220  18.432
 3109TIP3    H233523   7.095   7.345  18.381
 3110TIP3   OH233524   7.523   7.306  17.137
 3110TIP3    H133525   7.573   7.372  17.089
 3110TIP3    H233526   7.446   7.353  17.169
 3111TIP3   OH233527   5.920   6.011  18.411
 3111TIP3    H133528   5.845   6.056  18.452
 3111TIP3    H233529   5.925   5.928  18.457
 3112TIP3   OH233530   7.152   6.811  17.383
 3112TIP3    H133531   7.118   6.729  17.417
 3112TIP3    H233532   7.247   6.804  17.393
 3113TIP3   OH233533   5.910   7.170  18.252
 3113TIP3    H133534   5.935   7.090  18.299
 3113TIP3    H233535   5.923   7.240  18.316
 3114TIP3   OH233536   6.786   5.999  18.325
 3114TIP3    H133537   6.862   6.018  18.379
 3114TIP3    H233538   6.760   5.910  18.349
 3115TIP3   OH233539   6.852   5.946  17.456
 3115TIP3    H133540   6.923   5.907  17.405
 3115TIP3    H233541   6.897   6.004  17.519
 3116TIP3   OH233542   6.574   6.134  17.473
 3116TIP3    H133543   6.655   6.184  17.476
 3116TIP3    H233544   6.552   6.119  17.565
 3117TIP3   OH233545   6.664   6.248  18.384
 3117TIP3    H133546   6.669   6.269  18.478
 3117TIP3    H233547   6.700   6.160  18.378
 3118TIP3   OH233548   6.673   5.834  17.635
 3118TIP3    H133549   6.614   5.907  17.656
 3118TIP3    H233550   6.729   5.869  17.565
 3119TIP3   OH233551   6.219   5.931  17.343
 3119TIP3    H133552   6.211   6.011  17.292
 3119TIP3    H233553   6.313   5.913  17.346
 3120TIP3   OH233554   7.230   6.033  18.524
 3120TIP3    H133555   7.139   6.049  18.496
 3120TIP3    H233556   7.278   6.023  18.442
 3121TIP3   OH233557   7.112   6.412  17.894
 3121TIP3    H133558   7.024   6.378  17.879
 3121TIP3    H233559   7.155   6.346  17.948
 3122TIP3   OH233560   5.856   6.282  17.028
 3122TIP3    H133561   5.904   6.360  16.998
 3122TIP3    H233562   5.873   6.216  16.961
 3123TIP3   OH233563   7.250   7.343  18.064
 3123TIP3    H133564   7.241   7.405  17.992
 3123TIP3    H233565   7.345   7.334  18.076
 3124TIP3   OH233566   5.966   5.746  17.939
 3124TIP3    H133567   5.953   5.743  17.844
 3124TIP3    H233568   5.936   5.660  17.970
 3125TIP3   OH233569   5.840   7.129  17.561
 3125TIP3    H133570   5.780   7.166  17.626
 3125TIP3    H233571   5.830   7.184  17.484
 3126TIP3   OH233572   5.798   7.398  18.690
 3126TIP3    H133573   5.867   7.393  18.756
 3126TIP3    H233574   5.771   7.307  18.676
 3127TIP3   OH233575   6.241   7.268  18.844
 3127TIP3    H133576   6.328   7.237  18.869
 3127TIP3    H233577   6.220   7.221  18.764
 3128TIP3   OH233578   6.910   7.132  18.745
 3128TIP3    H133579   6.886   7.050  18.788
 3128TIP3    H233580   6.984   7.165  18.796
 3129TIP3   OH233581   5.775   6.774  18.783
 3129TIP3    H133582   5.727   6.698  18.816
 3129TIP3    H233583   5.718   6.811  18.715
 3130TIP3   OH233584   6.444   6.789  18.717
 3130TIP3    H133585   6.425   6.836  18.635
 3130TIP3    H233586   6.457   6.698  18.690
 3131TIP3   OH233587   7.002   6.774  18.487
 3131TIP3    H133588   7.090   6.808  18.469
 3131TIP3    H233589   6.945   6.850  18.480
 3132TIP3   OH233590   5.901   6.456  18.753
 3132TIP3    H133591   5.993   6.446  18.726
 3132TIP3    H233592   5.905   6.501  18.837
 3133TIP3   OH233593   6.346   6.581  17.265
 3133TIP3    H133594   6.268   6.552  17.311
 3133TIP3    H233595   6.344   6.532  17.182
 3134TIP3   OH233596   6.276   6.391  18.454
 3134TIP3    H133597   6.204   6.454  18.460
 3134TIP3    H233598   6.341   6.433  18.398
 3135TIP3   OH233599   6.399   6.466  16.995
 3135TIP3    H133600   6.340   6.446  16.922
 3135TIP3    H233601   6.478   6.498  16.953
 3136TIP3   OH233602   6.787   6.656  18.773
 3136TIP3    H133603   6.869   6.619  18.741
 3136TIP3    H233604   6.753   6.590  18.833
 3137TIP3   OH233605   6.313   6.135  18.550
 3137TIP3    H133606   6.330   6.072  18.480
 3137TIP3    H233607   6.304   6.219  18.505
 3138TIP3   OH233608   6.366   5.970  18.318
 3138TIP3    H133609   6.419   6.023  18.258
 3138TIP3    H233610   6.279   5.970  18.280
 3139TIP3   OH233611   6.467   6.531  18.322
 3139TIP3    H133612   6.554   6.563  18.349
 3139TIP3    H233613   6.429   6.604  18.273
 3140TIP3   OH233614   6.941   6.284  18.829
 3140TIP3    H133615   6.967   6.192  18.820
 3140TIP3    H233616   7.022   6.333  18.819
 3141TIP3   OH233617   7.051   6.592  18.678
 3141TIP3    H133618   7.020   6.660  18.618
 3141TIP3    H233619   7.146   6.589  18.664
 3142TIP3   OH233620   6.152   6.210  18.771
 3142TIP3    H133621   6.075   6.154  18.765
 3142TIP3    H233622   6.203   6.189  18.692
 3143TIP3   OH233623   6.431   5.703  18.359
 3143TIP3    H133624   6.409   5.795  18.345
 3143TIP3    H233625   6.359   5.655  18.319
 3144TIP3   OH233626   6.528   6.128  18.728
 3144TIP3    H133627   6.494   6.093  18.810
 3144TIP3    H233628   6.455   6.121  18.667
 3145TIP3   OH233629   6.796   6.055  18.656
 3145TIP3    H133630   6.707   6.059  18.691
 3145TIP3    H233631   6.844   6.003  18.720
 3146TIP3   OH233632   6.982   5.932  18.826
 3146TIP3    H133633   6.978   5.837  18.818
 3146TIP3    H233634   6.958   5.950  18.917
 3147TIP3   OH233635   5.952   6.011  18.761
 3147TIP3    H133636   5.960   5.933  18.706
 3147TIP3    H233637   5.960   5.978  18.851
 3148TIP3   OH233638   6.399   5.647  18.628
 3148TIP3    H133639   6.463   5.576  18.635
 3148TIP3    H233640   6.405   5.675  18.536
 3149TIP3   OH233641   6.497   5.835  18.842
 3149TIP3    H133642   6.454   5.764  18.793
 3149TIP3    H233643   6.424   5.889  18.875
 3150TIP3   OH233644   5.665   7.466  17.624
 3150TIP3    H133645   5.614   7.428  17.553
 3150TIP3    H233646   5.671   7.395  17.689
 3151TIP3   OH233647   5.730   7.257  17.798
 3151TIP3    H133648   5.684   7.187  17.843
 3151TIP3    H233649   5.801   7.282  17.858
 3152TIP3   OH233650   7.530   7.323  18.111
 3152TIP3    H133651   7.538   7.336  18.205
 3152TIP3    H233652   7.539   7.410  18.073
 3153TIP3   OH233653   7.470   7.306  18.391
 3153TIP3    H133654   7.417   7.237  18.352
 3153TIP3    H233655   7.516   7.264  18.463
 3154TIP3   OH233656   7.303   6.916  18.868
 3154TIP3    H133657   7.219   6.928  18.913
 3154TIP3    H233658   7.357   6.989  18.898
 3155TIP3   OH233659   7.419   6.757  17.438
 3155TIP3    H133660   7.491   6.816  17.460
 3155TIP3    H233661   7.439   6.677  17.486
 3156TIP3   OH233662   7.474   6.540  17.601
 3156TIP3    H133663   7.388   6.500  17.616
 3156TIP3    H233664   7.502   6.569  17.688
 3157TIP3   OH233665   7.468   6.823  18.082
 3157TIP3    H133666   7.527   6.774  18.025
 3157TIP3    H233667   7.478   6.914  18.054
 3158TIP3   OH233668   7.282   7.118  18.310
 3158TIP3    H133669   7.214   7.170  18.353
 3158TIP3    H233670   7.249   7.103  18.222
 3159TIP3   OH233671   7.318   6.244  17.092
 3159TIP3    H133672   7.271   6.311  17.042
 3159TIP3    H233673   7.271   6.163  17.073
 3160TIP3   OH233674   7.240   6.410  17.649
 3160TIP3    H133675   7.233   6.320  17.617
 3160TIP3    H233676   7.202   6.407  17.737
 3161TIP3   OH233677   5.745   6.625  18.048
 3161TIP3    H133678   5.754   6.609  17.954
 3161TIP3    H233679   5.827   6.592  18.086
 3162TIP3   OH233680   7.315   6.623  18.616
 3162TIP3    H133681   7.384   6.557  18.602
 3162TIP3    H233682   7.344   6.698  18.564
 3163TIP3   OH233683   7.463   6.393  18.631
 3163TIP3    H133684   7.372   6.364  18.638
 3163TIP3    H233685   7.515   6.313  18.642
 3164TIP3   OH233686   7.142   6.047  17.015
 3164TIP3    H133687   7.214   5.984  17.018
 3164TIP3    H233688   7.111   6.043  16.924
 3165TIP3   OH233689   7.214   6.164  17.505
 3165TIP3    H133690   7.233   6.071  17.494
 3165TIP3    H233691   7.276   6.208  17.446
 3166TIP3   OH233692   7.241   6.214  18.037
 3166TIP3    H133693   7.337   6.223  18.031
 3166TIP3    H233694   7.223   6.222  18.131
 3167TIP3   OH233695   7.266   6.290  18.312
 3167TIP3    H133696   7.187   6.326  18.352
 3167TIP3    H233697   7.313   6.366  18.278
 3168TIP3   OH233698   5.740   6.123  18.615
 3168TIP3    H133699   5.814   6.108  18.674
 3168TIP3    H233700   5.680   6.051  18.633
 3169TIP3   OH233701   7.536   5.692  18.830
 3169TIP3    H133702   7.609   5.649  18.785
 3169TIP3    H233703   7.510   5.763  18.772
 3170TIP3   OH233704   7.257   5.888  17.482
 3170TIP3    H133705   7.263   5.836  17.562
 3170TIP3    H233706   7.256   5.822  17.412
 3171TIP3   OH233707   5.829   5.981  17.998
 3171TIP3    H133708   5.871   5.895  17.991
 3171TIP3    H233709   5.902   6.043  18.003
 3172TIP3   OH233710   5.680   6.289  18.053
 3172TIP3    H133711   5.746   6.291  17.984
 3172TIP3    H233712   5.715   6.347  18.120
 3173TIP3   OH233713   7.438   5.888  18.672
 3173TIP3    H133714   7.365   5.933  18.714
 3173TIP3    H233715   7.400   5.853  18.591
 3174TIP3   OH233716   5.687   5.901  17.413
 3174TIP3    H133717   5.595   5.913  17.436
 3174TIP3    H233718   5.706   5.972  17.352
 3175TIP3   OH233719   7.161   7.397  17.639
 3175TIP3    H133720   7.221   7.377  17.567
 3175TIP3    H233721   7.216   7.437  17.706
 3176TIP3   OH233722   5.698   5.736  18.264
 3176TIP3    H133723   5.645   5.739  18.344
 3176TIP3    H233724   5.661   5.802  18.207
 3177TIP3   OH233725   5.910   7.094  18.700
 3177TIP3    H133726   5.821   7.101  18.668
 3177TIP3    H233727   5.901   7.077  18.794
 3178TIP3   OH233728   6.224   7.210  18.348
 3178TIP3    H133729   6.197   7.297  18.318
 3178TIP3    H233730   6.319   7.208  18.333
 3179TIP3   OH233731   6.647   7.322  18.600
 3179TIP3    H133732   6.656   7.303  18.694
 3179TIP3    H233733   6.729   7.365  18.577
 3180TIP3   OH233734   6.887   7.449  18.557
 3180TIP3    H133735   6.958   7.396  18.520
 3180TIP3    H233736   6.912   7.462  18.648
 3181TIP3   OH233737   7.334   5.699  18.476
 3181TIP3    H133738   7.257   5.709  18.421
 3181TIP3    H233739   7.370   5.614  18.451
 3182TIP3   OH233740   5.930   7.479  18.351
 3182TIP3    H133741   5.854   7.511  18.303
 3182TIP3    H233742   5.904   7.483  18.443
 3183TIP3   OH233743   6.192   7.472  18.273
 3183TIP3    H133744   6.102   7.482  18.304
 3183TIP3    H233745   6.194   7.518  18.190
 3184TIP3   OH233746   6.678   7.442  18.142
 3184TIP3    H133747   6.612   7.473  18.080
 3184TIP3    H233748   6.691   7.517  18.201
 3185TIP3   OH233749   6.887   7.316  18.260
 3185TIP3    H133750   6.806   7.349  18.220
 3185TIP3    H233751   6.952   7.383  18.241
 3186TIP3   OH233752   7.122   7.486  18.260
 3186TIP3    H133753   7.111   7.575  18.228
 3186TIP3    H233754   7.169   7.441  18.190
 3187TIP3   OH233755   5.903   7.314  18.015
 3187TIP3    H133756   5.901   7.272  18.101
 3187TIP3    H233757   5.987   7.287  17.977
 3188TIP3   OH233758   6.132   7.232  17.897
 3188TIP3    H133759   6.119   7.139  17.918
 3188TIP3    H233760   6.219   7.252  17.932
 3189TIP3   OH233761   6.380   7.247  18.030
 3189TIP3    H133762   6.383   7.157  18.000
 3189TIP3    H233763   6.418   7.244  18.118
 3190TIP3   OH233764   6.776   5.832  17.896
 3190TIP3    H133765   6.690   5.802  17.925
 3190TIP3    H233766   6.768   5.840  17.801
 3191TIP3   OH233767   7.192   5.629  17.867
 3191TIP3    H133768   7.245   5.707  17.851
 3191TIP3    H233769   7.178   5.591  17.781
 3192TIP3   OH233770   7.354   5.825  17.760
 3192TIP3    H133771   7.401   5.752  17.721
 3192TIP3    H233772   7.415   5.898  17.757
 3193TIP3   OH233773   5.930   5.721  17.664
 3193TIP3    H133774   5.843   5.712  17.625
 3193TIP3    H233775   5.970   5.635  17.655
 3194TIP3   OH233776   5.755   5.697  17.245
 3194TIP3    H133777   5.759   5.752  17.167
 3194TIP3    H233778   5.741   5.757  17.317
 3195TIP3   OH233779   6.400   5.681  17.665
 3195TIP3    H133780   6.436   5.754  17.615
 3195TIP3    H233781   6.425   5.699  17.756
 3196TIP3   OH233782   5.834   7.289  17.340
 3196TIP3    H133783   5.768   7.314  17.276
 3196TIP3    H233784   5.908   7.348  17.324
 3197TIP3   OH233785   6.497   5.892  17.358
 3197TIP3    H133786   6.580   5.845  17.349
 3197TIP3    H233787   6.522   5.979  17.388
 3198TIP3   OH233788   7.361   7.345  17.453
 3198TIP3    H133789   7.346   7.255  17.424
 3198TIP3    H233790   7.351   7.399  17.375
 3199TIP3   OH233791   5.916   5.767  18.580
 3199TIP3    H133792   5.855   5.702  18.613
 3199TIP3    H233793   5.999   5.747  18.624
 3200TIP3   OH233794   6.141   5.706  18.714
 3200TIP3    H133795   6.228   5.689  18.677
 3200TIP3    H233796   6.152   5.690  18.808
 3201TIP3   OH233797   7.002   5.656  18.801
 3201TIP3    H133798   6.986   5.611  18.884
 3201TIP3    H233799   7.092   5.635  18.779
 3202TIP3   OH233800   7.277   7.240  18.672
 3202TIP3    H133801   7.215   7.237  18.598
 3202TIP3    H233802   7.274   7.331  18.701
 3203TIP3   OH233803   7.592   6.292  17.553
 3203TIP3    H133804   7.552   6.377  17.573
 3203TIP3    H233805   7.536   6.256  17.483
 3204TIP3   OH233806   7.566   6.768  18.337
 3204TIP3    H133807   7.529   6.787  18.251
 3204TIP3    H233808   7.566   6.672  18.342
 3205TIP3   OH233809   7.546   7.074  17.996
 3205TIP3    H133810   7.641   7.065  17.990
 3205TIP3    H233811   7.532   7.157  18.042
 3206TIP3   OH233812   7.541   6.018  17.721
 3206TIP3    H133813   7.597   6.096  17.726
 3206TIP3    H233814   7.554   5.986  17.632
 3207TIP3   OH233815   7.591   6.495  18.413
 3207TIP3    H133816   7.555   6.460  18.494
 3207TIP3    H233817   7.527   6.473  18.346
 3208TIP3   OH233818   7.624   6.722  18.746
 3208TIP3    H133819   7.558   6.665  18.787
 3208TIP3    H233820   7.573   6.781  18.690
 3209TIP3   OH233821   7.467   7.517  17.647
 3209TIP3    H133822   7.429   7.470  17.573
 3209TIP3    H233823   7.485   7.449  17.712
 3210TIP3   OH233824   7.536   7.296  17.796
 3210TIP3    H133825   7.504   7.219  17.842
 3210TIP3    H233826   7.630   7.282  17.788
 3211TIP3   OH233827   7.607   6.558  18.039
 3211TIP3    H133828   7.637   6.525  17.954
 3211TIP3    H233829   7.678   6.614  18.069
 3212TIP3   OH233830   7.552   6.137  18.618
 3212TIP3    H133831   7.646   6.120  18.616
 3212TIP3    H233832   7.513   6.055  18.646
 3213TIP3   OH233833   7.510   6.261  18.059
 3213TIP3    H133834   7.605   6.249  18.058
 3213TIP3    H233835   7.498   6.353  18.084
 3214TIP3   OH233836   7.533   5.914  17.440
 3214TIP3    H133837   7.439   5.923  17.456
 3214TIP3    H233838   7.539   5.857  17.364
 3215TIP3   OH233839   7.497   5.737  18.242
 3215TIP3    H133840   7.440   5.752  18.318
 3215TIP3    H233841   7.472   5.805  18.179
 3216TIP3   OH233842   0.811   7.529  17.977
 3216TIP3    H133843   0.799   7.491  17.891
 3216TIP3    H233844   0.722   7.540  18.011
 3217TIP3   OH233845   1.708   7.489  17.238
 3217TIP3    H133846   1.671   7.483  17.150
 3217TIP3    H233847   1.714   7.583  17.255
 3218TIP3   OH233848   0.558   7.620  18.041
 3218TIP3    H133849   0.471   7.611  18.002
 3218TIP3    H233850   0.578   7.713  18.035
 3219TIP3   OH233851   1.069   7.573  18.371
 3219TIP3    H133852   1.130   7.536  18.435
 3219TIP3    H233853   0.986   7.528  18.389
 3220TIP3   OH233854   0.296   7.613  17.957
 3220TIP3    H133855   0.282   7.602  17.863
 3220TIP3    H233856   0.274   7.527  17.994
 3221TIP3   OH233857   0.800   7.501  18.336
 3221TIP3    H133858   0.799   7.596  18.325
 3221TIP3    H233859   0.714   7.472  18.304
 3222TIP3   OH233860   0.739   7.465  18.604
 3222TIP3    H133861   0.810   7.409  18.635
 3222TIP3    H233862   0.747   7.464  18.509
 3223TIP3   OH233863   1.801   7.530  18.776
 3223TIP3    H133864   1.877   7.484  18.740
 3223TIP3    H233865   1.837   7.613  18.808
 3224TIP3   OH233866   0.058   7.602  18.260
 3224TIP3    H133867  -0.020   7.645  18.293
 3224TIP3    H233868   0.088   7.658  18.189
 3225TIP3   OH233869   1.659   7.543  18.447
 3225TIP3    H133870   1.589   7.525  18.384
 3225TIP3    H233871   1.713   7.463  18.446
 3226TIP3   OH233872   1.538   7.527  17.875
 3226TIP3    H133873   1.550   7.620  17.890
 3226TIP3    H233874   1.445   7.518  17.852
 3227TIP3   OH233875   0.265   7.555  17.689
 3227TIP3    H133876   0.187   7.548  17.635
 3227TIP3    H233877   0.322   7.484  17.659
 3228TIP3   OH233878   0.200   7.521  17.283
 3228TIP3    H133879   0.201   7.612  17.255
 3228TIP3    H233880   0.140   7.520  17.358
 3229TIP3   OH233881   0.741   7.523  17.695
 3229TIP3    H133882   0.817   7.547  17.641
 3229TIP3    H233883   0.689   7.603  17.698
 3230TIP3   OH233884   1.266   7.506  17.824
 3230TIP3    H133885   1.216   7.539  17.749
 3230TIP3    H233886   1.203   7.510  17.897
 3231TIP3   OH233887   1.361   7.555  17.332
 3231TIP3    H133888   1.310   7.548  17.252
 3231TIP3    H233889   1.326   7.485  17.388
 3232TIP3   OH233890   0.470   7.506  18.712
 3232TIP3    H133891   0.552   7.463  18.687
 3232TIP3    H233892   0.430   7.446  18.775
 3233TIP3   OH233893   1.311   7.449  18.816
 3233TIP3    H133894   1.327   7.412  18.903
 3233TIP3    H233895   1.398   7.471  18.783
 3234TIP3   OH233896   2.707   7.522  17.991
 3234TIP3    H133897   2.701   7.462  17.916
 3234TIP3    H233898   2.617   7.537  18.018
 3235TIP3   OH233899   3.552   7.505  17.279
 3235TIP3    H133900   3.458   7.494  17.292
 3235TIP3    H233901   3.562   7.598  17.261
 3236TIP3   OH233902   2.451   7.612  18.042
 3236TIP3    H133903   2.363   7.598  18.006
 3236TIP3    H233904   2.466   7.706  18.033
 3237TIP3   OH233905   2.954   7.580  18.383
 3237TIP3    H133906   3.016   7.544  18.446
 3237TIP3    H233907   2.873   7.530  18.397
 3238TIP3   OH233908   2.198   7.576  17.948
 3238TIP3    H133909   2.181   7.562  17.854
 3238TIP3    H233910   2.166   7.496  17.990
 3239TIP3   OH233911   2.686   7.496  18.352
 3239TIP3    H133912   2.690   7.589  18.331
 3239TIP3    H233913   2.599   7.468  18.323
 3240TIP3   OH233914   2.625   7.473  18.618
 3240TIP3    H133915   2.694   7.417  18.654
 3240TIP3    H233916   2.639   7.470  18.523
 3241TIP3   OH233917   3.687   7.533  18.786
 3241TIP3    H133918   3.762   7.487  18.748
 3241TIP3    H233919   3.723   7.616  18.817
 3242TIP3   OH233920   1.922   7.571  18.264
 3242TIP3    H133921   1.859   7.557  18.335
 3242TIP3    H233922   1.936   7.666  18.264
 3243TIP3   OH233923   3.544   7.544  18.443
 3243TIP3    H133924   3.472   7.524  18.384
 3243TIP3    H233925   3.598   7.465  18.444
 3244TIP3   OH233926   3.435   7.536  17.879
 3244TIP3    H133927   3.464   7.626  17.895
 3244TIP3    H233928   3.344   7.545  17.850
 3245TIP3   OH233929   2.159   7.539  17.679
 3245TIP3    H133930   2.070   7.519  17.649
 3245TIP3    H233931   2.210   7.461  17.654
 3246TIP3   OH233932   2.621   7.506  17.709
 3246TIP3    H133933   2.670   7.583  17.678
 3246TIP3    H233934   2.536   7.541  17.735
 3247TIP3   OH233935   3.183   7.553  17.762
 3247TIP3    H133936   3.220   7.506  17.687
 3247TIP3    H233937   3.116   7.494  17.796
 3248TIP3   OH233938   3.276   7.563  17.334
 3248TIP3    H133939   3.221   7.566  17.256
 3248TIP3    H233940   3.245   7.486  17.382
 3249TIP3   OH233941   2.360   7.530  18.698
 3249TIP3    H133942   2.447   7.495  18.678
 3249TIP3    H233943   2.324   7.470  18.763
 3250TIP3   OH233944   3.195   7.453  18.820
 3250TIP3    H133945   3.203   7.421  18.910
 3250TIP3    H233946   3.285   7.469  18.791
 3251TIP3   OH233947   4.580   7.527  17.998
 3251TIP3    H133948   4.570   7.438  17.964
 3251TIP3    H233949   4.492   7.553  18.024
 3252TIP3   OH233950   5.444   7.522  17.253
 3252TIP3    H133951   5.352   7.533  17.277
 3252TIP3    H233952   5.482   7.609  17.260
 3253TIP3   OH233953   4.332   7.629  18.050
 3253TIP3    H133954   4.245   7.610  18.014
 3253TIP3    H233955   4.345   7.722  18.033
 3254TIP3   OH233956   4.828   7.592  18.391
 3254TIP3    H133957   4.894   7.553  18.449
 3254TIP3    H233958   4.749   7.541  18.408
 3255TIP3   OH233959   4.084   7.572  17.955
 3255TIP3    H133960   4.070   7.553  17.862
 3255TIP3    H233961   4.044   7.498  18.001
 3256TIP3   OH233962   4.561   7.506  18.353
 3256TIP3    H133963   4.561   7.600  18.340
 3256TIP3    H233964   4.474   7.477  18.323
 3257TIP3   OH233965   4.507   7.464  18.617
 3257TIP3    H133966   4.576   7.407  18.652
 3257TIP3    H233967   4.522   7.465  18.523
 3258TIP3   OH233968   5.574   7.534  18.778
 3258TIP3    H133969   5.648   7.487  18.740
 3258TIP3    H233970   5.611   7.617  18.809
 3259TIP3   OH233971   3.795   7.592  18.263
 3259TIP3    H133972   3.725   7.587  18.329
 3259TIP3    H233973   3.815   7.685  18.257
 3260TIP3   OH233974   5.429   7.544  18.442
 3260TIP3    H133975   5.357   7.526  18.382
 3260TIP3    H233976   5.481   7.464  18.443
 3261TIP3   OH233977   5.323   7.516  17.859
 3261TIP3    H133978   5.356   7.604  17.880
 3261TIP3    H233979   5.231   7.530  17.836
 3262TIP3   OH233980   4.047   7.519  17.688
 3262TIP3    H133981   3.957   7.507  17.659
 3262TIP3    H233982   4.092   7.439  17.661
 3263TIP3   OH233983   3.941   7.540  17.299
 3263TIP3    H133984   3.979   7.597  17.232
 3263TIP3    H233985   3.856   7.578  17.318
 3264TIP3   OH233986   4.483   7.492  17.702
 3264TIP3    H133987   4.515   7.577  17.672
 3264TIP3    H233988   4.425   7.513  17.775
 3265TIP3   OH233989   5.067   7.567  17.770
 3265TIP3    H133990   5.085   7.540  17.680
 3265TIP3    H233991   5.006   7.502  17.803
 3266TIP3   OH233992   5.187   7.560  17.356
 3266TIP3    H133993   5.133   7.516  17.290
 3266TIP3    H233994   5.183   7.502  17.432
 3267TIP3   OH233995   4.244   7.518  18.700
 3267TIP3    H133996   4.329   7.481  18.679
 3267TIP3    H233997   4.205   7.457  18.761
 3268TIP3   OH233998   5.078   7.455  18.812
 3268TIP3    H133999   5.086   7.423  18.902
 3268TIP3    H234000   5.169   7.470  18.785
 3269TIP3   OH234001   6.454   7.516  17.992
 3269TIP3    H134002   6.440   7.422  17.980
 3269TIP3    H234003   6.369   7.550  18.018
 3270TIP3   OH234004   7.312   7.474  17.220
 3270TIP3    H134005   7.223   7.457  17.188
 3270TIP3    H234006   7.316   7.569  17.229
 3271TIP3   OH234007   6.211   7.626  18.049
 3271TIP3    H134008   6.130   7.603  18.004
 3271TIP3    H234009   6.222   7.719  18.033
 3272TIP3   OH234010   6.721   7.583  18.383
 3272TIP3    H134011   6.786   7.545  18.442
 3272TIP3    H234012   6.641   7.533  18.400
 3273TIP3   OH234013   5.974   7.565  17.933
 3273TIP3    H134014   5.956   7.558  17.839
 3273TIP3    H234015   5.939   7.484  17.970
 3274TIP3   OH234016   6.452   7.504  18.354
 3274TIP3    H134017   6.451   7.598  18.342
 3274TIP3    H234018   6.366   7.475  18.324
 3275TIP3   OH234019   6.405   7.473  18.622
 3275TIP3    H134020   6.473   7.414  18.655
 3275TIP3    H234021   6.415   7.471  18.527
 3276TIP3   OH234022   7.531   7.513  18.800
 3276TIP3    H134023   7.609   7.485  18.751
 3276TIP3    H234024   7.549   7.603  18.825
 3277TIP3   OH234025   5.688   7.578  18.261
 3277TIP3    H134026   5.614   7.567  18.322
 3277TIP3    H234027   5.705   7.672  18.261
 3278TIP3   OH234028   7.320   7.527  18.456
 3278TIP3    H134029   7.245   7.509  18.399
 3278TIP3    H234030   7.377   7.451  18.446
 3279TIP3   OH234031   7.214   7.538  17.877
 3279TIP3    H134032   7.257   7.623  17.879
 3279TIP3    H234033   7.125   7.556  17.846
 3280TIP3   OH234034   5.920   7.549  17.665
 3280TIP3    H134035   5.830   7.526  17.641
 3280TIP3    H234036   5.971   7.471  17.641
 3281TIP3   OH234037   6.370   7.549  17.658
 3281TIP3    H134038   6.398   7.635  17.625
 3281TIP3    H234039   6.360   7.562  17.752
 3282TIP3   OH234040   6.964   7.565  17.754
 3282TIP3    H134041   7.005   7.513  17.685
 3282TIP3    H234042   6.899   7.506  17.792
 3283TIP3   OH234043   7.030   7.587  17.379
 3283TIP3    H134044   7.035   7.560  17.288
 3283TIP3    H234045   7.014   7.506  17.428
 3284TIP3   OH234046   6.134   7.529  18.700
 3284TIP3    H134047   6.217   7.485  18.682
 3284TIP3    H234048   6.088   7.471  18.760
 3285TIP3   OH234049   6.990   7.457  18.805
 3285TIP3    H134050   6.983   7.422  18.894
 3285TIP3    H234051   7.085   7.462  18.789
 3286TIP3   OH234052   7.427   7.579  18.183
 3286TIP3    H134053   7.415   7.559  18.276
 3286TIP3    H234054   7.462   7.669  18.183
 3287TIP3   OH234055   1.234   0.991  19.524
 3287TIP3    H134056   1.197   1.078  19.506
 3287TIP3    H234057   1.166   0.946  19.572
 3288TIP3   OH234058   0.993   0.984  19.955
 3288TIP3    H134059   1.060   0.945  20.013
 3288TIP3    H234060   1.000   0.934  19.874
 3289TIP3   OH234061   1.415   1.209  19.705
 3289TIP3    H134062   1.377   1.130  19.744
 3289TIP3    H234063   1.466   1.248  19.776
 3290TIP3   OH234064   0.418   1.322  19.846
 3290TIP3    H134065   0.400   1.233  19.817
 3290TIP3    H234066   0.512   1.323  19.862
 3291TIP3   OH234067   0.115   0.632  19.362
 3291TIP3    H134068   0.137   0.723  19.381
 3291TIP3    H234069   0.028   0.619  19.399
 3292TIP3   OH234070   0.123   0.909  19.677
 3292TIP3    H134071   0.163   0.823  19.691
 3292TIP3    H234072   0.182   0.952  19.615
 3293TIP3   OH234073   1.164   1.738  19.772
 3293TIP3    H134074   1.208   1.676  19.714
 3293TIP3    H234075   1.100   1.684  19.819
 3294TIP3   OH234076   0.941   1.254  19.953
 3294TIP3    H134077   0.950   1.163  19.924
 3294TIP3    H234078   0.983   1.255  20.039
 3295TIP3   OH234079   1.212   0.570  19.922
 3295TIP3    H134080   1.269   0.628  19.973
 3295TIP3    H234081   1.164   0.630  19.865
 3296TIP3   OH234082   0.597   0.396  19.678
 3296TIP3    H134083   0.605   0.483  19.641
 3296TIP3    H234084   0.558   0.343  19.609
 3297TIP3   OH234085   1.356   0.367  19.501
 3297TIP3    H134086   1.426   0.357  19.566
 3297TIP3    H234087   1.336   0.461  19.502
 3298TIP3   OH234088   0.244   0.667  19.717
 3298TIP3    H134089   0.311   0.627  19.772
 3298TIP3    H234090   0.240   0.612  19.639
 3299TIP3   OH234091   0.702   0.794  19.707
 3299TIP3    H134092   0.796   0.780  19.712
 3299TIP3    H234093   0.670   0.726  19.648
 3300TIP3   OH234094   1.146   1.242  19.415
 3300TIP3    H134095   1.145   1.247  19.319
 3300TIP3    H234096   1.114   1.328  19.443
 3301TIP3   OH234097   1.501   0.348  19.734
 3301TIP3    H134098   1.438   0.350  19.806
 3301TIP3    H234099   1.563   0.417  19.756
 3302TIP3   OH234100   0.425   0.519  19.860
 3302TIP3    H134101   0.490   0.567  19.912
 3302TIP3    H234102   0.477   0.462  19.804
 3303TIP3   OH234103   0.114   1.232  19.267
 3303TIP3    H134104   0.113   1.269  19.178
 3303TIP3    H234105   0.148   1.303  19.322
 3304TIP3   OH234106   1.545   1.350  19.907
 3304TIP3    H134107   1.502   1.319  19.987
 3304TIP3    H234108   1.545   1.445  19.915
 3305TIP3   OH234109   0.823   0.085  19.775
 3305TIP3    H134110   0.848  -0.001  19.810
 3305TIP3    H234111   0.753   0.114  19.833
 3306TIP3   OH234112   1.307   1.586  19.590
 3306TIP3    H134113   1.345   1.502  19.565
 3306TIP3    H234114   1.381   1.647  19.586
 3307TIP3   OH234115   1.424   1.364  19.483
 3307TIP3    H134116   1.409   1.305  19.409
 3307TIP3    H234117   1.424   1.307  19.559
 3308TIP3   OH234118   1.045   0.901  19.284
 3308TIP3    H134119   1.000   0.985  19.291
 3308TIP3    H234120   1.131   0.924  19.247
 3309TIP3   OH234121   1.087   0.811  18.966
 3309TIP3    H134122   1.127   0.840  19.048
 3309TIP3    H234123   1.144   0.741  18.935
 3310TIP3   OH234124   1.446   0.929  19.369
 3310TIP3    H134125   1.377   0.948  19.433
 3310TIP3    H234126   1.509   0.875  19.417
 3311TIP3   OH234127   0.564   0.991  19.564
 3311TIP3    H134128   0.528   0.949  19.486
 3311TIP3    H234129   0.617   0.923  19.606
 3312TIP3   OH234130   0.708   1.358  19.833
 3312TIP3    H134131   0.716   1.349  19.738
 3312TIP3    H234132   0.784   1.311  19.867
 3313TIP3   OH234133   0.552   0.885  19.919
 3313TIP3    H134134   0.601   0.851  19.844
 3313TIP3    H234135   0.613   0.882  19.992
 3314TIP3   OH234136   1.288   0.904  19.149
 3314TIP3    H134137   1.343   0.915  19.227
 3314TIP3    H234138   1.342   0.937  19.077
 3315TIP3   OH234139   1.070   1.514  19.469
 3315TIP3    H134140   1.147   1.541  19.519
 3315TIP3    H234141   1.042   1.594  19.424
 3316TIP3   OH234142   1.695   0.076  19.141
 3316TIP3    H134143   1.615   0.115  19.176
 3316TIP3    H234144   1.743   0.150  19.104
 3317TIP3   OH234145   0.445   0.892  19.334
 3317TIP3    H134146   0.416   0.965  19.280
 3317TIP3    H234147   0.436   0.815  19.278
 3318TIP3   OH234148   1.787   1.449  19.002
 3318TIP3    H134149   1.806   1.542  19.004
 3318TIP3    H234150   1.874   1.407  19.002
 3319TIP3   OH234151   0.155   1.440  19.880
 3319TIP3    H134152   0.223   1.375  19.862
 3319TIP3    H234153   0.195   1.500  19.943
 3320TIP3   OH234154   1.046   1.777  19.345
 3320TIP3    H134155   1.034   1.785  19.250
 3320TIP3    H234156   1.012   1.859  19.381
 3321TIP3   OH234157   0.389   1.663  19.520
 3321TIP3    H134158   0.405   1.634  19.610
 3321TIP3    H234159   0.327   1.600  19.485
 3322TIP3   OH234160   1.334   1.732  19.034
 3322TIP3    H134161   1.385   1.662  18.992
 3322TIP3    H234162   1.345   1.718  19.128
 3323TIP3   OH234163   1.313   1.714  19.310
 3323TIP3    H134164   1.221   1.728  19.332
 3323TIP3    H234165   1.343   1.645  19.369
 3324TIP3   OH234166   0.612   0.172  19.926
 3324TIP3    H134167   0.524   0.182  19.891
 3324TIP3    H234168   0.640   0.261  19.947
 3325TIP3   OH234169   1.455   0.970  18.947
 3325TIP3    H134170   1.434   0.969  18.854
 3325TIP3    H234171   1.550   0.977  18.950
 3326TIP3   OH234172   0.973   0.353  18.989
 3326TIP3    H134173   0.928   0.341  19.073
 3326TIP3    H234174   0.955   0.273  18.940
 3327TIP3   OH234175   0.585   0.624  19.530
 3327TIP3    H134176   0.491   0.608  19.521
 3327TIP3    H234177   0.620   0.609  19.442
 3328TIP3   OH234178   1.145   0.650  19.361
 3328TIP3    H134179   1.112   0.739  19.353
 3328TIP3    H234180   1.224   0.648  19.307
 3329TIP3   OH234181   1.314   0.606  19.638
 3329TIP3    H134182   1.241   0.667  19.625
 3329TIP3    H234183   1.281   0.542  19.702
 3330TIP3   OH234184   0.657   0.358  18.870
 3330TIP3    H134185   0.626   0.361  18.960
 3330TIP3    H234186   0.583   0.389  18.817
 3331TIP3   OH234187   0.072   0.426  19.633
 3331TIP3    H134188   0.101   0.397  19.719
 3331TIP3    H234189   0.125   0.375  19.572
 3332TIP3   OH234190   0.155   0.441  19.170
 3332TIP3    H134191   0.182   0.484  19.089
 3332TIP3    H234192   0.129   0.512  19.228
 3333TIP3   OH234193   0.879   0.383  19.618
 3333TIP3    H134194   0.791   0.396  19.653
 3333TIP3    H234195   0.936   0.380  19.694
 3334TIP3   OH234196   0.334   0.523  19.489
 3334TIP3    H134197   0.260   0.539  19.430
 3334TIP3    H234198   0.374   0.442  19.456
 3335TIP3   OH234199   0.667   0.572  19.274
 3335TIP3    H134200   0.760   0.563  19.292
 3335TIP3    H234201   0.662   0.618  19.190
 3336TIP3   OH234202   1.291   0.307  19.914
 3336TIP3    H134203   1.266   0.397  19.936
 3336TIP3    H234204   1.208   0.263  19.893
 3337TIP3   OH234205   0.592   0.694  19.030
 3337TIP3    H134206   0.532   0.672  18.960
 3337TIP3    H234207   0.669   0.730  18.985
 3338TIP3   OH234208   0.889   0.564  19.868
 3338TIP3    H134209   0.934   0.635  19.821
 3338TIP3    H234210   0.958   0.522  19.920
 3339TIP3   OH234211   0.484   0.292  19.444
 3339TIP3    H134212   0.421   0.228  19.478
 3339TIP3    H234213   0.556   0.239  19.411
 3340TIP3   OH234214   0.868   1.137  19.238
 3340TIP3    H134215   0.803   1.079  19.199
 3340TIP3    H234216   0.838   1.151  19.327
 3341TIP3   OH234217   1.229   0.402  19.092
 3341TIP3    H134218   1.143   0.422  19.057
 3341TIP3    H234219   1.264   0.487  19.120
 3342TIP3   OH234220   1.364   0.621  19.192
 3342TIP3    H134221   1.443   0.596  19.240
 3342TIP3    H234222   1.384   0.709  19.158
 3343TIP3   OH234223   0.399   1.059  19.770
 3343TIP3    H134224   0.448   1.047  19.689
 3343TIP3    H234225   0.439   0.998  19.832
 3344TIP3   OH234226   1.088   1.261  19.137
 3344TIP3    H134227   1.058   1.351  19.144
 3344TIP3    H234228   1.015   1.208  19.167
 3345TIP3   OH234229   1.794   0.638  19.166
 3345TIP3    H134230   1.744   0.629  19.084
 3345TIP3    H234231   1.833   0.725  19.161
 3346TIP3   OH234232   1.628   1.473  19.233
 3346TIP3    H134233   1.583   1.393  19.262
 3346TIP3    H234234   1.672   1.448  19.152
 3347TIP3   OH234235   1.321   0.979  19.843
 3347TIP3    H134236   1.247   0.934  19.804
 3347TIP3    H234237   1.396   0.922  19.828
 3348TIP3   OH234238   0.622   1.415  19.553
 3348TIP3    H134239   0.656   1.496  19.516
 3348TIP3    H234240   0.536   1.404  19.512
 3349TIP3   OH234241   0.229   0.890  19.032
 3349TIP3    H134242   0.283   0.957  19.074
 3349TIP3    H234243   0.140   0.907  19.065
 3350TIP3   OH234244   0.745   1.181  19.474
 3350TIP3    H134245   0.712   1.265  19.506
 3350TIP3    H234246   0.686   1.116  19.513
 3351TIP3   OH234247   0.650   1.668  19.433
 3351TIP3    H134248   0.557   1.680  19.452
 3351TIP3    H234249   0.692   1.746  19.468
 3352TIP3   OH234250   1.422   1.296  19.019
 3352TIP3    H134251   1.447   1.251  19.099
 3352TIP3    H234252   1.331   1.273  19.004
 3353TIP3   OH234253   1.848   1.718  19.037
 3353TIP3    H134254   1.903   1.784  18.994
 3353TIP3    H234255   1.777   1.768  19.077
 3354TIP3   OH234256   1.515   1.174  19.249
 3354TIP3    H134257   1.479   1.095  19.291
 3354TIP3    H234258   1.609   1.156  19.242
 3355TIP3   OH234259   0.808   1.414  18.856
 3355TIP3    H134260   0.817   1.334  18.805
 3355TIP3    H234261   0.769   1.386  18.939
 3356TIP3   OH234262   0.698   1.343  19.104
 3356TIP3    H134263   0.757   1.288  19.156
 3356TIP3    H234264   0.711   1.431  19.139
 3357TIP3   OH234265   0.342   1.095  19.176
 3357TIP3    H134266   0.268   1.138  19.219
 3357TIP3    H234267   0.387   1.166  19.131
 3358TIP3   OH234268   1.201   0.249  19.314
 3358TIP3    H134269   1.203   0.302  19.234
 3358TIP3    H234270   1.254   0.299  19.377
 3359TIP3   OH234271   0.985   1.509  19.152
 3359TIP3    H134272   0.895   1.538  19.167
 3359TIP3    H234273   1.033   1.590  19.133
 3360TIP3   OH234274   0.918   0.505  19.372
 3360TIP3    H134275   0.999   0.556  19.369
 3360TIP3    H234276   0.910   0.478  19.463
 3361TIP3   OH234277   0.973   0.178  19.444
 3361TIP3    H134278   0.962   0.249  19.507
 3361TIP3    H234279   1.060   0.193  19.406
 3362TIP3   OH234280   0.728   1.605  19.178
 3362TIP3    H134281   0.733   1.689  19.133
 3362TIP3    H234282   0.700   1.627  19.267
 3363TIP3   OH234283   0.580   0.332  19.134
 3363TIP3    H134284   0.566   0.410  19.188
 3363TIP3    H234285   0.666   0.300  19.160
 3364TIP3   OH234286   1.490   0.768  19.767
 3364TIP3    H134287   1.422   0.717  19.724
 3364TIP3    H234288   1.546   0.702  19.810
 3365TIP3   OH234289   0.435   1.313  19.022
 3365TIP3    H134290   0.515   1.346  19.061
 3365TIP3    H234291   0.464   1.258  18.949
 3366TIP3   OH234292   0.213   0.619  18.969
 3366TIP3    H134293   0.232   0.706  19.002
 3366TIP3    H234294   0.166   0.634  18.887
 3367TIP3   OH234295   1.594   1.698  19.938
 3367TIP3    H134296   1.574   1.775  19.885
 3367TIP3    H234297   1.681   1.716  19.974
 3368TIP3   OH234298   0.361   0.164  19.822
 3368TIP3    H134299   0.341   0.177  19.730
 3368TIP3    H234300   0.333   0.074  19.840
 3369TIP3   OH234301   0.200   1.473  19.403
 3369TIP3    H134302   0.116   1.496  19.441
 3369TIP3    H234303   0.209   1.530  19.326
 3370TIP3   OH234304   1.011   1.606  18.854
 3370TIP3    H134305   0.947   1.535  18.865
 3370TIP3    H234306   1.090   1.562  18.823
 3371TIP3   OH234307   1.467   1.540  18.892
 3371TIP3    H134308   1.471   1.456  18.939
 3371TIP3    H234309   1.541   1.537  18.831
 3372TIP3   OH234310   0.569   1.124  18.872
 3372TIP3    H134311   0.597   1.083  18.954
 3372TIP3    H234312   0.649   1.132  18.821
 3373TIP3   OH234313   1.147   1.272  18.869
 3373TIP3    H134314   1.116   1.264  18.959
 3373TIP3    H234315   1.139   1.184  18.833
 3374TIP3   OH234316   0.681   0.981  19.102
 3374TIP3    H134317   0.635   0.915  19.153
 3374TIP3    H234318   0.736   0.930  19.041
 3375TIP3   OH234319   0.811   0.821  18.920
 3375TIP3    H134320   0.808   0.841  18.826
 3375TIP3    H234321   0.904   0.813  18.939
 3376TIP3   OH234322   1.728   0.995  18.873
 3376TIP3    H134323   1.713   0.969  18.782
 3376TIP3    H234324   1.711   1.089  18.874
 3377TIP3   OH234325   0.796   1.850  19.068
 3377TIP3    H134326   0.890   1.831  19.069
 3377TIP3    H234327   0.785   1.915  19.000
 3378TIP3   OH234328   0.155   1.324  19.012
 3378TIP3    H134329   0.247   1.351  19.019
 3378TIP3    H234330   0.154   1.262  18.939
 3379TIP3   OH234331   0.074   1.821  19.482
 3379TIP3    H134332  -0.019   1.842  19.482
 3379TIP3    H234333   0.084   1.757  19.553
 3380TIP3   OH234334   0.105   1.655  19.705
 3380TIP3    H134335   0.124   1.565  19.730
 3380TIP3    H234336   0.157   1.708  19.765
 3381TIP3   OH234337   1.783   1.109  19.254
 3381TIP3    H134338   1.864   1.161  19.261
 3381TIP3    H234339   1.786   1.050  19.330
 3382TIP3   OH234340   1.815   0.930  19.454
 3382TIP3    H134341   1.742   0.874  19.482
 3382TIP3    H234342   1.878   0.926  19.526
 3383TIP3   OH234343   1.861   1.219  19.912
 3383TIP3    H134344   1.897   1.134  19.890
 3383TIP3    H234345   1.789   1.232  19.851
 3384TIP3   OH234346   1.865   0.900  19.092
 3384TIP3    H134347   1.816   0.914  19.011
 3384TIP3    H234348   1.833   0.968  19.151
 3385TIP3   OH234349   1.657   0.641  18.929
 3385TIP3    H134350   1.649   0.691  18.848
 3385TIP3    H234351   1.643   0.550  18.903
 3386TIP3   OH234352   1.614   0.759  19.514
 3386TIP3    H134353   1.593   0.675  19.472
 3386TIP3    H234354   1.572   0.753  19.600
 3387TIP3   OH234355   0.143   1.092  19.909
 3387TIP3    H134356   0.169   1.057  19.824
 3387TIP3    H234357   0.217   1.071  19.967
 3388TIP3   OH234358   1.617   0.381  18.861
 3388TIP3    H134359   1.669   0.334  18.926
 3388TIP3    H234360   1.528   0.347  18.872
 3389TIP3   OH234361   1.593   0.547  19.334
 3389TIP3    H134362   1.612   0.455  19.353
 3389TIP3    H234363   1.665   0.575  19.277
 3390TIP3   OH234364   1.640   0.555  19.862
 3390TIP3    H134365   1.727   0.592  19.847
 3390TIP3    H234366   1.640   0.531  19.955
 3391TIP3   OH234367   1.658   0.283  19.381
 3391TIP3    H134368   1.667   0.238  19.465
 3391TIP3    H234369   1.584   0.240  19.339
 3392TIP3   OH234370   0.160   0.347  19.876
 3392TIP3    H134371   0.238   0.292  19.879
 3392TIP3    H234372   0.182   0.423  19.928
 3393TIP3   OH234373   0.099   0.629  19.952
 3393TIP3    H134374   0.144   0.636  19.868
 3393TIP3    H234375   0.054   0.713  19.962
 3394TIP3   OH234376   1.827   0.276  19.016
 3394TIP3    H134377   1.879   0.213  18.965
 3394TIP3    H234378   1.892   0.334  19.056
 3395TIP3   OH234379   0.123   0.267  19.377
 3395TIP3    H134380   0.028   0.274  19.377
 3395TIP3    H234381   0.152   0.327  19.308
 3396TIP3   OH234382   1.509   1.762  19.555
 3396TIP3    H134383   1.575   1.741  19.488
 3396TIP3    H234384   1.561   1.793  19.630
 3397TIP3   OH234385   0.271   1.746  19.913
 3397TIP3    H134386   0.307   1.767  19.999
 3397TIP3    H234387   0.339   1.695  19.870
 3398TIP3   OH234388   0.446   1.590  19.781
 3398TIP3    H134389   0.441   1.495  19.793
 3398TIP3    H234390   0.536   1.613  19.805
 3399TIP3   OH234391   0.703   1.628  19.883
 3399TIP3    H134392   0.709   1.535  19.860
 3399TIP3    H234393   0.779   1.644  19.938
 3400TIP3   OH234394   1.048   0.240  19.794
 3400TIP3    H134395   0.969   0.186  19.789
 3400TIP3    H234396   1.108   0.201  19.731
 3401TIP3   OH234397   1.590   0.086  19.814
 3401TIP3    H134398   1.648   0.114  19.743
 3401TIP3    H234399   1.537   0.164  19.833
 3402TIP3   OH234400   1.752   0.148  19.604
 3402TIP3    H134401   1.817   0.087  19.570
 3402TIP3    H234402   1.801   0.229  19.621
 3403TIP3   OH234403   0.287   0.141  19.556
 3403TIP3    H134404   0.222   0.176  19.495
 3403TIP3    H234405   0.279   0.046  19.548
 3404TIP3   OH234406   0.124   0.119  19.118
 3404TIP3    H134407   0.195   0.167  19.076
 3404TIP3    H234408   0.110   0.164  19.200
 3405TIP3   OH234409   0.716   0.115  19.505
 3405TIP3    H134410   0.803   0.132  19.470
 3405TIP3    H234411   0.724   0.136  19.598
 3406TIP3   OH234412   1.257   0.141  19.645
 3406TIP3    H134413   1.287   0.207  19.583
 3406TIP3    H234414   1.325   0.138  19.713
 3407TIP3   OH234415   1.454   0.148  19.252
 3407TIP3    H134416   1.366   0.184  19.260
 3407TIP3    H234417   1.442   0.053  19.262
 3408TIP3   OH234418   0.177   1.662  19.208
 3408TIP3    H134419   0.088   1.663  19.172
 3408TIP3    H234420   0.203   1.754  19.212
 3409TIP3   OH234421   0.364   0.205  18.997
 3409TIP3    H134422   0.415   0.156  18.932
 3409TIP3    H234423   0.430   0.242  19.056
 3410TIP3   OH234424   0.840   0.291  19.225
 3410TIP3    H134425   0.879   0.222  19.279
 3410TIP3    H234426   0.862   0.372  19.270
 3411TIP3   OH234427   1.063   1.771  19.064
 3411TIP3    H134428   1.158   1.780  19.058
 3411TIP3    H234429   1.037   1.724  18.984
 3412TIP3   OH234430   1.694   1.707  19.355
 3412TIP3    H134431   1.671   1.621  19.321
 3412TIP3    H234432   1.685   1.766  19.280
 3413TIP3   OH234433   0.334   1.728  18.918
 3413TIP3    H134434   0.308   1.719  19.009
 3413TIP3    H234435   0.413   1.676  18.909
 3414TIP3   OH234436   3.088   0.980  19.537
 3414TIP3    H134437   3.086   1.075  19.544
 3414TIP3    H234438   3.025   0.959  19.468
 3415TIP3   OH234439   2.959   0.898  19.894
 3415TIP3    H134440   2.989   0.831  19.956
 3415TIP3    H234441   2.913   0.849  19.826
 3416TIP3   OH234442   3.299   1.201  19.693
 3416TIP3    H134443   3.267   1.125  19.742
 3416TIP3    H234444   3.345   1.254  19.758
 3417TIP3   OH234445   2.331   1.341  19.861
 3417TIP3    H134446   2.302   1.252  19.842
 3417TIP3    H234447   2.425   1.334  19.873
 3418TIP3   OH234448   1.976   0.649  19.419
 3418TIP3    H134449   1.957   0.742  19.412
 3418TIP3    H234450   1.891   0.606  19.415
 3419TIP3   OH234451   2.035   0.897  19.616
 3419TIP3    H134452   2.065   0.812  19.647
 3419TIP3    H234453   2.110   0.934  19.570
 3420TIP3   OH234454   3.065   1.730  19.737
 3420TIP3    H134455   3.107   1.672  19.673
 3420TIP3    H234456   3.013   1.672  19.792
 3421TIP3   OH234457   2.828   1.160  19.938
 3421TIP3    H134458   2.868   1.083  19.897
 3421TIP3    H234459   2.882   1.176  20.015
 3422TIP3   OH234460   3.102   0.586  19.952
 3422TIP3    H134461   3.135   0.498  19.970
 3422TIP3    H234462   3.111   0.596  19.857
 3423TIP3   OH234463   2.483   0.389  19.674
 3423TIP3    H134464   2.486   0.474  19.630
 3423TIP3    H234465   2.447   0.329  19.610
 3424TIP3   OH234466   3.233   0.438  19.510
 3424TIP3    H134467   3.280   0.402  19.586
 3424TIP3    H234468   3.301   0.482  19.459
 3425TIP3   OH234469   2.121   0.663  19.729
 3425TIP3    H134470   2.182   0.625  19.792
 3425TIP3    H234471   2.137   0.614  19.648
 3426TIP3   OH234472   2.598   0.772  19.719
 3426TIP3    H134473   2.683   0.732  19.740
 3426TIP3    H234474   2.560   0.715  19.652
 3427TIP3   OH234475   3.020   1.231  19.422
 3427TIP3    H134476   3.028   1.241  19.327
 3427TIP3    H234477   2.986   1.315  19.452
 3428TIP3   OH234478   3.354   0.366  19.744
 3428TIP3    H134479   3.295   0.351  19.818
 3428TIP3    H234480   3.422   0.423  19.779
 3429TIP3   OH234481   2.311   0.511  19.863
 3429TIP3    H134482   2.375   0.576  19.894
 3429TIP3    H234483   2.361   0.457  19.801
 3430TIP3   OH234484   2.026   1.246  19.268
 3430TIP3    H134485   2.019   1.283  19.180
 3430TIP3    H234486   2.049   1.320  19.324
 3431TIP3   OH234487   3.418   1.351  19.895
 3431TIP3    H134488   3.379   1.316  19.975
 3431TIP3    H234489   3.422   1.445  19.909
 3432TIP3   OH234490   2.722   0.094  19.814
 3432TIP3    H134491   2.738   0.003  19.839
 3432TIP3    H234492   2.639   0.117  19.855
 3433TIP3   OH234493   3.200   1.570  19.556
 3433TIP3    H134494   3.241   1.487  19.533
 3433TIP3    H234495   3.274   1.631  19.564
 3434TIP3   OH234496   3.325   1.347  19.466
 3434TIP3    H134497   3.341   1.287  19.394
 3434TIP3    H234498   3.315   1.291  19.543
 3435TIP3   OH234499   2.946   0.924  19.305
 3435TIP3    H134500   2.886   0.996  19.283
 3435TIP3    H234501   3.012   0.926  19.235
 3436TIP3   OH234502   2.967   0.777  18.997
 3436TIP3    H134503   3.033   0.824  19.049
 3436TIP3    H234504   3.019   0.721  18.940
 3437TIP3   OH234505   3.313   0.938  19.383
 3437TIP3    H134506   3.244   0.953  19.448
 3437TIP3    H234507   3.380   0.890  19.431
 3438TIP3   OH234508   2.444   0.982  19.578
 3438TIP3    H134509   2.411   0.945  19.497
 3438TIP3    H234510   2.501   0.914  19.615
 3439TIP3   OH234511   2.615   1.356  19.841
 3439TIP3    H134512   2.608   1.354  19.745
 3439TIP3    H234513   2.683   1.292  19.861
 3440TIP3   OH234514   2.434   0.876  19.913
 3440TIP3    H134515   2.489   0.842  19.843
 3440TIP3    H234516   2.497   0.904  19.980
 3441TIP3   OH234517   3.180   0.881  19.151
 3441TIP3    H134518   3.228   0.905  19.230
 3441TIP3    H234519   3.232   0.918  19.079
 3442TIP3   OH234520   2.945   1.497  19.479
 3442TIP3    H134521   3.031   1.523  19.509
 3442TIP3    H234522   2.920   1.564  19.416
 3443TIP3   OH234523   3.577   0.091  19.160
 3443TIP3    H134524   3.493   0.126  19.188
 3443TIP3    H234525   3.619   0.164  19.113
 3444TIP3   OH234526   2.337   0.891  19.339
 3444TIP3    H134527   2.307   0.965  19.286
 3444TIP3    H234528   2.310   0.814  19.290
 3445TIP3   OH234529   3.674   1.455  18.996
 3445TIP3    H134530   3.693   1.549  19.001
 3445TIP3    H234531   3.760   1.413  18.999
 3446TIP3   OH234532   1.987   1.471  19.868
 3446TIP3    H134533   2.044   1.395  19.854
 3446TIP3    H234534   1.914   1.437  19.919
 3447TIP3   OH234535   2.934   1.781  19.342
 3447TIP3    H134536   2.924   1.788  19.247
 3447TIP3    H234537   2.905   1.866  19.376
 3448TIP3   OH234538   2.267   1.673  19.513
 3448TIP3    H134539   2.286   1.646  19.604
 3448TIP3    H234540   2.210   1.604  19.479
 3449TIP3   OH234541   3.222   1.740  19.030
 3449TIP3    H134542   3.271   1.669  18.987
 3449TIP3    H234543   3.233   1.723  19.123
 3450TIP3   OH234544   3.197   1.712  19.303
 3450TIP3    H134545   3.106   1.728  19.326
 3450TIP3    H234546   3.226   1.645  19.365
 3451TIP3   OH234547   2.473   0.162  19.914
 3451TIP3    H134548   2.393   0.171  19.863
 3451TIP3    H234549   2.487   0.250  19.951
 3452TIP3   OH234550   3.342   0.972  18.956
 3452TIP3    H134551   3.314   0.972  18.864
 3452TIP3    H234552   3.438   0.980  18.951
 3453TIP3   OH234553   2.872   0.341  19.017
 3453TIP3    H134554   2.806   0.305  19.077
 3453TIP3    H234555   2.831   0.337  18.931
 3454TIP3   OH234556   2.462   0.623  19.536
 3454TIP3    H134557   2.367   0.608  19.531
 3454TIP3    H234558   2.492   0.612  19.445
 3455TIP3   OH234559   3.009   0.673  19.404
 3455TIP3    H134560   2.981   0.760  19.374
 3455TIP3    H234561   3.076   0.646  19.342
 3456TIP3   OH234562   3.097   0.621  19.674
 3456TIP3    H134563   3.071   0.684  19.607
 3456TIP3    H234564   3.128   0.545  19.624
 3457TIP3   OH234565   2.548   0.376  18.889
 3457TIP3    H134566   2.508   0.370  18.976
 3457TIP3    H234567   2.492   0.437  18.841
 3458TIP3   OH234568   1.906   0.369  19.630
 3458TIP3    H134569   1.954   0.380  19.712
 3458TIP3    H234570   1.975   0.370  19.563
 3459TIP3   OH234571   1.993   0.443  19.165
 3459TIP3    H134572   2.058   0.485  19.108
 3459TIP3    H234573   1.926   0.510  19.178
 3460TIP3   OH234574   2.763   0.380  19.610
 3460TIP3    H134575   2.673   0.374  19.642
 3460TIP3    H234576   2.818   0.363  19.687
 3461TIP3   OH234577   2.206   0.525  19.509
 3461TIP3    H134578   2.133   0.552  19.452
 3461TIP3    H234579   2.242   0.447  19.467
 3462TIP3   OH234580   2.530   0.572  19.276
 3462TIP3    H134581   2.625   0.565  19.286
 3462TIP3    H234582   2.519   0.616  19.191
 3463TIP3   OH234583   3.167   0.315  19.947
 3463TIP3    H134584   3.173   0.243  20.009
 3463TIP3    H234585   3.087   0.298  19.897
 3464TIP3   OH234586   2.478   0.677  19.030
 3464TIP3    H134587   2.427   0.652  18.952
 3464TIP3    H234588   2.557   0.718  18.994
 3465TIP3   OH234589   2.842   0.645  19.803
 3465TIP3    H134590   2.917   0.627  19.747
 3465TIP3    H234591   2.858   0.594  19.882
 3466TIP3   OH234592   2.353   0.299  19.438
 3466TIP3    H134593   2.293   0.227  19.458
 3466TIP3    H234594   2.397   0.271  19.358
 3467TIP3   OH234595   2.753   1.134  19.230
 3467TIP3    H134596   2.686   1.082  19.184
 3467TIP3    H234597   2.717   1.147  19.317
 3468TIP3   OH234598   3.131   0.395  19.061
 3468TIP3    H134599   3.038   0.389  19.041
 3468TIP3    H234600   3.143   0.483  19.097
 3469TIP3   OH234601   3.206   0.611  19.217
 3469TIP3    H134602   3.295   0.596  19.250
 3469TIP3    H234603   3.208   0.698  19.179
 3470TIP3   OH234604   2.287   1.075  19.790
 3470TIP3    H134605   2.330   1.062  19.706
 3470TIP3    H234606   2.323   1.007  19.847
 3471TIP3   OH234607   2.975   1.264  19.138
 3471TIP3    H134608   2.950   1.356  19.149
 3471TIP3    H234609   2.898   1.215  19.165
 3472TIP3   OH234610   3.679   0.642  19.199
 3472TIP3    H134611   3.637   0.624  19.115
 3472TIP3    H234612   3.714   0.731  19.190
 3473TIP3   OH234613   3.504   1.486  19.218
 3473TIP3    H134614   3.457   1.407  19.244
 3473TIP3    H234615   3.552   1.461  19.139
 3474TIP3   OH234616   3.225   0.994  19.856
 3474TIP3    H134617   3.134   0.963  19.858
 3474TIP3    H234618   3.276   0.917  19.831
 3475TIP3   OH234619   2.529   1.411  19.572
 3475TIP3    H134620   2.558   1.491  19.529
 3475TIP3    H234621   2.436   1.404  19.550
 3476TIP3   OH234622   2.133   0.893  19.025
 3476TIP3    H134623   2.176   0.964  19.072
 3476TIP3    H234624   2.041   0.898  19.053
 3477TIP3   OH234625   2.618   1.170  19.462
 3477TIP3    H134626   2.602   1.255  19.504
 3477TIP3    H234627   2.560   1.110  19.509
 3478TIP3   OH234628   2.532   1.666  19.438
 3478TIP3    H134629   2.438   1.677  19.453
 3478TIP3    H234630   2.571   1.747  19.469
 3479TIP3   OH234631   3.308   1.296  19.019
 3479TIP3    H134632   3.324   1.249  19.101
 3479TIP3    H234633   3.218   1.272  18.995
 3480TIP3   OH234634   3.736   1.722  19.035
 3480TIP3    H134635   3.790   1.787  18.990
 3480TIP3    H234636   3.666   1.774  19.075
 3481TIP3   OH234637   3.396   1.173  19.256
 3481TIP3    H134638   3.361   1.094  19.295
 3481TIP3    H234639   3.490   1.155  19.246
 3482TIP3   OH234640   2.692   1.428  18.856
 3482TIP3    H134641   2.697   1.351  18.800
 3482TIP3    H234642   2.650   1.398  18.936
 3483TIP3   OH234643   2.578   1.354  19.100
 3483TIP3    H134644   2.634   1.294  19.149
 3483TIP3    H234645   2.596   1.440  19.137
 3484TIP3   OH234646   2.240   1.095  19.181
 3484TIP3    H134647   2.167   1.139  19.223
 3484TIP3    H234648   2.283   1.164  19.131
 3485TIP3   OH234649   3.091   0.292  19.321
 3485TIP3    H134650   3.094   0.335  19.236
 3485TIP3    H234651   3.131   0.355  19.382
 3486TIP3   OH234652   2.883   1.518  19.166
 3486TIP3    H134653   2.792   1.545  19.177
 3486TIP3    H234654   2.926   1.594  19.127
 3487TIP3   OH234655   2.788   0.509  19.367
 3487TIP3    H134656   2.865   0.565  19.371
 3487TIP3    H234657   2.779   0.473  19.455
 3488TIP3   OH234658   2.866   0.185  19.435
 3488TIP3    H134659   2.850   0.257  19.496
 3488TIP3    H234660   2.949   0.208  19.393
 3489TIP3   OH234661   2.625   1.611  19.185
 3489TIP3    H134662   2.624   1.697  19.142
 3489TIP3    H234663   2.592   1.628  19.273
 3490TIP3   OH234664   2.446   0.332  19.149
 3490TIP3    H134665   2.445   0.417  19.192
 3490TIP3    H234666   2.532   0.296  19.171
 3491TIP3   OH234667   3.341   0.749  19.757
 3491TIP3    H134668   3.259   0.702  19.742
 3491TIP3    H234669   3.394   0.689  19.810
 3492TIP3   OH234670   2.309   1.318  19.018
 3492TIP3    H134671   2.386   1.360  19.057
 3492TIP3    H234672   2.345   1.261  18.950
 3493TIP3   OH234673   2.110   0.618  18.990
 3493TIP3    H134674   2.134   0.708  19.014
 3493TIP3    H234675   2.074   0.625  18.902
 3494TIP3   OH234676   3.482   1.692  19.935
 3494TIP3    H134677   3.463   1.764  19.876
 3494TIP3    H234678   3.565   1.714  19.976
 3495TIP3   OH234679   2.233   0.154  19.778
 3495TIP3    H134680   2.217   0.162  19.684
 3495TIP3    H234681   2.206   0.065  19.800
 3496TIP3   OH234682   2.084   1.481  19.413
 3496TIP3    H134683   2.014   1.509  19.473
 3496TIP3    H234684   2.076   1.541  19.339
 3497TIP3   OH234685   2.904   1.607  18.858
 3497TIP3    H134686   2.837   1.540  18.863
 3497TIP3    H234687   2.981   1.563  18.821
 3498TIP3   OH234688   3.349   1.539  18.892
 3498TIP3    H134689   3.351   1.457  18.942
 3498TIP3    H234690   3.425   1.534  18.834
 3499TIP3   OH234691   2.440   1.128  18.873
 3499TIP3    H134692   2.474   1.084  18.951
 3499TIP3    H234693   2.517   1.141  18.818
 3500TIP3   OH234694   3.043   1.265  18.870
 3500TIP3    H134695   3.006   1.258  18.958
 3500TIP3    H234696   3.033   1.178  18.833
 3501TIP3   OH234697   2.559   0.987  19.096
 3501TIP3    H134698   2.507   0.929  19.150
 3501TIP3    H234699   2.612   0.928  19.041
 3502TIP3   OH234700   2.697   0.811  18.937
 3502TIP3    H134701   2.698   0.832  18.844
 3502TIP3    H234702   2.789   0.795  18.959
 3503TIP3   OH234703   3.617   0.995  18.873
 3503TIP3    H134704   3.597   0.970  18.783
 3503TIP3    H234705   3.596   1.088  18.878
 3504TIP3   OH234706   2.685   1.869  19.081
 3504TIP3    H134707   2.776   1.839  19.081
 3504TIP3    H234708   2.677   1.922  19.001
 3505TIP3   OH234709   2.031   1.316  19.000
 3505TIP3    H134710   2.126   1.331  18.999
 3505TIP3    H234711   2.017   1.250  18.933
 3506TIP3   OH234712   1.902   1.833  19.482
 3506TIP3    H134713   1.838   1.789  19.427
 3506TIP3    H234714   1.931   1.767  19.544
 3507TIP3   OH234715   1.994   1.658  19.668
 3507TIP3    H134716   1.976   1.581  19.721
 3507TIP3    H234717   2.045   1.715  19.725
 3508TIP3   OH234718   3.667   1.111  19.254
 3508TIP3    H134719   3.747   1.164  19.259
 3508TIP3    H234720   3.668   1.059  19.334
 3509TIP3   OH234721   3.687   0.949  19.467
 3509TIP3    H134722   3.617   0.891  19.496
 3509TIP3    H234723   3.757   0.936  19.531
 3510TIP3   OH234724   3.746   1.214  19.925
 3510TIP3    H134725   3.789   1.130  19.909
 3510TIP3    H234726   3.684   1.223  19.852
 3511TIP3   OH234727   3.746   0.898  19.099
 3511TIP3    H134728   3.696   0.910  19.018
 3511TIP3    H234729   3.716   0.969  19.155
 3512TIP3   OH234730   3.579   0.643  18.945
 3512TIP3    H134731   3.595   0.702  18.872
 3512TIP3    H234732   3.552   0.561  18.904
 3513TIP3   OH234733   3.488   0.773  19.527
 3513TIP3    H134734   3.473   0.688  19.487
 3513TIP3    H234735   3.443   0.769  19.611
 3514TIP3   OH234736   1.955   0.957  19.870
 3514TIP3    H134737   1.971   0.943  19.777
 3514TIP3    H234738   2.042   0.963  19.909
 3515TIP3   OH234739   3.527   0.396  18.844
 3515TIP3    H134740   3.575   0.348  18.912
 3515TIP3    H234741   3.438   0.359  18.848
 3516TIP3   OH234742   3.453   0.552  19.353
 3516TIP3    H134743   3.482   0.461  19.368
 3516TIP3    H234744   3.522   0.590  19.299
 3517TIP3   OH234745   3.501   0.557  19.883
 3517TIP3    H134746   3.594   0.582  19.878
 3517TIP3    H234747   3.484   0.546  19.977
 3518TIP3   OH234748   3.525   0.293  19.395
 3518TIP3    H134749   3.547   0.240  19.472
 3518TIP3    H234750   3.457   0.244  19.350
 3519TIP3   OH234751   2.070   0.364  19.850
 3519TIP3    H134752   2.117   0.281  19.838
 3519TIP3    H234753   2.137   0.426  19.877
 3520TIP3   OH234754   1.881   0.679  19.869
 3520TIP3    H134755   1.959   0.652  19.819
 3520TIP3    H234756   1.896   0.771  19.890
 3521TIP3   OH234757   3.710   0.278  19.016
 3521TIP3    H134758   3.758   0.210  18.968
 3521TIP3    H234759   3.779   0.332  19.056
 3522TIP3   OH234760   1.947   0.252  19.354
 3522TIP3    H134761   1.852   0.255  19.361
 3522TIP3    H234762   1.969   0.325  19.296
 3523TIP3   OH234763   3.396   1.755  19.552
 3523TIP3    H134764   3.465   1.741  19.487
 3523TIP3    H234765   3.442   1.795  19.626
 3524TIP3   OH234766   2.154   1.761  19.877
 3524TIP3    H134767   2.127   1.718  19.958
 3524TIP3    H234768   2.221   1.703  19.840
 3525TIP3   OH234769   2.341   1.598  19.767
 3525TIP3    H134770   2.329   1.508  19.797
 3525TIP3    H234771   2.433   1.617  19.788
 3526TIP3   OH234772   2.602   1.636  19.869
 3526TIP3    H134773   2.621   1.543  19.852
 3526TIP3    H234774   2.600   1.641  19.965
 3527TIP3   OH234775   2.936   0.265  19.798
 3527TIP3    H134776   2.866   0.201  19.810
 3527TIP3    H234777   3.000   0.221  19.743
 3528TIP3   OH234778   3.453   0.099  19.798
 3528TIP3    H134779   3.519   0.120  19.733
 3528TIP3    H234780   3.385   0.166  19.787
 3529TIP3   OH234781   3.631   0.137  19.596
 3529TIP3    H134782   3.693   0.069  19.569
 3529TIP3    H234783   3.686   0.213  19.615
 3530TIP3   OH234784   2.155   0.126  19.511
 3530TIP3    H134785   2.082   0.150  19.454
 3530TIP3    H234786   2.162   0.031  19.503
 3531TIP3   OH234787   2.079   0.102  19.151
 3531TIP3    H134788   2.122   0.163  19.092
 3531TIP3    H234789   2.028   0.157  19.210
 3532TIP3   OH234790   2.635   0.094  19.550
 3532TIP3    H134791   2.710   0.122  19.498
 3532TIP3    H234792   2.662   0.107  19.640
 3533TIP3   OH234793   3.136   0.142  19.665
 3533TIP3    H134794   3.180   0.172  19.586
 3533TIP3    H234795   3.161   0.050  19.674
 3534TIP3   OH234796   3.328   0.156  19.263
 3534TIP3    H134797   3.241   0.194  19.266
 3534TIP3    H234798   3.314   0.061  19.264
 3535TIP3   OH234799   2.055   1.665  19.215
 3535TIP3    H134800   1.978   1.653  19.160
 3535TIP3    H234801   2.072   1.760  19.212
 3536TIP3   OH234802   2.245   0.242  18.977
 3536TIP3    H134803   2.295   0.186  18.917
 3536TIP3    H234804   2.309   0.271  19.041
 3537TIP3   OH234805   2.701   0.283  19.233
 3537TIP3    H134806   2.745   0.217  19.287
 3537TIP3    H234807   2.730   0.367  19.268
 3538TIP3   OH234808   2.950   1.779  19.062
 3538TIP3    H134809   3.045   1.788  19.058
 3538TIP3    H234810   2.927   1.731  18.983
 3539TIP3   OH234811   3.581   1.711  19.351
 3539TIP3    H134812   3.555   1.627  19.312
 3539TIP3    H234813   3.576   1.773  19.278
 3540TIP3   OH234814   2.194   1.732  18.915
 3540TIP3    H134815   2.166   1.733  19.006
 3540TIP3    H234816   2.257   1.660  18.909
 3541TIP3   OH234817   4.971   0.988  19.533
 3541TIP3    H134818   4.967   1.084  19.532
 3541TIP3    H234819   4.905   0.961  19.469
 3542TIP3   OH234820   4.850   0.892  19.900
 3542TIP3    H134821   4.883   0.826  19.961
 3542TIP3    H234822   4.794   0.843  19.840
 3543TIP3   OH234823   5.195   1.200  19.696
 3543TIP3    H134824   5.157   1.126  19.743
 3543TIP3    H234825   5.246   1.246  19.763
 3544TIP3   OH234826   4.214   1.334  19.855
 3544TIP3    H134827   4.184   1.245  19.837
 3544TIP3    H234828   4.308   1.327  19.867
 3545TIP3   OH234829   3.852   0.640  19.432
 3545TIP3    H134830   3.836   0.727  19.468
 3545TIP3    H234831   3.778   0.624  19.373
 3546TIP3   OH234832   3.910   0.884  19.614
 3546TIP3    H134833   3.940   0.804  19.657
 3546TIP3    H234834   3.990   0.922  19.578
 3547TIP3   OH234835   4.951   1.732  19.744
 3547TIP3    H134836   4.991   1.666  19.687
 3547TIP3    H234837   4.875   1.688  19.781
 3548TIP3   OH234838   4.724   1.163  19.942
 3548TIP3    H134839   4.765   1.088  19.898
 3548TIP3    H234840   4.770   1.170  20.025
 3549TIP3   OH234841   4.985   0.588  19.950
 3549TIP3    H134842   5.018   0.501  19.968
 3549TIP3    H234843   4.992   0.597  19.855
 3550TIP3   OH234844   4.368   0.398  19.678
 3550TIP3    H134845   4.371   0.480  19.630
 3550TIP3    H234846   4.329   0.335  19.616
 3551TIP3   OH234847   5.117   0.444  19.505
 3551TIP3    H134848   5.162   0.409  19.582
 3551TIP3    H234849   5.186   0.488  19.455
 3552TIP3   OH234850   3.987   0.656  19.740
 3552TIP3    H134851   4.054   0.622  19.800
 3552TIP3    H234852   4.002   0.609  19.658
 3553TIP3   OH234853   4.490   0.777  19.716
 3553TIP3    H134854   4.574   0.736  19.739
 3553TIP3    H234855   4.453   0.719  19.649
 3554TIP3   OH234856   4.915   1.238  19.414
 3554TIP3    H134857   4.912   1.247  19.319
 3554TIP3    H234858   4.878   1.320  19.447
 3555TIP3   OH234859   5.236   0.375  19.739
 3555TIP3    H134860   5.180   0.355  19.814
 3555TIP3    H234861   5.307   0.428  19.776
 3556TIP3   OH234862   4.195   0.521  19.863
 3556TIP3    H134863   4.251   0.595  19.888
 3556TIP3    H234864   4.249   0.470  19.803
 3557TIP3   OH234865   3.912   1.245  19.266
 3557TIP3    H134866   3.905   1.284  19.179
 3557TIP3    H234867   3.933   1.318  19.324
 3558TIP3   OH234868   5.328   1.348  19.896
 3558TIP3    H134869   5.266   1.328  19.967
 3558TIP3    H234870   5.326   1.444  19.891
 3559TIP3   OH234871   4.608   0.101  19.814
 3559TIP3    H134872   4.623   0.008  19.832
 3559TIP3    H234873   4.525   0.121  19.857
 3560TIP3   OH234874   5.084   1.568  19.565
 3560TIP3    H134875   5.126   1.486  19.540
 3560TIP3    H234876   5.156   1.631  19.570
 3561TIP3   OH234877   5.215   1.350  19.471
 3561TIP3    H134878   5.217   1.289  19.397
 3561TIP3    H234879   5.206   1.293  19.548
 3562TIP3   OH234880   4.829   0.924  19.302
 3562TIP3    H134881   4.766   0.994  19.282
 3562TIP3    H234882   4.900   0.938  19.239
 3563TIP3   OH234883   4.859   0.795  18.977
 3563TIP3    H134884   4.913   0.827  19.050
 3563TIP3    H234885   4.912   0.727  18.936
 3564TIP3   OH234886   5.199   0.945  19.386
 3564TIP3    H134887   5.129   0.961  19.449
 3564TIP3    H234888   5.265   0.896  19.435
 3565TIP3   OH234889   4.334   0.984  19.576
 3565TIP3    H134890   4.302   0.947  19.494
 3565TIP3    H234891   4.393   0.917  19.611
 3566TIP3   OH234892   4.498   1.357  19.836
 3566TIP3    H134893   4.491   1.358  19.741
 3566TIP3    H234894   4.568   1.295  19.855
 3567TIP3   OH234895   4.307   0.851  19.905
 3567TIP3    H134896   4.370   0.830  19.836
 3567TIP3    H234897   4.361   0.876  19.980
 3568TIP3   OH234898   5.065   0.888  19.153
 3568TIP3    H134899   5.113   0.913  19.232
 3568TIP3    H234900   5.118   0.924  19.082
 3569TIP3   OH234901   4.832   1.500  19.476
 3569TIP3    H134902   4.917   1.526  19.512
 3569TIP3    H234903   4.803   1.576  19.426
 3570TIP3   OH234904   5.470   0.083  19.172
 3570TIP3    H134905   5.384   0.118  19.193
 3570TIP3    H234906   5.514   0.153  19.123
 3571TIP3   OH234907   4.229   0.894  19.334
 3571TIP3    H134908   4.196   0.968  19.284
 3571TIP3    H234909   4.193   0.817  19.290
 3572TIP3   OH234910   5.561   1.450  19.002
 3572TIP3    H134911   5.576   1.544  19.009
 3572TIP3    H234912   5.649   1.412  19.002
 3573TIP3   OH234913   3.851   1.472  19.873
 3573TIP3    H134914   3.914   1.400  19.872
 3573TIP3    H234915   3.774   1.435  19.916
 3574TIP3   OH234916   4.820   1.772  19.352
 3574TIP3    H134917   4.805   1.782  19.258
 3574TIP3    H234918   4.787   1.853  19.391
 3575TIP3   OH234919   4.151   1.672  19.516
 3575TIP3    H134920   4.169   1.647  19.607
 3575TIP3    H234921   4.091   1.605  19.484
 3576TIP3   OH234922   5.109   1.732  19.033
 3576TIP3    H134923   5.162   1.663  18.993
 3576TIP3    H234924   5.116   1.715  19.127
 3577TIP3   OH234925   5.084   1.710  19.308
 3577TIP3    H134926   4.992   1.727  19.328
 3577TIP3    H234927   5.112   1.648  19.374
 3578TIP3   OH234928   4.358   0.168  19.912
 3578TIP3    H134929   4.280   0.173  19.857
 3578TIP3    H234930   4.368   0.255  19.949
 3579TIP3   OH234931   5.229   0.968  18.955
 3579TIP3    H134932   5.203   0.968  18.863
 3579TIP3    H234933   5.324   0.982  18.953
 3580TIP3   OH234934   4.742   0.334  19.009
 3580TIP3    H134935   4.688   0.326  19.087
 3580TIP3    H234936   4.716   0.260  18.954
 3581TIP3   OH234937   4.353   0.629  19.534
 3581TIP3    H134938   4.257   0.618  19.531
 3581TIP3    H234939   4.381   0.616  19.443
 3582TIP3   OH234940   4.898   0.676  19.401
 3582TIP3    H134941   4.868   0.762  19.370
 3582TIP3    H234942   4.965   0.650  19.338
 3583TIP3   OH234943   4.982   0.624  19.673
 3583TIP3    H134944   4.957   0.690  19.608
 3583TIP3    H234945   5.012   0.549  19.621
 3584TIP3   OH234946   4.433   0.366  18.891
 3584TIP3    H134947   4.395   0.360  18.978
 3584TIP3    H234948   4.382   0.433  18.846
 3585TIP3   OH234949   3.790   0.350  19.629
 3585TIP3    H134950   3.840   0.367  19.709
 3585TIP3    H234951   3.850   0.373  19.558
 3586TIP3   OH234952   3.880   0.445  19.160
 3586TIP3    H134953   3.943   0.488  19.102
 3586TIP3    H234954   3.815   0.513  19.179
 3587TIP3   OH234955   4.648   0.385  19.618
 3587TIP3    H134956   4.558   0.378  19.648
 3587TIP3    H234957   4.701   0.364  19.695
 3588TIP3   OH234958   4.094   0.539  19.513
 3588TIP3    H134959   4.016   0.560  19.461
 3588TIP3    H234960   4.128   0.458  19.475
 3589TIP3   OH234961   4.420   0.575  19.275
 3589TIP3    H134962   4.515   0.571  19.284
 3589TIP3    H234963   4.406   0.617  19.190
 3590TIP3   OH234964   5.056   0.318  19.948
 3590TIP3    H134965   5.062   0.247  20.013
 3590TIP3    H234966   4.975   0.300  19.900
 3591TIP3   OH234967   4.358   0.672  19.026
 3591TIP3    H134968   4.305   0.640  18.953
 3591TIP3    H234969   4.434   0.713  18.985
 3592TIP3   OH234970   4.727   0.649  19.802
 3592TIP3    H134971   4.802   0.630  19.745
 3592TIP3    H234972   4.742   0.595  19.879
 3593TIP3   OH234973   4.234   0.307  19.444
 3593TIP3    H134974   4.171   0.237  19.461
 3593TIP3    H234975   4.288   0.274  19.372
 3594TIP3   OH234976   4.640   1.126  19.232
 3594TIP3    H134977   4.572   1.078  19.186
 3594TIP3    H234978   4.604   1.145  19.318
 3595TIP3   OH234979   4.999   0.391  19.079
 3595TIP3    H134980   4.907   0.390  19.051
 3595TIP3    H234981   5.014   0.482  19.108
 3596TIP3   OH234982   5.092   0.618  19.209
 3596TIP3    H134983   5.179   0.600  19.245
 3596TIP3    H234984   5.096   0.708  19.177
 3597TIP3   OH234985   4.170   1.064  19.787
 3597TIP3    H134986   4.215   1.056  19.704
 3597TIP3    H234987   4.204   0.991  19.840
 3598TIP3   OH234988   4.854   1.267  19.137
 3598TIP3    H134989   4.827   1.358  19.146
 3598TIP3    H234990   4.778   1.215  19.164
 3599TIP3   OH234991   5.559   0.640  19.186
 3599TIP3    H134992   5.517   0.624  19.102
 3599TIP3    H234993   5.596   0.728  19.178
 3600TIP3   OH234994   5.395   1.479  19.231
 3600TIP3    H134995   5.340   1.406  19.260
 3600TIP3    H234996   5.434   1.448  19.149
 3601TIP3   OH234997   5.111   0.992  19.854
 3601TIP3    H134998   5.021   0.962  19.859
 3601TIP3    H234999   5.161   0.915  19.829
 3602TIP3   OH235000   4.415   1.413  19.568
 3602TIP3    H135001   4.442   1.495  19.527
 3602TIP3    H235002   4.320   1.410  19.554
 3603TIP3   OH235003   4.012   0.891  19.022
 3603TIP3    H135004   4.057   0.962  19.067
 3603TIP3    H235005   3.921   0.896  19.053
 3604TIP3   OH235006   4.508   1.174  19.463
 3604TIP3    H135007   4.489   1.260  19.500
 3604TIP3    H235008   4.448   1.115  19.509
 3605TIP3   OH235009   4.415   1.665  19.440
 3605TIP3    H135010   4.321   1.681  19.455
 3605TIP3    H235011   4.458   1.744  19.471
 3606TIP3   OH235012   5.194   1.298  19.011
 3606TIP3    H135013   5.202   1.253  19.095
 3606TIP3    H235014   5.106   1.277  18.980
 3607TIP3   OH235015   5.619   1.719  19.036
 3607TIP3    H135016   5.656   1.785  18.976
 3607TIP3    H235017   5.550   1.766  19.083
 3608TIP3   OH235018   5.279   1.178  19.254
 3608TIP3    H135019   5.244   1.100  19.297
 3608TIP3    H235020   5.372   1.159  19.242
 3609TIP3   OH235021   4.588   1.426  18.855
 3609TIP3    H135022   4.589   1.351  18.795
 3609TIP3    H235023   4.543   1.393  18.933
 3610TIP3   OH235024   4.465   1.350  19.094
 3610TIP3    H135025   4.520   1.295  19.150
 3610TIP3    H235026   4.474   1.438  19.130
 3611TIP3   OH235027   4.125   1.094  19.175
 3611TIP3    H135028   4.052   1.138  19.220
 3611TIP3    H235029   4.167   1.163  19.123
 3612TIP3   OH235030   4.978   0.283  19.331
 3612TIP3    H135031   4.978   0.323  19.244
 3612TIP3    H235032   5.017   0.349  19.388
 3613TIP3   OH235033   4.756   1.517  19.160
 3613TIP3    H135034   4.665   1.542  19.175
 3613TIP3    H235035   4.799   1.598  19.132
 3614TIP3   OH235036   4.678   0.512  19.375
 3614TIP3    H135037   4.755   0.569  19.382
 3614TIP3    H235038   4.666   0.478  19.464
 3615TIP3   OH235039   4.747   0.187  19.442
 3615TIP3    H135040   4.734   0.259  19.504
 3615TIP3    H235041   4.832   0.206  19.403
 3616TIP3   OH235042   4.497   1.606  19.184
 3616TIP3    H135043   4.502   1.691  19.140
 3616TIP3    H235044   4.466   1.627  19.272
 3617TIP3   OH235045   4.338   0.334  19.151
 3617TIP3    H135046   4.332   0.419  19.195
 3617TIP3    H235047   4.424   0.300  19.174
 3618TIP3   OH235048   5.230   0.746  19.756
 3618TIP3    H135049   5.147   0.699  19.745
 3618TIP3    H235050   5.284   0.688  19.808
 3619TIP3   OH235051   4.193   1.316  19.011
 3619TIP3    H135052   4.267   1.363  19.050
 3619TIP3    H235053   4.233   1.263  18.941
 3620TIP3   OH235054   3.998   0.617  18.983
 3620TIP3    H135055   4.017   0.707  19.010
 3620TIP3    H235056   3.964   0.626  18.894
 3621TIP3   OH235057   5.372   1.681  19.922
 3621TIP3    H135058   5.341   1.751  19.864
 3621TIP3    H235059   5.429   1.726  19.984
 3622TIP3   OH235060   4.124   0.154  19.769
 3622TIP3    H135061   4.105   0.161  19.675
 3622TIP3    H235062   4.097   0.065  19.792
 3623TIP3   OH235063   3.964   1.480  19.413
 3623TIP3    H135064   3.903   1.512  19.480
 3623TIP3    H235065   3.957   1.543  19.342
 3624TIP3   OH235066   4.788   1.615  18.857
 3624TIP3    H135067   4.722   1.546  18.864
 3624TIP3    H235068   4.866   1.570  18.823
 3625TIP3   OH235069   5.247   1.540  18.892
 3625TIP3    H135070   5.242   1.457  18.938
 3625TIP3    H235071   5.326   1.533  18.838
 3626TIP3   OH235072   4.330   1.129  18.865
 3626TIP3    H135073   4.365   1.091  18.946
 3626TIP3    H235074   4.407   1.140  18.809
 3627TIP3   OH235075   4.945   1.266  18.877
 3627TIP3    H135076   4.898   1.265  18.961
 3627TIP3    H235077   4.925   1.181  18.838
 3628TIP3   OH235078   4.448   0.980  19.098
 3628TIP3    H135079   4.391   0.925  19.151
 3628TIP3    H235080   4.496   0.919  19.042
 3629TIP3   OH235081   4.580   0.804  18.930
 3629TIP3    H135082   4.577   0.831  18.838
 3629TIP3    H235083   4.673   0.797  18.950
 3630TIP3   OH235084   5.508   0.993  18.878
 3630TIP3    H135085   5.487   0.967  18.789
 3630TIP3    H235086   5.486   1.086  18.882
 3631TIP3   OH235087   4.569   1.851  19.074
 3631TIP3    H135088   4.663   1.836  19.079
 3631TIP3    H235089   4.557   1.914  19.003
 3632TIP3   OH235090   3.916   1.318  19.000
 3632TIP3    H135091   4.010   1.334  18.998
 3632TIP3    H235092   3.902   1.250  18.935
 3633TIP3   OH235093   3.791   1.828  19.483
 3633TIP3    H135094   3.726   1.787  19.426
 3633TIP3    H235095   3.819   1.758  19.542
 3634TIP3   OH235096   3.880   1.640  19.659
 3634TIP3    H135097   3.853   1.571  19.720
 3634TIP3    H235098   3.929   1.702  19.713
 3635TIP3   OH235099   5.550   1.110  19.249
 3635TIP3    H135100   5.629   1.165  19.255
 3635TIP3    H235101   5.550   1.059  19.329
 3636TIP3   OH235102   5.572   0.951  19.463
 3636TIP3    H135103   5.501   0.894  19.492
 3636TIP3    H235104   5.641   0.938  19.528
 3637TIP3   OH235105   5.635   1.222  19.905
 3637TIP3    H135106   5.665   1.133  19.885
 3637TIP3    H235107   5.551   1.229  19.861
 3638TIP3   OH235108   5.637   0.894  19.099
 3638TIP3    H135109   5.588   0.907  19.017
 3638TIP3    H235110   5.606   0.965  19.156
 3639TIP3   OH235111   5.452   0.630  18.933
 3639TIP3    H135112   5.424   0.683  18.858
 3639TIP3    H235113   5.433   0.540  18.906
 3640TIP3   OH235114   5.373   0.776  19.524
 3640TIP3    H135115   5.357   0.691  19.482
 3640TIP3    H235116   5.330   0.769  19.609
 3641TIP3   OH235117   3.846   0.956  19.875
 3641TIP3    H135118   3.850   0.934  19.781
 3641TIP3    H235119   3.938   0.958  19.902
 3642TIP3   OH235120   5.394   0.374  18.861
 3642TIP3    H135121   5.437   0.324  18.929
 3642TIP3    H235122   5.302   0.346  18.864
 3643TIP3   OH235123   5.337   0.559  19.346
 3643TIP3    H135124   5.364   0.468  19.361
 3643TIP3    H235125   5.406   0.595  19.291
 3644TIP3   OH235126   5.394   0.556  19.879
 3644TIP3    H135127   5.486   0.584  19.875
 3644TIP3    H235128   5.378   0.540  19.972
 3645TIP3   OH235129   5.406   0.301  19.387
 3645TIP3    H135130   5.428   0.248  19.464
 3645TIP3    H235131   5.340   0.250  19.341
 3646TIP3   OH235132   3.963   0.364  19.841
 3646TIP3    H135133   4.007   0.280  19.828
 3646TIP3    H235134   4.032   0.424  19.870
 3647TIP3   OH235135   3.761   0.636  19.919
 3647TIP3    H135136   3.832   0.607  19.861
 3647TIP3    H235137   3.789   0.722  19.949
 3648TIP3   OH235138   5.597   0.267  19.022
 3648TIP3    H135139   5.646   0.204  18.969
 3648TIP3    H235140   5.665   0.325  19.058
 3649TIP3   OH235141   3.837   0.249  19.347
 3649TIP3    H135142   3.742   0.249  19.357
 3649TIP3    H235143   3.855   0.324  19.290
 3650TIP3   OH235144   5.281   1.749  19.551
 3650TIP3    H135145   5.355   1.738  19.491
 3650TIP3    H235146   5.316   1.802  19.622
 3651TIP3   OH235147   4.031   1.755  19.870
 3651TIP3    H135148   4.003   1.714  19.952
 3651TIP3    H235149   4.101   1.698  19.838
 3652TIP3   OH235150   4.226   1.594  19.770
 3652TIP3    H135151   4.216   1.503  19.799
 3652TIP3    H235152   4.317   1.616  19.790
 3653TIP3   OH235153   4.488   1.636  19.872
 3653TIP3    H135154   4.506   1.543  19.854
 3653TIP3    H235155   4.484   1.642  19.967
 3654TIP3   OH235156   4.823   0.268  19.803
 3654TIP3    H135157   4.753   0.204  19.815
 3654TIP3    H235158   4.888   0.222  19.748
 3655TIP3   OH235159   5.340   0.105  19.797
 3655TIP3    H135160   5.401   0.131  19.728
 3655TIP3    H235161   5.263   0.161  19.783
 3656TIP3   OH235162   5.512   0.148  19.589
 3656TIP3    H135163   5.574   0.077  19.567
 3656TIP3    H235164   5.568   0.222  19.610
 3657TIP3   OH235165   4.040   0.128  19.505
 3657TIP3    H135166   3.965   0.152  19.451
 3657TIP3    H235167   4.046   0.032  19.497
 3658TIP3   OH235168   3.963   0.101  19.141
 3658TIP3    H135169   4.011   0.164  19.088
 3658TIP3    H235170   3.917   0.154  19.207
 3659TIP3   OH235171   4.509   0.111  19.554
 3659TIP3    H135172   4.587   0.130  19.503
 3659TIP3    H235173   4.538   0.118  19.645
 3660TIP3   OH235174   5.023   0.143  19.667
 3660TIP3    H135175   5.055   0.169  19.581
 3660TIP3    H235176   5.046   0.050  19.675
 3661TIP3   OH235177   5.216   0.159  19.251
 3661TIP3    H135178   5.128   0.196  19.260
 3661TIP3    H235179   5.203   0.064  19.254
 3662TIP3   OH235180   3.936   1.672  19.222
 3662TIP3    H135181   3.860   1.664  19.165
 3662TIP3    H235182   3.959   1.765  19.219
 3663TIP3   OH235183   4.138   0.245  18.980
 3663TIP3    H135184   4.188   0.186  18.924
 3663TIP3    H235185   4.200   0.275  19.046
 3664TIP3   OH235186   4.593   0.291  19.237
 3664TIP3    H135187   4.633   0.223  19.291
 3664TIP3    H235188   4.618   0.373  19.280
 3665TIP3   OH235189   4.836   1.775  19.071
 3665TIP3    H135190   4.931   1.785  19.065
 3665TIP3    H235191   4.811   1.733  18.989
 3666TIP3   OH235192   5.476   1.706  19.357
 3666TIP3    H135193   5.447   1.621  19.322
 3666TIP3    H235194   5.462   1.767  19.285
 3667TIP3   OH235195   4.086   1.731  18.913
 3667TIP3    H135196   4.063   1.736  19.005
 3667TIP3    H235197   4.156   1.666  18.909
 3668TIP3   OH235198   6.872   0.987  19.533
 3668TIP3    H135199   6.862   1.082  19.532
 3668TIP3    H235200   6.803   0.955  19.475
 3669TIP3   OH235201   6.726   0.897  19.900
 3669TIP3    H135202   6.766   0.838  19.964
 3669TIP3    H235203   6.678   0.838  19.841
 3670TIP3   OH235204   7.048   1.222  19.687
 3670TIP3    H135205   7.014   1.141  19.726
 3670TIP3    H235206   7.080   1.272  19.762
 3671TIP3   OH235207   6.103   1.335  19.850
 3671TIP3    H135208   6.070   1.247  19.835
 3671TIP3    H235209   6.197   1.323  19.868
 3672TIP3   OH235210   5.741   0.644  19.427
 3672TIP3    H135211   5.720   0.731  19.462
 3672TIP3    H235212   5.663   0.620  19.376
 3673TIP3   OH235213   5.795   0.882  19.610
 3673TIP3    H135214   5.824   0.802  19.653
 3673TIP3    H235215   5.875   0.919  19.574
 3674TIP3   OH235216   6.884   1.708  19.804
 3674TIP3    H135217   6.908   1.652  19.730
 3674TIP3    H235218   6.792   1.688  19.820
 3675TIP3   OH235219   6.600   1.163  19.936
 3675TIP3    H135220   6.634   1.082  19.898
 3675TIP3    H235221   6.651   1.175  20.016
 3676TIP3   OH235222   6.882   0.587  19.947
 3676TIP3    H135223   6.905   0.496  19.965
 3676TIP3    H235224   6.894   0.597  19.852
 3677TIP3   OH235225   6.251   0.398  19.683
 3677TIP3    H135226   6.255   0.481  19.635
 3677TIP3    H235227   6.210   0.337  19.621
 3678TIP3   OH235228   7.014   0.444  19.505
 3678TIP3    H135229   7.060   0.398  19.575
 3678TIP3    H235230   7.084   0.483  19.452
 3679TIP3   OH235231   5.868   0.654  19.740
 3679TIP3    H135232   5.933   0.616  19.799
 3679TIP3    H235233   5.882   0.608  19.657
 3680TIP3   OH235234   6.380   0.777  19.719
 3680TIP3    H135235   6.464   0.736  19.740
 3680TIP3    H235236   6.341   0.719  19.653
 3681TIP3   OH235237   6.798   1.231  19.422
 3681TIP3    H135238   6.797   1.244  19.327
 3681TIP3    H235239   6.762   1.312  19.458
 3682TIP3   OH235240   7.108   0.335  19.740
 3682TIP3    H135241   7.046   0.333  19.813
 3682TIP3    H235242   7.174   0.399  19.767
 3683TIP3   OH235243   6.073   0.518  19.866
 3683TIP3    H135244   6.129   0.591  19.893
 3683TIP3    H235245   6.128   0.466  19.806
 3684TIP3   OH235246   5.796   1.246  19.263
 3684TIP3    H135247   5.788   1.288  19.178
 3684TIP3    H235248   5.816   1.317  19.323
 3685TIP3   OH235249   7.164   1.321  19.922
 3685TIP3    H135250   7.146   1.231  19.949
 3685TIP3    H235251   7.259   1.327  19.918
 3686TIP3   OH235252   6.488   0.098  19.811
 3686TIP3    H135253   6.505   0.006  19.833
 3686TIP3    H235254   6.405   0.118  19.855
 3687TIP3   OH235255   6.969   1.580  19.580
 3687TIP3    H135256   7.001   1.495  19.551
 3687TIP3    H235257   7.045   1.639  19.570
 3688TIP3   OH235258   7.086   1.364  19.461
 3688TIP3    H135259   7.111   1.306  19.389
 3688TIP3    H235260   7.071   1.305  19.535
 3689TIP3   OH235261   6.717   0.924  19.308
 3689TIP3    H135262   6.657   0.995  19.289
 3689TIP3    H235263   6.786   0.931  19.242
 3690TIP3   OH235264   6.748   0.797  18.967
 3690TIP3    H135265   6.800   0.828  19.040
 3690TIP3    H235266   6.799   0.725  18.930
 3691TIP3   OH235267   7.092   0.951  19.373
 3691TIP3    H135268   7.023   0.966  19.438
 3691TIP3    H235269   7.154   0.894  19.418
 3692TIP3   OH235270   6.224   0.983  19.574
 3692TIP3    H135271   6.193   0.946  19.491
 3692TIP3    H235272   6.280   0.915  19.610
 3693TIP3   OH235273   6.389   1.361  19.837
 3693TIP3    H135274   6.378   1.356  19.742
 3693TIP3    H235275   6.455   1.294  19.857
 3694TIP3   OH235276   6.193   0.849  19.905
 3694TIP3    H135277   6.258   0.828  19.838
 3694TIP3    H235278   6.244   0.870  19.983
 3695TIP3   OH235279   6.944   0.892  19.149
 3695TIP3    H135280   6.997   0.914  19.226
 3695TIP3    H235281   6.993   0.930  19.076
 3696TIP3   OH235282   6.718   1.491  19.484
 3696TIP3    H135283   6.796   1.535  19.518
 3696TIP3    H235284   6.688   1.548  19.413
 3697TIP3   OH235285   7.291   0.106  19.050
 3697TIP3    H135286   7.221   0.125  19.113
 3697TIP3    H235287   7.364   0.162  19.077
 3698TIP3   OH235288   6.125   0.896  19.328
 3698TIP3    H135289   6.085   0.968  19.279
 3698TIP3    H235290   6.088   0.817  19.289
 3699TIP3   OH235291   7.469   1.456  18.996
 3699TIP3    H135292   7.479   1.551  19.005
 3699TIP3    H235293   7.558   1.424  18.982
 3700TIP3   OH235294   5.743   1.483  19.885
 3700TIP3    H135295   5.776   1.393  19.883
 3700TIP3    H235296   5.653   1.475  19.917
 3701TIP3   OH235297   6.715   1.794  19.347
 3701TIP3    H135298   6.689   1.790  19.255
 3701TIP3    H235299   6.666   1.868  19.382
 3702TIP3   OH235300   6.038   1.666  19.514
 3702TIP3    H135301   6.052   1.643  19.606
 3702TIP3    H235302   5.975   1.601  19.482
 3703TIP3   OH235303   6.984   1.736  19.034
 3703TIP3    H135304   7.035   1.669  18.989
 3703TIP3    H235305   6.991   1.714  19.127
 3704TIP3   OH235306   6.967   1.698  19.306
 3704TIP3    H135307   6.877   1.720  19.328
 3704TIP3    H235308   6.984   1.616  19.352
 3705TIP3   OH235309   6.243   0.166  19.915
 3705TIP3    H135310   6.165   0.172  19.859
 3705TIP3    H235311   6.253   0.255  19.951
 3706TIP3   OH235312   7.093   0.985  18.945
 3706TIP3    H135313   7.066   0.973  18.854
 3706TIP3    H235314   7.188   0.986  18.943
 3707TIP3   OH235315   6.630   0.346  19.008
 3707TIP3    H135316   6.572   0.335  19.083
 3707TIP3    H235317   6.607   0.274  18.950
 3708TIP3   OH235318   6.238   0.630  19.538
 3708TIP3    H135319   6.144   0.618  19.536
 3708TIP3    H235320   6.267   0.617  19.448
 3709TIP3   OH235321   6.786   0.675  19.403
 3709TIP3    H135322   6.757   0.760  19.371
 3709TIP3    H235323   6.855   0.649  19.342
 3710TIP3   OH235324   6.871   0.622  19.663
 3710TIP3    H135325   6.835   0.671  19.590
 3710TIP3    H235326   6.915   0.547  19.623
 3711TIP3   OH235327   6.321   0.374  18.893
 3711TIP3    H135328   6.283   0.361  18.979
 3711TIP3    H235329   6.268   0.443  18.853
 3712TIP3   OH235330   5.676   0.356  19.630
 3712TIP3    H135331   5.720   0.367  19.714
 3712TIP3    H235332   5.744   0.373  19.565
 3713TIP3   OH235333   5.762   0.445  19.159
 3713TIP3    H135334   5.825   0.489  19.101
 3713TIP3    H235335   5.695   0.511  19.175
 3714TIP3   OH235336   6.528   0.388  19.610
 3714TIP3    H135337   6.439   0.379  19.642
 3714TIP3    H235338   6.583   0.367  19.686
 3715TIP3   OH235339   5.981   0.541  19.511
 3715TIP3    H135340   5.904   0.563  19.458
 3715TIP3    H235341   6.014   0.460  19.472
 3716TIP3   OH235342   6.303   0.576  19.278
 3716TIP3    H135343   6.398   0.568  19.288
 3716TIP3    H235344   6.291   0.617  19.193
 3717TIP3   OH235345   6.925   0.311  19.948
 3717TIP3    H135346   6.928   0.242  20.013
 3717TIP3    H235347   6.842   0.297  19.901
 3718TIP3   OH235348   6.253   0.681  19.030
 3718TIP3    H135349   6.198   0.650  18.957
 3718TIP3    H235350   6.329   0.720  18.987
 3719TIP3   OH235351   6.622   0.650  19.800
 3719TIP3    H135352   6.697   0.631  19.744
 3719TIP3    H235353   6.634   0.594  19.877
 3720TIP3   OH235354   6.122   0.304  19.449
 3720TIP3    H135355   6.055   0.239  19.465
 3720TIP3    H235356   6.185   0.261  19.391
 3721TIP3   OH235357   6.530   1.131  19.231
 3721TIP3    H135358   6.464   1.079  19.185
 3721TIP3    H235359   6.492   1.147  19.317
 3722TIP3   OH235360   6.886   0.394  19.086
 3722TIP3    H135361   6.794   0.396  19.058
 3722TIP3    H235362   6.904   0.483  19.116
 3723TIP3   OH235363   6.982   0.618  19.213
 3723TIP3    H135364   7.069   0.594  19.246
 3723TIP3    H235365   6.994   0.705  19.174
 3724TIP3   OH235366   6.062   1.064  19.787
 3724TIP3    H135367   6.108   1.054  19.703
 3724TIP3    H235368   6.092   0.990  19.839
 3725TIP3   OH235369   6.744   1.275  19.140
 3725TIP3    H135370   6.716   1.365  19.155
 3725TIP3    H235371   6.669   1.222  19.167
 3726TIP3   OH235372   7.424   0.639  19.177
 3726TIP3    H135373   7.378   0.612  19.098
 3726TIP3    H235374   7.466   0.721  19.154
 3727TIP3   OH235375   7.295   1.469  19.215
 3727TIP3    H135376   7.253   1.385  19.233
 3727TIP3    H235377   7.350   1.452  19.138
 3728TIP3   OH235378   6.978   1.018  19.857
 3728TIP3    H135379   6.889   0.983  19.861
 3728TIP3    H235380   7.031   0.943  19.829
 3729TIP3   OH235381   6.296   1.411  19.569
 3729TIP3    H135382   6.319   1.493  19.524
 3729TIP3    H235383   6.201   1.405  19.561
 3730TIP3   OH235384   5.900   0.892  19.016
 3730TIP3    H135385   5.945   0.962  19.064
 3730TIP3    H235386   5.810   0.894  19.049
 3731TIP3   OH235387   6.393   1.175  19.459
 3731TIP3    H135388   6.371   1.260  19.499
 3731TIP3    H235389   6.336   1.112  19.504
 3732TIP3   OH235390   6.300   1.662  19.437
 3732TIP3    H135391   6.206   1.673  19.452
 3732TIP3    H235392   6.339   1.744  19.467
 3733TIP3   OH235393   7.078   1.306  19.022
 3733TIP3    H135394   7.099   1.259  19.102
 3733TIP3    H235395   6.990   1.277  18.999
 3734TIP3   OH235396   7.508   1.726  19.034
 3734TIP3    H135397   7.538   1.783  18.963
 3734TIP3    H235398   7.440   1.777  19.079
 3735TIP3   OH235399   7.190   1.186  19.252
 3735TIP3    H135400   7.148   1.108  19.289
 3735TIP3    H235401   7.282   1.162  19.244
 3736TIP3   OH235402   6.467   1.417  18.850
 3736TIP3    H135403   6.460   1.341  18.793
 3736TIP3    H235404   6.426   1.389  18.932
 3737TIP3   OH235405   6.356   1.347  19.093
 3737TIP3    H135406   6.403   1.288  19.152
 3737TIP3    H235407   6.365   1.433  19.134
 3738TIP3   OH235408   6.007   1.093  19.173
 3738TIP3    H135409   5.933   1.135  19.218
 3738TIP3    H235410   6.048   1.164  19.124
 3739TIP3   OH235411   6.866   0.281  19.335
 3739TIP3    H135412   6.868   0.324  19.249
 3739TIP3    H235413   6.908   0.343  19.394
 3740TIP3   OH235414   6.649   1.528  19.181
 3740TIP3    H135415   6.555   1.544  19.187
 3740TIP3    H235416   6.683   1.602  19.131
 3741TIP3   OH235417   6.563   0.515  19.369
 3741TIP3    H135418   6.642   0.569  19.377
 3741TIP3    H235419   6.550   0.479  19.457
 3742TIP3   OH235420   6.629   0.187  19.437
 3742TIP3    H135421   6.616   0.258  19.499
 3742TIP3    H235422   6.718   0.200  19.405
 3743TIP3   OH235423   6.386   1.603  19.184
 3743TIP3    H135424   6.383   1.687  19.138
 3743TIP3    H235425   6.350   1.622  19.271
 3744TIP3   OH235426   6.219   0.333  19.147
 3744TIP3    H135427   6.207   0.412  19.199
 3744TIP3    H235428   6.305   0.300  19.172
 3745TIP3   OH235429   7.091   0.779  19.751
 3745TIP3    H135430   7.009   0.739  19.722
 3745TIP3    H235431   7.136   0.709  19.798
 3746TIP3   OH235432   6.084   1.314  19.010
 3746TIP3    H135433   6.158   1.359  19.051
 3746TIP3    H235434   6.123   1.256  18.945
 3747TIP3   OH235435   5.878   0.618  18.981
 3747TIP3    H135436   5.904   0.706  19.005
 3747TIP3    H235437   5.830   0.629  18.899
 3748TIP3   OH235438   7.284   1.718  19.930
 3748TIP3    H135439   7.343   1.723  19.855
 3748TIP3    H235440   7.334   1.671  19.997
 3749TIP3   OH235441   6.012   0.153  19.768
 3749TIP3    H135442   5.991   0.161  19.675
 3749TIP3    H235443   5.985   0.065  19.791
 3750TIP3   OH235444   5.850   1.479  19.413
 3750TIP3    H135445   5.783   1.506  19.475
 3750TIP3    H235446   5.842   1.541  19.340
 3751TIP3   OH235447   6.669   1.604  18.857
 3751TIP3    H135448   6.602   1.535  18.860
 3751TIP3    H235449   6.747   1.560  18.822
 3752TIP3   OH235450   7.120   1.546  18.896
 3752TIP3    H135451   7.121   1.464  18.946
 3752TIP3    H235452   7.192   1.536  18.833
 3753TIP3   OH235453   6.219   1.124  18.869
 3753TIP3    H135454   6.253   1.082  18.948
 3753TIP3    H235455   6.294   1.131  18.810
 3754TIP3   OH235456   6.816   1.264  18.874
 3754TIP3    H135457   6.777   1.262  18.961
 3754TIP3    H235458   6.798   1.178  18.837
 3755TIP3   OH235459   6.339   0.984  19.098
 3755TIP3    H135460   6.284   0.930  19.154
 3755TIP3    H235461   6.384   0.922  19.041
 3756TIP3   OH235462   6.469   0.814  18.923
 3756TIP3    H135463   6.465   0.834  18.830
 3756TIP3    H235464   6.562   0.802  18.941
 3757TIP3   OH235465   7.367   0.995  18.877
 3757TIP3    H135466   7.344   0.974  18.787
 3757TIP3    H235467   7.356   1.090  18.883
 3758TIP3   OH235468   6.447   1.855  19.078
 3758TIP3    H135469   6.541   1.837  19.073
 3758TIP3    H235470   6.430   1.917  19.007
 3759TIP3   OH235471   5.808   1.322  18.996
 3759TIP3    H135472   5.903   1.330  18.999
 3759TIP3    H235473   5.792   1.251  18.933
 3760TIP3   OH235474   5.681   1.830  19.486
 3760TIP3    H135475   5.614   1.790  19.431
 3760TIP3    H235476   5.706   1.761  19.547
 3761TIP3   OH235477   5.770   1.645  19.664
 3761TIP3    H135478   5.745   1.573  19.723
 3761TIP3    H235479   5.815   1.707  19.721
 3762TIP3   OH235480   7.463   1.110  19.258
 3762TIP3    H135481   7.546   1.157  19.259
 3762TIP3    H235482   7.467   1.052  19.334
 3763TIP3   OH235483   7.476   0.937  19.471
 3763TIP3    H135484   7.392   0.898  19.493
 3763TIP3    H235485   7.522   0.946  19.554
 3764TIP3   OH235486   7.563   1.159  19.936
 3764TIP3    H135487   7.658   1.146  19.931
 3764TIP3    H235488   7.548   1.243  19.892
 3765TIP3   OH235489   7.503   0.888  19.092
 3765TIP3    H135490   7.457   0.909  19.011
 3765TIP3    H235491   7.488   0.963  19.149
 3766TIP3   OH235492   7.288   0.608  18.942
 3766TIP3    H135493   7.317   0.657  18.864
 3766TIP3    H235494   7.282   0.517  18.912
 3767TIP3   OH235495   7.256   0.790  19.530
 3767TIP3    H135496   7.274   0.697  19.518
 3767TIP3    H235497   7.203   0.794  19.610
 3768TIP3   OH235498   5.729   0.959  19.867
 3768TIP3    H135499   5.734   0.934  19.775
 3768TIP3    H235500   5.820   0.964  19.896
 3769TIP3   OH235501   7.258   0.343  18.864
 3769TIP3    H135502   7.275   0.277  18.931
 3769TIP3    H235503   7.164   0.338  18.848
 3770TIP3   OH235504   7.223   0.538  19.340
 3770TIP3    H135505   7.250   0.447  19.350
 3770TIP3    H235506   7.293   0.578  19.289
 3771TIP3   OH235507   7.231   0.564  19.857
 3771TIP3    H135508   7.325   0.579  19.847
 3771TIP3    H235509   7.218   0.555  19.952
 3772TIP3   OH235510   7.274   0.271  19.374
 3772TIP3    H135511   7.291   0.215  19.449
 3772TIP3    H235512   7.205   0.226  19.325
 3773TIP3   OH235513   5.842   0.354  19.847
 3773TIP3    H135514   5.893   0.274  19.832
 3773TIP3    H235515   5.906   0.417  19.881
 3774TIP3   OH235516   5.650   0.649  19.919
 3774TIP3    H135517   5.721   0.639  19.856
 3774TIP3    H235518   5.664   0.734  19.959
 3775TIP3   OH235519   7.507   0.281  19.043
 3775TIP3    H135520   7.553   0.212  18.996
 3775TIP3    H235521   7.526   0.361  18.994
 3776TIP3   OH235522   5.725   0.248  19.345
 3776TIP3    H135523   5.630   0.246  19.356
 3776TIP3    H235524   5.741   0.324  19.289
 3777TIP3   OH235525   7.176   1.756  19.558
 3777TIP3    H135526   7.214   1.731  19.473
 3777TIP3    H235527   7.241   1.814  19.597
 3778TIP3   OH235528   5.920   1.751  19.878
 3778TIP3    H135529   5.872   1.696  19.940
 3778TIP3    H235530   5.990   1.695  19.846
 3779TIP3   OH235531   6.115   1.595  19.770
 3779TIP3    H135532   6.101   1.504  19.798
 3779TIP3    H235533   6.208   1.611  19.784
 3780TIP3   OH235534   6.386   1.640  19.870
 3780TIP3    H135535   6.401   1.547  19.854
 3780TIP3    H235536   6.354   1.643  19.961
 3781TIP3   OH235537   6.695   0.272  19.799
 3781TIP3    H135538   6.626   0.208  19.812
 3781TIP3    H235539   6.758   0.228  19.741
 3782TIP3   OH235540   7.234   0.089  19.813
 3782TIP3    H135541   7.286   0.101  19.733
 3782TIP3    H235542   7.170   0.160  19.810
 3783TIP3   OH235543   7.368   0.109  19.576
 3783TIP3    H135544   7.425   0.034  19.562
 3783TIP3    H235545   7.428   0.182  19.592
 3784TIP3   OH235546   5.924   0.130  19.506
 3784TIP3    H135547   5.850   0.154  19.451
 3784TIP3    H235548   5.930   0.035  19.497
 3785TIP3   OH235549   5.853   0.099  19.140
 3785TIP3    H135550   5.897   0.163  19.083
 3785TIP3    H235551   5.806   0.152  19.203
 3786TIP3   OH235552   6.392   0.108  19.549
 3786TIP3    H135553   6.470   0.128  19.498
 3786TIP3    H235554   6.421   0.114  19.640
 3787TIP3   OH235555   6.892   0.149  19.662
 3787TIP3    H135556   6.976   0.193  19.644
 3787TIP3    H235557   6.914   0.056  19.665
 3788TIP3   OH235558   7.085   0.141  19.233
 3788TIP3    H135559   7.000   0.177  19.257
 3788TIP3    H235560   7.075   0.047  19.244
 3789TIP3   OH235561   5.825   1.667  19.217
 3789TIP3    H135562   5.746   1.660  19.163
 3789TIP3    H235563   5.845   1.760  19.219
 3790TIP3   OH235564   6.019   0.248  18.972
 3790TIP3    H135565   6.070   0.192  18.914
 3790TIP3    H235566   6.081   0.276  19.039
 3791TIP3   OH235567   6.476   0.294  19.232
 3791TIP3    H135568   6.517   0.225  19.284
 3791TIP3    H235569   6.503   0.375  19.275
 3792TIP3   OH235570   6.712   1.776  19.061
 3792TIP3    H135571   6.807   1.785  19.054
 3792TIP3    H235572   6.686   1.731  18.981
 3793TIP3   OH235573   7.325   1.711  19.333
 3793TIP3    H135574   7.315   1.623  19.296
 3793TIP3    H235575   7.324   1.769  19.257
 3794TIP3   OH235576   5.963   1.736  18.921
 3794TIP3    H135577   5.927   1.752  19.009
 3794TIP3    H235578   6.021   1.660  18.933
 3795TIP3   OH235579   7.534   0.661  19.427
 3795TIP3    H135580   7.515   0.755  19.434
 3795TIP3    H235581   7.498   0.636  19.342
 3796TIP3   OH235582   7.560   1.440  19.898
 3796TIP3    H135583   7.654   1.436  19.881
 3796TIP3    H235584   7.553   1.431  19.993
 3797TIP3   OH235585   7.493   0.351  19.593
 3797TIP3    H135586   7.571   0.390  19.635
 3797TIP3    H235587   7.503   0.372  19.500
 3798TIP3   OH235588   7.479   1.829  19.524
 3798TIP3    H135589   7.438   1.785  19.449
 3798TIP3    H235590   7.484   1.761  19.592
 3799TIP3   OH235591   7.510   1.663  19.741
 3799TIP3    H135592   7.503   1.575  19.779
 3799TIP3    H235593   7.603   1.677  19.728
 3800TIP3   OH235594   7.628   0.864  19.888
 3800TIP3    H135595   7.680   0.879  19.809
 3800TIP3    H235596   7.630   0.947  19.935
 3801TIP3   OH235597   7.496   0.620  19.877
 3801TIP3    H135598   7.570   0.560  19.889
 3801TIP3    H235599   7.535   0.707  19.876
 3802TIP3   OH235600   7.539   0.304  19.316
 3802TIP3    H135601   7.446   0.288  19.334
 3802TIP3    H235602   7.545   0.305  19.221
 3803TIP3   OH235603   1.209   2.864  19.530
 3803TIP3    H135604   1.213   2.959  19.543
 3803TIP3    H235605   1.144   2.853  19.461
 3804TIP3   OH235606   1.081   2.781  19.903
 3804TIP3    H135607   1.119   2.711  19.957
 3804TIP3    H235608   1.028   2.735  19.838
 3805TIP3   OH235609   1.414   3.086  19.693
 3805TIP3    H135610   1.385   3.010  19.743
 3805TIP3    H235611   1.460   3.140  19.757
 3806TIP3   OH235612   0.418   3.208  19.851
 3806TIP3    H135613   0.400   3.121  19.816
 3806TIP3    H235614   0.512   3.206  19.872
 3807TIP3   OH235615   0.118   2.519  19.356
 3807TIP3    H135616   0.147   2.608  19.372
 3807TIP3    H235617   0.029   2.516  19.391
 3808TIP3   OH235618   0.106   2.776  19.672
 3808TIP3    H135619   0.149   2.692  19.689
 3808TIP3    H235620   0.175   2.830  19.633
 3809TIP3   OH235621   1.170   3.622  19.743
 3809TIP3    H135622   1.211   3.566  19.677
 3809TIP3    H235623   1.124   3.561  19.801
 3810TIP3   OH235624   0.949   3.046  19.942
 3810TIP3    H135625   0.989   2.967  19.906
 3810TIP3    H235626   1.006   3.070  20.015
 3811TIP3   OH235627   1.182   2.501  19.936
 3811TIP3    H135628   1.225   2.419  19.960
 3811TIP3    H235629   1.205   2.515  19.844
 3812TIP3   OH235630   0.589   2.259  19.693
 3812TIP3    H135631   0.605   2.343  19.650
 3812TIP3    H235632   0.542   2.207  19.629
 3813TIP3   OH235633   1.318   2.332  19.493
 3813TIP3    H135634   1.365   2.291  19.565
 3813TIP3    H235635   1.386   2.373  19.440
 3814TIP3   OH235636   0.237   2.539  19.726
 3814TIP3    H135637   0.299   2.493  19.783
 3814TIP3    H235638   0.250   2.499  19.640
 3815TIP3   OH235639   0.698   2.655  19.712
 3815TIP3    H135640   0.785   2.623  19.738
 3815TIP3    H235641   0.667   2.590  19.648
 3816TIP3   OH235642   1.153   3.121  19.407
 3816TIP3    H135643   1.147   3.133  19.312
 3816TIP3    H235644   1.116   3.201  19.443
 3817TIP3   OH235645   1.461   2.240  19.703
 3817TIP3    H135646   1.407   2.234  19.782
 3817TIP3    H235647   1.551   2.225  19.734
 3818TIP3   OH235648   0.406   2.381  19.873
 3818TIP3    H135649   0.459   2.419  19.943
 3818TIP3    H235650   0.468   2.333  19.819
 3819TIP3   OH235651   0.109   3.105  19.264
 3819TIP3    H135652   0.106   3.144  19.177
 3819TIP3    H235653   0.142   3.174  19.321
 3820TIP3   OH235654   1.539   3.235  19.892
 3820TIP3    H135655   1.511   3.196  19.974
 3820TIP3    H235656   1.541   3.329  19.908
 3821TIP3   OH235657   0.845   1.934  19.804
 3821TIP3    H135658   0.855   1.841  19.827
 3821TIP3    H235659   0.760   1.959  19.840
 3822TIP3   OH235660   1.307   3.466  19.561
 3822TIP3    H135661   1.348   3.383  19.540
 3822TIP3    H235662   1.379   3.528  19.568
 3823TIP3   OH235663   1.433   3.244  19.473
 3823TIP3    H135664   1.427   3.186  19.397
 3823TIP3    H235665   1.427   3.185  19.549
 3824TIP3   OH235666   1.062   2.821  19.296
 3824TIP3    H135667   1.002   2.893  19.275
 3824TIP3    H235668   1.132   2.829  19.232
 3825TIP3   OH235669   1.094   2.684  18.967
 3825TIP3    H135670   1.149   2.718  19.037
 3825TIP3    H235671   1.147   2.617  18.925
 3826TIP3   OH235672   1.435   2.829  19.376
 3826TIP3    H135673   1.367   2.842  19.442
 3826TIP3    H235674   1.501   2.776  19.420
 3827TIP3   OH235675   0.564   2.862  19.563
 3827TIP3    H135676   0.533   2.824  19.481
 3827TIP3    H235677   0.617   2.792  19.603
 3828TIP3   OH235678   0.717   3.234  19.834
 3828TIP3    H135679   0.714   3.233  19.739
 3828TIP3    H235680   0.789   3.175  19.857
 3829TIP3   OH235681   0.563   2.786  19.913
 3829TIP3    H135682   0.605   2.737  19.842
 3829TIP3    H235683   0.632   2.795  19.979
 3830TIP3   OH235684   1.293   2.780  19.145
 3830TIP3    H135685   1.344   2.802  19.224
 3830TIP3    H235686   1.345   2.816  19.073
 3831TIP3   OH235687   1.058   3.376  19.478
 3831TIP3    H135688   1.139   3.414  19.510
 3831TIP3    H235689   1.032   3.434  19.406
 3832TIP3   OH235690   1.673   1.898  19.157
 3832TIP3    H135691   1.586   1.924  19.186
 3832TIP3    H235692   1.711   1.978  19.121
 3833TIP3   OH235693   0.460   2.771  19.322
 3833TIP3    H135694   0.423   2.843  19.272
 3833TIP3    H235695   0.442   2.693  19.269
 3834TIP3   OH235696   1.786   3.345  18.989
 3834TIP3    H135697   1.803   3.439  18.996
 3834TIP3    H235698   1.872   3.305  19.001
 3835TIP3   OH235699   0.157   3.324  19.896
 3835TIP3    H135700   0.231   3.265  19.878
 3835TIP3    H235701   0.189   3.383  19.964
 3836TIP3   OH235702   1.056   3.680  19.342
 3836TIP3    H135703   1.039   3.686  19.248
 3836TIP3    H235704   1.018   3.760  19.379
 3837TIP3   OH235705   0.395   3.551  19.517
 3837TIP3    H135706   0.406   3.522  19.608
 3837TIP3    H235707   0.322   3.499  19.484
 3838TIP3   OH235708   1.339   3.624  19.028
 3838TIP3    H135709   1.387   3.553  18.986
 3838TIP3    H235710   1.349   3.607  19.122
 3839TIP3   OH235711   1.314   3.602  19.303
 3839TIP3    H135712   1.223   3.621  19.323
 3839TIP3    H235713   1.341   3.538  19.370
 3840TIP3   OH235714   0.595   2.030  19.867
 3840TIP3    H135715   0.503   2.006  19.851
 3840TIP3    H235716   0.604   2.115  19.825
 3841TIP3   OH235717   1.456   2.863  18.948
 3841TIP3    H135718   1.430   2.858  18.856
 3841TIP3    H235719   1.551   2.866  18.947
 3842TIP3   OH235720   0.994   2.209  18.980
 3842TIP3    H135721   0.940   2.204  19.060
 3842TIP3    H235722   0.956   2.143  18.922
 3843TIP3   OH235723   0.594   2.481  19.529
 3843TIP3    H135724   0.499   2.476  19.521
 3843TIP3    H235725   0.627   2.468  19.440
 3844TIP3   OH235726   1.121   2.566  19.384
 3844TIP3    H135727   1.096   2.654  19.356
 3844TIP3    H235728   1.190   2.540  19.323
 3845TIP3   OH235729   1.211   2.534  19.662
 3845TIP3    H135730   1.195   2.608  19.603
 3845TIP3    H235731   1.229   2.460  19.604
 3846TIP3   OH235732   0.649   2.262  18.889
 3846TIP3    H135733   0.615   2.247  18.977
 3846TIP3    H235734   0.591   2.328  18.852
 3847TIP3   OH235735   0.077   2.240  19.622
 3847TIP3    H135736   0.109   2.229  19.712
 3847TIP3    H235737   0.132   2.183  19.569
 3848TIP3   OH235738   0.101   2.331  19.153
 3848TIP3    H135739   0.142   2.375  19.078
 3848TIP3    H235740   0.101   2.398  19.222
 3849TIP3   OH235741   0.888   2.243  19.605
 3849TIP3    H135742   0.802   2.242  19.647
 3849TIP3    H235743   0.949   2.216  19.674
 3850TIP3   OH235744   0.330   2.417  19.496
 3850TIP3    H135745   0.255   2.429  19.437
 3850TIP3    H235746   0.355   2.326  19.485
 3851TIP3   OH235747   0.658   2.437  19.263
 3851TIP3    H135748   0.753   2.433  19.274
 3851TIP3    H235749   0.645   2.486  19.182
 3852TIP3   OH235750   1.276   2.230  19.919
 3852TIP3    H135751   1.289   2.160  19.984
 3852TIP3    H235752   1.200   2.201  19.869
 3853TIP3   OH235753   0.592   2.567  19.024
 3853TIP3    H135754   0.536   2.545  18.949
 3853TIP3    H235755   0.671   2.604  18.986
 3854TIP3   OH235756   0.945   2.550  19.790
 3854TIP3    H135757   1.006   2.528  19.719
 3854TIP3    H235758   0.988   2.517  19.869
 3855TIP3   OH235759   0.441   2.166  19.472
 3855TIP3    H135760   0.395   2.084  19.491
 3855TIP3    H235761   0.476   2.154  19.383
 3856TIP3   OH235762   0.865   3.024  19.229
 3856TIP3    H135763   0.800   2.967  19.187
 3856TIP3    H235764   0.832   3.034  19.319
 3857TIP3   OH235765   1.245   2.260  19.080
 3857TIP3    H135766   1.158   2.263  19.040
 3857TIP3    H235767   1.263   2.352  19.103
 3858TIP3   OH235768   1.323   2.505  19.200
 3858TIP3    H135769   1.411   2.485  19.233
 3858TIP3    H235770   1.330   2.593  19.165
 3859TIP3   OH235771   0.396   2.945  19.766
 3859TIP3    H135772   0.442   2.933  19.682
 3859TIP3    H235773   0.444   2.890  19.827
 3860TIP3   OH235774   1.082   3.156  19.134
 3860TIP3    H135775   1.060   3.248  19.146
 3860TIP3    H235776   1.004   3.108  19.161
 3861TIP3   OH235777   1.786   2.512  19.170
 3861TIP3    H135778   1.742   2.500  19.086
 3861TIP3    H235779   1.822   2.601  19.165
 3862TIP3   OH235780   1.646   3.346  19.234
 3862TIP3    H135781   1.593   3.269  19.256
 3862TIP3    H235782   1.676   3.330  19.145
 3863TIP3   OH235783   1.345   2.878  19.854
 3863TIP3    H135784   1.255   2.845  19.863
 3863TIP3    H235785   1.396   2.802  19.827
 3864TIP3   OH235786   0.629   3.292  19.559
 3864TIP3    H135787   0.667   3.372  19.523
 3864TIP3    H235788   0.544   3.284  19.517
 3865TIP3   OH235789   0.227   2.794  18.996
 3865TIP3    H135790   0.280   2.849  19.053
 3865TIP3    H235791   0.139   2.800  19.032
 3866TIP3   OH235792   0.743   3.054  19.469
 3866TIP3    H135793   0.716   3.139  19.505
 3866TIP3    H235794   0.684   2.991  19.510
 3867TIP3   OH235795   0.656   3.545  19.437
 3867TIP3    H135796   0.563   3.559  19.452
 3867TIP3    H235797   0.698   3.625  19.468
 3868TIP3   OH235798   1.427   3.185  19.004
 3868TIP3    H135799   1.437   3.137  19.085
 3868TIP3    H235800   1.339   3.161  18.972
 3869TIP3   OH235801   1.840   3.614  19.033
 3869TIP3    H135802   1.879   3.684  18.980
 3869TIP3    H235803   1.769   3.657  19.081
 3870TIP3   OH235804   1.521   3.063  19.246
 3870TIP3    H135805   1.480   2.988  19.289
 3870TIP3    H235806   1.613   3.039  19.239
 3871TIP3   OH235807   0.810   3.315  18.855
 3871TIP3    H135808   0.823   3.247  18.789
 3871TIP3    H235809   0.767   3.271  18.927
 3872TIP3   OH235810   0.696   3.229  19.098
 3872TIP3    H135811   0.756   3.175  19.149
 3872TIP3    H235812   0.711   3.318  19.130
 3873TIP3   OH235813   0.339   2.972  19.172
 3873TIP3    H135814   0.265   3.013  19.216
 3873TIP3    H235815   0.384   3.044  19.129
 3874TIP3   OH235816   1.214   2.136  19.324
 3874TIP3    H135817   1.223   2.175  19.237
 3874TIP3    H235818   1.243   2.205  19.384
 3875TIP3   OH235819   0.998   3.411  19.176
 3875TIP3    H135820   0.905   3.433  19.178
 3875TIP3    H235821   1.039   3.487  19.133
 3876TIP3   OH235822   0.917   2.383  19.365
 3876TIP3    H135823   0.990   2.445  19.370
 3876TIP3    H235824   0.911   2.346  19.453
 3877TIP3   OH235825   0.975   2.041  19.426
 3877TIP3    H135826   0.951   2.111  19.487
 3877TIP3    H235827   1.061   2.067  19.393
 3878TIP3   OH235828   0.735   3.488  19.179
 3878TIP3    H135829   0.738   3.574  19.136
 3878TIP3    H235830   0.705   3.508  19.268
 3879TIP3   OH235831   0.569   2.195  19.154
 3879TIP3    H135832   0.580   2.279  19.198
 3879TIP3    H235833   0.653   2.151  19.164
 3880TIP3   OH235834   1.461   2.641  19.744
 3880TIP3    H135835   1.381   2.591  19.729
 3880TIP3    H235836   1.515   2.583  19.799
 3881TIP3   OH235837   0.431   3.191  19.023
 3881TIP3    H135838   0.512   3.227  19.060
 3881TIP3    H235839   0.460   3.142  18.946
 3882TIP3   OH235840   0.211   2.506  18.972
 3882TIP3    H135841   0.240   2.593  19.001
 3882TIP3    H235842   0.193   2.517  18.878
 3883TIP3   OH235843   1.596   3.583  19.936
 3883TIP3    H135844   1.578   3.656  19.877
 3883TIP3    H235845   1.679   3.606  19.978
 3884TIP3   OH235846   0.329   1.990  19.796
 3884TIP3    H135847   0.326   1.977  19.702
 3884TIP3    H235848   0.294   1.909  19.833
 3885TIP3   OH235849   0.200   3.341  19.396
 3885TIP3    H135850   0.122   3.373  19.440
 3885TIP3    H235851   0.213   3.400  19.322
 3886TIP3   OH235852   1.016   3.497  18.856
 3886TIP3    H135853   0.948   3.431  18.858
 3886TIP3    H235854   1.091   3.453  18.817
 3887TIP3   OH235855   1.467   3.430  18.884
 3887TIP3    H135856   1.467   3.345  18.928
 3887TIP3    H235857   1.543   3.426  18.826
 3888TIP3   OH235858   0.568   3.009  18.867
 3888TIP3    H135859   0.600   2.969  18.948
 3888TIP3    H235860   0.647   3.019  18.813
 3889TIP3   OH235861   1.174   3.151  18.874
 3889TIP3    H135862   1.129   3.148  18.958
 3889TIP3    H235863   1.155   3.066  18.834
 3890TIP3   OH235864   0.684   2.861  19.098
 3890TIP3    H135865   0.636   2.798  19.152
 3890TIP3    H235866   0.735   2.808  19.037
 3891TIP3   OH235867   0.815   2.693  18.923
 3891TIP3    H135868   0.809   2.715  18.830
 3891TIP3    H235869   0.909   2.684  18.940
 3892TIP3   OH235870   1.732   2.873  18.880
 3892TIP3    H135871   1.716   2.847  18.789
 3892TIP3    H235872   1.714   2.967  18.882
 3893TIP3   OH235873   0.802   3.740  19.081
 3893TIP3    H135874   0.895   3.721  19.075
 3893TIP3    H235875   0.785   3.803  19.011
 3894TIP3   OH235876   0.150   3.213  19.017
 3894TIP3    H135877   0.242   3.238  19.025
 3894TIP3    H235878   0.146   3.164  18.935
 3895TIP3   OH235879   0.082   3.696  19.487
 3895TIP3    H135880  -0.011   3.720  19.484
 3895TIP3    H235881   0.089   3.633  19.558
 3896TIP3   OH235882   0.124   3.526  19.705
 3896TIP3    H135883   0.136   3.438  19.741
 3896TIP3    H235884   0.172   3.583  19.764
 3897TIP3   OH235885   1.790   2.972  19.266
 3897TIP3    H135886   1.866   3.030  19.274
 3897TIP3    H235887   1.799   2.911  19.339
 3898TIP3   OH235888   1.843   2.782  19.461
 3898TIP3    H135889   1.760   2.745  19.489
 3898TIP3    H235890   1.890   2.801  19.543
 3899TIP3   OH235891   1.856   3.110  19.926
 3899TIP3    H135892   1.895   3.024  19.915
 3899TIP3    H235893   1.788   3.115  19.859
 3900TIP3   OH235894   1.872   2.772  19.092
 3900TIP3    H135895   1.822   2.788  19.012
 3900TIP3    H235896   1.841   2.838  19.154
 3901TIP3   OH235897   1.675   2.492  18.921
 3901TIP3    H135898   1.652   2.543  18.843
 3901TIP3    H235899   1.650   2.402  18.900
 3902TIP3   OH235900   1.606   2.651  19.510
 3902TIP3    H135901   1.587   2.565  19.471
 3902TIP3    H235902   1.562   2.648  19.595
 3903TIP3   OH235903   0.171   2.947  19.941
 3903TIP3    H135904   0.221   2.945  19.860
 3903TIP3    H235905   0.236   2.931  20.010
 3904TIP3   OH235906   1.600   2.240  18.855
 3904TIP3    H135907   1.639   2.178  18.916
 3904TIP3    H235908   1.514   2.205  18.836
 3905TIP3   OH235909   1.563   2.423  19.336
 3905TIP3    H135910   1.580   2.329  19.346
 3905TIP3    H235911   1.635   2.455  19.282
 3906TIP3   OH235912   1.618   2.462  19.879
 3906TIP3    H135913   1.710   2.484  19.895
 3906TIP3    H235914   1.600   2.387  19.936
 3907TIP3   OH235915   1.620   2.153  19.363
 3907TIP3    H135916   1.647   2.113  19.446
 3907TIP3    H235917   1.556   2.092  19.327
 3908TIP3   OH235918   0.177   2.206  19.874
 3908TIP3    H135919   0.235   2.131  19.862
 3908TIP3    H235920   0.235   2.277  19.903
 3909TIP3   OH235921   0.101   2.522  19.970
 3909TIP3    H135922   0.143   2.516  19.884
 3909TIP3    H235923   0.066   2.611  19.974
 3910TIP3   OH235924   1.793   2.114  19.033
 3910TIP3    H135925   1.830   2.061  18.962
 3910TIP3    H235926   1.859   2.181  19.049
 3911TIP3   OH235927   0.109   2.125  19.331
 3911TIP3    H135928   0.016   2.124  19.351
 3911TIP3    H235929   0.120   2.194  19.265
 3912TIP3   OH235930   1.506   3.646  19.552
 3912TIP3    H135931   1.575   3.627  19.489
 3912TIP3    H235932   1.550   3.688  19.626
 3913TIP3   OH235933   0.281   3.632  19.910
 3913TIP3    H135934   0.319   3.657  19.995
 3913TIP3    H235935   0.350   3.581  19.868
 3914TIP3   OH235936   0.454   3.474  19.777
 3914TIP3    H135937   0.447   3.379  19.791
 3914TIP3    H235938   0.546   3.494  19.794
 3915TIP3   OH235939   0.713   3.510  19.876
 3915TIP3    H135940   0.729   3.418  19.856
 3915TIP3    H235941   0.743   3.521  19.966
 3916TIP3   OH235942   1.064   2.111  19.777
 3916TIP3    H135943   0.996   2.046  19.795
 3916TIP3    H235944   1.135   2.061  19.738
 3917TIP3   OH235945   1.569   1.929  19.777
 3917TIP3    H135946   1.628   1.971  19.714
 3917TIP3    H235947   1.482   1.960  19.753
 3918TIP3   OH235948   1.735   2.031  19.583
 3918TIP3    H135949   1.795   1.966  19.545
 3918TIP3    H235950   1.790   2.108  19.597
 3919TIP3   OH235951   0.318   1.930  19.529
 3919TIP3    H135952   0.230   1.916  19.494
 3919TIP3    H235953   0.363   1.846  19.516
 3920TIP3   OH235954   0.213   1.929  19.163
 3920TIP3    H135955   0.251   1.988  19.098
 3920TIP3    H235956   0.178   1.987  19.231
 3921TIP3   OH235957   0.754   1.901  19.538
 3921TIP3    H135958   0.825   1.943  19.490
 3921TIP3    H235959   0.777   1.912  19.631
 3922TIP3   OH235960   1.292   1.966  19.690
 3922TIP3    H135961   1.324   1.942  19.603
 3922TIP3    H235962   1.253   1.885  19.724
 3923TIP3   OH235963   1.433   1.964  19.281
 3923TIP3    H135964   1.353   2.016  19.288
 3923TIP3    H235965   1.404   1.874  19.297
 3924TIP3   OH235966   0.181   3.546  19.216
 3924TIP3    H135967   0.089   3.548  19.191
 3924TIP3    H235968   0.207   3.638  19.220
 3925TIP3   OH235969   0.357   2.102  18.991
 3925TIP3    H135970   0.406   2.044  18.933
 3925TIP3    H235971   0.422   2.132  19.055
 3926TIP3   OH235972   0.843   2.169  19.210
 3926TIP3    H135973   0.876   2.095  19.261
 3926TIP3    H235974   0.870   2.247  19.259
 3927TIP3   OH235975   1.068   3.666  19.060
 3927TIP3    H135976   1.163   3.674  19.055
 3927TIP3    H235977   1.043   3.619  18.981
 3928TIP3   OH235978   1.693   3.586  19.356
 3928TIP3    H135979   1.675   3.499  19.321
 3928TIP3    H235980   1.677   3.645  19.282
 3929TIP3   OH235981   0.332   3.619  18.922
 3929TIP3    H135982   0.301   3.605  19.012
 3929TIP3    H235983   0.408   3.562  18.915
 3930TIP3   OH235984   3.091   2.873  19.530
 3930TIP3    H135985   3.095   2.967  19.547
 3930TIP3    H235986   3.024   2.864  19.462
 3931TIP3   OH235987   2.975   2.787  19.900
 3931TIP3    H135988   3.011   2.717  19.954
 3931TIP3    H235989   2.924   2.743  19.833
 3932TIP3   OH235990   3.294   3.102  19.668
 3932TIP3    H135991   3.270   3.022  19.715
 3932TIP3    H235992   3.325   3.162  19.736
 3933TIP3   OH235993   2.319   3.216  19.839
 3933TIP3    H135994   2.292   3.125  19.823
 3933TIP3    H235995   2.413   3.210  19.857
 3934TIP3   OH235996   1.990   2.524  19.444
 3934TIP3    H135997   1.955   2.612  19.451
 3934TIP3    H235998   1.915   2.469  19.421
 3935TIP3   OH235999   2.057   2.790  19.654
 3935TIP3    H136000   2.081   2.699  19.674
 3935TIP3    H236001   2.134   2.841  19.677
 3936TIP3   OH236002   3.063   3.618  19.738
 3936TIP3    H136003   3.105   3.556  19.679
 3936TIP3    H236004   3.025   3.564  19.808
 3937TIP3   OH236005   2.842   3.047  19.944
 3937TIP3    H136006   2.885   2.967  19.914
 3937TIP3    H236007   2.897   3.079  20.016
 3938TIP3   OH236008   3.075   2.496  19.941
 3938TIP3    H136009   3.116   2.413  19.964
 3938TIP3    H236010   3.095   2.509  19.848
 3939TIP3   OH236011   2.476   2.263  19.699
 3939TIP3    H136012   2.490   2.339  19.644
 3939TIP3    H236013   2.428   2.201  19.644
 3940TIP3   OH236014   3.211   2.331  19.500
 3940TIP3    H136015   3.259   2.286  19.569
 3940TIP3    H236016   3.279   2.372  19.446
 3941TIP3   OH236017   2.105   2.532  19.728
 3941TIP3    H136018   2.169   2.477  19.774
 3941TIP3    H236019   2.061   2.472  19.668
 3942TIP3   OH236020   2.600   2.655  19.710
 3942TIP3    H136021   2.685   2.624  19.739
 3942TIP3    H236022   2.568   2.587  19.650
 3943TIP3   OH236023   3.016   3.131  19.407
 3943TIP3    H136024   3.026   3.144  19.313
 3943TIP3    H236025   2.984   3.214  19.440
 3944TIP3   OH236026   3.359   2.236  19.706
 3944TIP3    H136027   3.308   2.233  19.786
 3944TIP3    H236028   3.447   2.260  19.734
 3945TIP3   OH236029   2.301   2.395  19.870
 3945TIP3    H136030   2.350   2.465  19.913
 3945TIP3    H236031   2.367   2.345  19.822
 3946TIP3   OH236032   2.032   3.122  19.274
 3946TIP3    H136033   2.012   3.160  19.189
 3946TIP3    H236034   2.044   3.197  19.332
 3947TIP3   OH236035   3.387   3.255  19.877
 3947TIP3    H136036   3.407   3.197  19.950
 3947TIP3    H236037   3.416   3.342  19.906
 3948TIP3   OH236038   2.711   1.921  19.797
 3948TIP3    H136039   2.704   1.827  19.815
 3948TIP3    H236040   2.633   1.959  19.836
 3949TIP3   OH236041   3.201   3.453  19.562
 3949TIP3    H136042   3.242   3.370  19.538
 3949TIP3    H236043   3.275   3.514  19.573
 3950TIP3   OH236044   3.341   3.239  19.439
 3950TIP3    H136045   3.339   3.173  19.370
 3950TIP3    H236046   3.329   3.190  19.520
 3951TIP3   OH236047   2.940   2.821  19.298
 3951TIP3    H136048   2.885   2.896  19.274
 3951TIP3    H236049   3.014   2.825  19.237
 3952TIP3   OH236050   2.974   2.688  18.970
 3952TIP3    H136051   3.030   2.720  19.042
 3952TIP3    H236052   3.028   2.622  18.926
 3953TIP3   OH236053   3.316   2.824  19.381
 3953TIP3    H136054   3.250   2.840  19.448
 3953TIP3    H236055   3.383   2.772  19.426
 3954TIP3   OH236056   2.469   2.862  19.576
 3954TIP3    H136057   2.449   2.818  19.494
 3954TIP3    H236058   2.525   2.801  19.624
 3955TIP3   OH236059   2.605   3.231  19.838
 3955TIP3    H136060   2.607   3.237  19.743
 3955TIP3    H236061   2.678   3.173  19.861
 3956TIP3   OH236062   2.418   2.728  19.901
 3956TIP3    H136063   2.481   2.703  19.834
 3956TIP3    H236064   2.471   2.742  19.980
 3957TIP3   OH236065   3.171   2.782  19.153
 3957TIP3    H136066   3.224   2.799  19.231
 3957TIP3    H236067   3.222   2.819  19.081
 3958TIP3   OH236068   2.947   3.397  19.470
 3958TIP3    H136069   3.031   3.417  19.511
 3958TIP3    H236070   2.920   3.480  19.429
 3959TIP3   OH236071   3.561   1.902  19.153
 3959TIP3    H136072   3.475   1.926  19.187
 3959TIP3    H236073   3.597   1.984  19.118
 3960TIP3   OH236074   2.310   2.747  19.299
 3960TIP3    H136075   2.308   2.830  19.251
 3960TIP3    H236076   2.236   2.753  19.360
 3961TIP3   OH236077   3.721   3.352  18.946
 3961TIP3    H136078   3.713   3.443  18.975
 3961TIP3    H236079   3.804   3.322  18.984
 3962TIP3   OH236080   1.978   3.356  19.867
 3962TIP3    H136081   2.050   3.292  19.864
 3962TIP3    H236082   1.906   3.308  19.908
 3963TIP3   OH236083   2.932   3.664  19.346
 3963TIP3    H136084   2.923   3.677  19.252
 3963TIP3    H236085   2.903   3.746  19.385
 3964TIP3   OH236086   2.269   3.554  19.509
 3964TIP3    H136087   2.284   3.534  19.601
 3964TIP3    H236088   2.206   3.488  19.480
 3965TIP3   OH236089   3.222   3.626  19.031
 3965TIP3    H136090   3.270   3.555  18.990
 3965TIP3    H236091   3.234   3.612  19.125
 3966TIP3   OH236092   3.199   3.604  19.308
 3966TIP3    H136093   3.106   3.617  19.329
 3966TIP3    H236094   3.231   3.547  19.377
 3967TIP3   OH236095   2.473   2.025  19.887
 3967TIP3    H136096   2.387   2.006  19.849
 3967TIP3    H236097   2.476   2.121  19.889
 3968TIP3   OH236098   3.323   2.868  18.952
 3968TIP3    H136099   3.300   2.860  18.859
 3968TIP3    H236100   3.419   2.862  18.953
 3969TIP3   OH236101   2.881   2.214  18.985
 3969TIP3    H136102   2.820   2.214  19.059
 3969TIP3    H236103   2.847   2.147  18.926
 3970TIP3   OH236104   2.481   2.481  19.532
 3970TIP3    H136105   2.389   2.472  19.508
 3970TIP3    H236106   2.529   2.474  19.449
 3971TIP3   OH236107   3.009   2.567  19.387
 3971TIP3    H136108   2.984   2.655  19.359
 3971TIP3    H236109   3.079   2.541  19.326
 3972TIP3   OH236110   3.093   2.528  19.664
 3972TIP3    H136111   3.079   2.599  19.601
 3972TIP3    H236112   3.118   2.453  19.611
 3973TIP3   OH236113   2.551   2.271  18.896
 3973TIP3    H136114   2.505   2.235  18.971
 3973TIP3    H236115   2.487   2.328  18.854
 3974TIP3   OH236116   1.905   2.244  19.603
 3974TIP3    H136117   1.966   2.237  19.677
 3974TIP3    H236118   1.955   2.209  19.529
 3975TIP3   OH236119   1.974   2.314  19.122
 3975TIP3    H136120   2.045   2.359  19.077
 3975TIP3    H236121   1.910   2.383  19.142
 3976TIP3   OH236122   2.777   2.239  19.614
 3976TIP3    H136123   2.693   2.233  19.660
 3976TIP3    H236124   2.841   2.207  19.678
 3977TIP3   OH236125   2.244   2.422  19.399
 3977TIP3    H136126   2.154   2.447  19.422
 3977TIP3    H236127   2.250   2.330  19.425
 3978TIP3   OH236128   2.566   2.463  19.265
 3978TIP3    H136129   2.648   2.438  19.308
 3978TIP3    H236130   2.586   2.461  19.172
 3979TIP3   OH236131   3.165   2.225  19.918
 3979TIP3    H136132   3.183   2.154  19.979
 3979TIP3    H236133   3.091   2.194  19.866
 3980TIP3   OH236134   2.451   2.557  19.013
 3980TIP3    H136135   2.411   2.525  18.932
 3980TIP3    H236136   2.533   2.597  18.985
 3981TIP3   OH236137   2.839   2.547  19.794
 3981TIP3    H136138   2.908   2.529  19.731
 3981TIP3    H236139   2.872   2.513  19.877
 3982TIP3   OH236140   2.317   2.158  19.473
 3982TIP3    H136141   2.255   2.086  19.488
 3982TIP3    H236142   2.382   2.121  19.414
 3983TIP3   OH236143   2.753   3.026  19.221
 3983TIP3    H136144   2.687   2.971  19.179
 3983TIP3    H236145   2.720   3.041  19.309
 3984TIP3   OH236146   3.135   2.259  19.083
 3984TIP3    H136147   3.047   2.261  19.045
 3984TIP3    H236148   3.153   2.350  19.107
 3985TIP3   OH236149   3.211   2.503  19.202
 3985TIP3    H136150   3.296   2.481  19.239
 3985TIP3    H236151   3.221   2.591  19.166
 3986TIP3   OH236152   2.281   2.931  19.769
 3986TIP3    H136153   2.343   2.930  19.696
 3986TIP3    H236154   2.316   2.866  19.830
 3987TIP3   OH236155   2.972   3.160  19.125
 3987TIP3    H136156   2.942   3.250  19.136
 3987TIP3    H236157   2.899   3.106  19.155
 3988TIP3   OH236158   3.669   2.519  19.183
 3988TIP3    H136159   3.626   2.498  19.100
 3988TIP3    H236160   3.704   2.607  19.170
 3989TIP3   OH236161   3.529   3.332  19.253
 3989TIP3    H136162   3.464   3.314  19.321
 3989TIP3    H236163   3.556   3.245  19.222
 3990TIP3   OH236164   3.233   2.892  19.831
 3990TIP3    H136165   3.146   2.858  19.852
 3990TIP3    H236166   3.287   2.814  19.817
 3991TIP3   OH236167   2.530   3.301  19.566
 3991TIP3    H136168   2.561   3.383  19.527
 3991TIP3    H236169   2.435   3.305  19.559
 3992TIP3   OH236170   2.139   2.772  19.025
 3992TIP3    H136171   2.180   2.849  19.065
 3992TIP3    H236172   2.047   2.778  19.050
 3993TIP3   OH236173   2.620   3.065  19.453
 3993TIP3    H136174   2.605   3.151  19.493
 3993TIP3    H236175   2.574   3.003  19.510
 3994TIP3   OH236176   2.533   3.553  19.434
 3994TIP3    H136177   2.439   3.567  19.451
 3994TIP3    H236178   2.574   3.634  19.464
 3995TIP3   OH236179   3.304   3.184  19.019
 3995TIP3    H136180   3.329   3.138  19.099
 3995TIP3    H236181   3.212   3.162  19.007
 3996TIP3   OH236182   3.730   3.611  19.040
 3996TIP3    H136183   3.788   3.678  19.002
 3996TIP3    H236184   3.658   3.661  19.078
 3997TIP3   OH236185   3.402   3.046  19.243
 3997TIP3    H136186   3.363   2.972  19.289
 3997TIP3    H236187   3.496   3.025  19.240
 3998TIP3   OH236188   2.685   3.304  18.852
 3998TIP3    H136189   2.717   3.228  18.802
 3998TIP3    H236190   2.655   3.267  18.935
 3999TIP3   OH236191   2.576   3.236  19.104
 3999TIP3    H136192   2.638   3.184  19.154
 3999TIP3    H236193   2.589   3.326  19.135
 4000TIP3   OH236194   2.249   2.984  19.167
 4000TIP3    H136195   2.177   3.027  19.214
 4000TIP3    H236196   2.293   3.055  19.121
 4001TIP3   OH236197   3.112   2.135  19.328
 4001TIP3    H136198   3.123   2.172  19.240
 4001TIP3    H236199   3.143   2.203  19.387
 4002TIP3   OH236200   2.860   3.404  19.152
 4002TIP3    H136201   2.771   3.436  19.169
 4002TIP3    H236202   2.911   3.483  19.138
 4003TIP3   OH236203   2.801   2.389  19.385
 4003TIP3    H136204   2.877   2.446  19.386
 4003TIP3    H236205   2.804   2.345  19.471
 4004TIP3   OH236206   2.867   2.046  19.418
 4004TIP3    H136207   2.847   2.111  19.485
 4004TIP3    H236208   2.954   2.069  19.387
 4005TIP3   OH236209   2.600   3.499  19.175
 4005TIP3    H136210   2.615   3.585  19.136
 4005TIP3    H236211   2.575   3.517  19.265
 4006TIP3   OH236212   2.463   2.141  19.128
 4006TIP3    H136213   2.543   2.176  19.166
 4006TIP3    H236214   2.481   2.047  19.116
 4007TIP3   OH236215   3.346   2.640  19.750
 4007TIP3    H136216   3.266   2.589  19.738
 4007TIP3    H236217   3.402   2.583  19.804
 4008TIP3   OH236218   2.309   3.249  19.027
 4008TIP3    H136219   2.284   3.324  19.081
 4008TIP3    H236220   2.401   3.235  19.048
 4009TIP3   OH236221   2.136   2.501  18.996
 4009TIP3    H136222   2.137   2.597  19.005
 4009TIP3    H236223   2.096   2.486  18.910
 4010TIP3   OH236224   3.480   3.578  19.930
 4010TIP3    H136225   3.462   3.652  19.872
 4010TIP3    H236226   3.563   3.600  19.973
 4011TIP3   OH236227   2.218   2.002  19.770
 4011TIP3    H136228   2.204   1.980  19.678
 4011TIP3    H236229   2.192   1.923  19.818
 4012TIP3   OH236230   2.075   3.368  19.411
 4012TIP3    H136231   2.018   3.402  19.480
 4012TIP3    H236232   2.063   3.428  19.338
 4013TIP3   OH236233   2.895   3.497  18.858
 4013TIP3    H136234   2.831   3.426  18.868
 4013TIP3    H236235   2.973   3.455  18.822
 4014TIP3   OH236236   3.345   3.427  18.889
 4014TIP3    H136237   3.350   3.344  18.936
 4014TIP3    H236238   3.422   3.426  18.832
 4015TIP3   OH236239   2.479   3.050  18.882
 4015TIP3    H136240   2.503   3.000  18.959
 4015TIP3    H236241   2.546   3.030  18.817
 4016TIP3   OH236242   3.012   3.162  18.854
 4016TIP3    H136243   2.992   3.155  18.947
 4016TIP3    H236244   3.014   3.072  18.822
 4017TIP3   OH236245   2.564   2.870  19.092
 4017TIP3    H136246   2.508   2.812  19.143
 4017TIP3    H236247   2.614   2.811  19.035
 4018TIP3   OH236248   2.687   2.683  18.932
 4018TIP3    H136249   2.679   2.701  18.838
 4018TIP3    H236250   2.781   2.676  18.948
 4019TIP3   OH236251   3.590   2.877  18.894
 4019TIP3    H136252   3.590   2.856  18.801
 4019TIP3    H236253   3.584   2.972  18.898
 4020TIP3   OH236254   2.685   3.739  19.073
 4020TIP3    H136255   2.780   3.724  19.075
 4020TIP3    H236256   2.673   3.807  19.007
 4021TIP3   OH236257   2.020   3.193  19.008
 4021TIP3    H136258   2.113   3.207  18.991
 4021TIP3    H236259   1.992   3.132  18.940
 4022TIP3   OH236260   1.907   3.707  19.475
 4022TIP3    H136261   1.837   3.666  19.424
 4022TIP3    H236262   1.934   3.640  19.538
 4023TIP3   OH236263   2.001   3.529  19.657
 4023TIP3    H136264   1.975   3.459  19.718
 4023TIP3    H236265   2.046   3.593  19.712
 4024TIP3   OH236266   3.673   2.988  19.262
 4024TIP3    H136267   3.754   3.038  19.263
 4024TIP3    H236268   3.680   2.929  19.337
 4025TIP3   OH236269   3.712   2.806  19.461
 4025TIP3    H136270   3.637   2.755  19.491
 4025TIP3    H236271   3.773   2.805  19.534
 4026TIP3   OH236272   3.730   3.110  19.930
 4026TIP3    H136273   3.784   3.031  19.928
 4026TIP3    H236274   3.705   3.125  19.839
 4027TIP3   OH236275   3.742   2.774  19.098
 4027TIP3    H136276   3.691   2.791  19.019
 4027TIP3    H236277   3.716   2.842  19.159
 4028TIP3   OH236278   3.561   2.497  18.931
 4028TIP3    H136279   3.570   2.551  18.852
 4028TIP3    H236280   3.536   2.411  18.899
 4029TIP3   OH236281   3.489   2.652  19.514
 4029TIP3    H136282   3.476   2.564  19.479
 4029TIP3    H236283   3.448   2.649  19.601
 4030TIP3   OH236284   1.952   2.847  19.901
 4030TIP3    H136285   1.971   2.825  19.809
 4030TIP3    H236286   2.037   2.839  19.945
 4031TIP3   OH236287   3.491   2.248  18.841
 4031TIP3    H136288   3.533   2.193  18.908
 4031TIP3    H236289   3.403   2.212  18.833
 4032TIP3   OH236290   3.446   2.422  19.342
 4032TIP3    H136291   3.466   2.330  19.353
 4032TIP3    H236292   3.520   2.456  19.291
 4033TIP3   OH236293   3.508   2.456  19.878
 4033TIP3    H136294   3.599   2.488  19.879
 4033TIP3    H236295   3.502   2.398  19.954
 4034TIP3   OH236296   3.503   2.156  19.371
 4034TIP3    H136297   3.540   2.118  19.451
 4034TIP3    H236298   3.445   2.088  19.337
 4035TIP3   OH236299   2.080   2.235  19.816
 4035TIP3    H136300   2.117   2.147  19.809
 4035TIP3    H236301   2.146   2.285  19.865
 4036TIP3   OH236302   1.884   2.495  19.931
 4036TIP3    H136303   1.948   2.444  19.881
 4036TIP3    H236304   1.926   2.580  19.944
 4037TIP3   OH236305   3.668   2.120  19.020
 4037TIP3    H136306   3.711   2.061  18.958
 4037TIP3    H236307   3.737   2.181  19.047
 4038TIP3   OH236308   1.924   2.143  19.330
 4038TIP3    H136309   1.829   2.138  19.324
 4038TIP3    H236310   1.949   2.201  19.258
 4039TIP3   OH236311   3.399   3.636  19.550
 4039TIP3    H136312   3.470   3.622  19.488
 4039TIP3    H236313   3.439   3.684  19.622
 4040TIP3   OH236314   2.146   3.646  19.872
 4040TIP3    H136315   2.121   3.611  19.957
 4040TIP3    H236316   2.214   3.587  19.840
 4041TIP3   OH236317   2.335   3.481  19.766
 4041TIP3    H136318   2.323   3.390  19.792
 4041TIP3    H236319   2.424   3.502  19.793
 4042TIP3   OH236320   2.589   3.509  19.876
 4042TIP3    H136321   2.607   3.416  19.864
 4042TIP3    H236322   2.599   3.524  19.970
 4043TIP3   OH236323   2.949   2.098  19.777
 4043TIP3    H136324   2.884   2.030  19.793
 4043TIP3    H236325   3.023   2.052  19.738
 4044TIP3   OH236326   3.461   1.920  19.768
 4044TIP3    H136327   3.524   1.966  19.713
 4044TIP3    H236328   3.378   1.966  19.753
 4045TIP3   OH236329   3.631   2.030  19.580
 4045TIP3    H136330   3.692   1.966  19.544
 4045TIP3    H236331   3.687   2.106  19.601
 4046TIP3   OH236332   2.164   1.930  19.509
 4046TIP3    H136333   2.073   1.915  19.484
 4046TIP3    H236334   2.206   1.844  19.500
 4047TIP3   OH236335   2.058   1.933  19.140
 4047TIP3    H136336   2.100   1.994  19.081
 4047TIP3    H236337   2.011   1.988  19.203
 4048TIP3   OH236338   2.636   1.909  19.526
 4048TIP3    H136339   2.714   1.941  19.480
 4048TIP3    H236340   2.659   1.913  19.619
 4049TIP3   OH236341   3.176   1.972  19.683
 4049TIP3    H136342   3.218   1.959  19.598
 4049TIP3    H236343   3.144   1.885  19.707
 4050TIP3   OH236344   3.326   1.957  19.289
 4050TIP3    H136345   3.246   2.009  19.297
 4050TIP3    H236346   3.297   1.867  19.301
 4051TIP3   OH236347   2.054   3.545  19.201
 4051TIP3    H136348   1.971   3.544  19.153
 4051TIP3    H236349   2.076   3.638  19.208
 4052TIP3   OH236350   2.225   2.103  18.978
 4052TIP3    H136351   2.265   2.040  18.918
 4052TIP3    H236352   2.293   2.124  19.041
 4053TIP3   OH236353   2.720   2.189  19.214
 4053TIP3    H136354   2.754   2.107  19.249
 4053TIP3    H236355   2.758   2.257  19.270
 4054TIP3   OH236356   2.951   3.663  19.067
 4054TIP3    H136357   3.046   3.673  19.059
 4054TIP3    H236358   2.926   3.616  18.987
 4055TIP3   OH236359   3.583   3.584  19.347
 4055TIP3    H136360   3.570   3.498  19.308
 4055TIP3    H236361   3.569   3.645  19.274
 4056TIP3   OH236362   2.179   3.560  18.906
 4056TIP3    H136363   2.160   3.593  18.994
 4056TIP3    H236364   2.272   3.541  18.906
 4057TIP3   OH236365   4.983   2.882  19.534
 4057TIP3    H136366   4.963   2.970  19.502
 4057TIP3    H236367   4.903   2.853  19.578
 4058TIP3   OH236368   4.887   2.829  19.970
 4058TIP3    H136369   4.879   2.742  20.009
 4058TIP3    H236370   4.837   2.823  19.888
 4059TIP3   OH236371   5.207   3.094  19.703
 4059TIP3    H136372   5.165   3.015  19.736
 4059TIP3    H236373   5.262   3.124  19.776
 4060TIP3   OH236374   4.198   3.229  19.861
 4060TIP3    H136375   4.172   3.139  19.841
 4060TIP3    H236376   4.292   3.223  19.876
 4061TIP3   OH236377   3.839   2.507  19.422
 4061TIP3    H136378   3.833   2.598  19.453
 4061TIP3    H236379   3.774   2.502  19.352
 4062TIP3   OH236380   3.924   2.775  19.643
 4062TIP3    H136381   3.947   2.688  19.674
 4062TIP3    H236382   4.008   2.816  19.621
 4063TIP3   OH236383   4.942   3.626  19.770
 4063TIP3    H136384   4.983   3.565  19.708
 4063TIP3    H236385   4.874   3.575  19.813
 4064TIP3   OH236386   4.696   3.067  19.894
 4064TIP3    H136387   4.701   3.003  19.823
 4064TIP3    H236388   4.756   3.033  19.960
 4065TIP3   OH236389   4.996   2.498  19.935
 4065TIP3    H136390   5.022   2.406  19.938
 4065TIP3    H236391   5.005   2.522  19.842
 4066TIP3   OH236392   4.351   2.255  19.684
 4066TIP3    H136393   4.367   2.337  19.637
 4066TIP3    H236394   4.305   2.200  19.621
 4067TIP3   OH236395   5.089   2.317  19.499
 4067TIP3    H136396   5.140   2.281  19.571
 4067TIP3    H236397   5.149   2.376  19.454
 4068TIP3   OH236398   3.994   2.526  19.732
 4068TIP3    H136399   4.057   2.488  19.794
 4068TIP3    H236400   4.017   2.486  19.648
 4069TIP3   OH236401   4.433   2.686  19.700
 4069TIP3    H136402   4.525   2.710  19.698
 4069TIP3    H236403   4.426   2.611  19.641
 4070TIP3   OH236404   4.930   3.133  19.419
 4070TIP3    H136405   4.917   3.134  19.325
 4070TIP3    H236406   4.887   3.212  19.451
 4071TIP3   OH236407   5.246   2.234  19.708
 4071TIP3    H136408   5.182   2.224  19.779
 4071TIP3    H236409   5.320   2.279  19.749
 4072TIP3   OH236410   4.190   2.388  19.868
 4072TIP3    H136411   4.252   2.448  19.909
 4072TIP3    H236412   4.242   2.335  19.809
 4073TIP3   OH236413   3.912   3.129  19.257
 4073TIP3    H136414   3.917   3.170  19.171
 4073TIP3    H236415   3.931   3.200  19.319
 4074TIP3   OH236416   5.340   3.221  19.919
 4074TIP3    H136417   5.259   3.207  19.967
 4074TIP3    H236418   5.342   3.315  19.901
 4075TIP3   OH236419   4.591   1.906  19.809
 4075TIP3    H136420   4.568   1.815  19.823
 4075TIP3    H236421   4.516   1.955  19.843
 4076TIP3   OH236422   5.077   3.477  19.584
 4076TIP3    H136423   5.115   3.393  19.561
 4076TIP3    H236424   5.148   3.540  19.571
 4077TIP3   OH236425   5.202   3.258  19.486
 4077TIP3    H136426   5.182   3.203  19.411
 4077TIP3    H236427   5.203   3.197  19.560
 4078TIP3   OH236428   4.816   2.781  19.252
 4078TIP3    H136429   4.766   2.863  19.245
 4078TIP3    H236430   4.897   2.799  19.204
 4079TIP3   OH236431   4.899   2.613  18.948
 4079TIP3    H136432   4.931   2.668  19.020
 4079TIP3    H236433   4.974   2.560  18.922
 4080TIP3   OH236434   5.201   2.826  19.376
 4080TIP3    H136435   5.128   2.840  19.436
 4080TIP3    H236436   5.262   2.771  19.424
 4081TIP3   OH236437   4.284   2.881  19.575
 4081TIP3    H136438   4.275   2.849  19.485
 4081TIP3    H236439   4.347   2.822  19.616
 4082TIP3   OH236440   4.484   3.247  19.845
 4082TIP3    H136441   4.475   3.241  19.750
 4082TIP3    H236442   4.554   3.187  19.866
 4083TIP3   OH236443   4.294   2.756  19.924
 4083TIP3    H136444   4.338   2.727  19.844
 4083TIP3    H236445   4.363   2.757  19.990
 4084TIP3   OH236446   5.074   2.758  19.140
 4084TIP3    H136447   5.116   2.785  19.222
 4084TIP3    H236448   5.126   2.801  19.072
 4085TIP3   OH236449   4.834   3.395  19.480
 4085TIP3    H136450   4.913   3.429  19.522
 4085TIP3    H236451   4.802   3.467  19.425
 4086TIP3   OH236452   5.447   1.896  19.161
 4086TIP3    H136453   5.360   1.918  19.192
 4086TIP3    H236454   5.483   1.978  19.128
 4087TIP3   OH236455   4.233   2.763  19.331
 4087TIP3    H136456   4.205   2.835  19.274
 4087TIP3    H236457   4.204   2.684  19.285
 4088TIP3   OH236458   5.563   3.332  19.007
 4088TIP3    H136459   5.582   3.426  19.006
 4088TIP3    H236460   5.649   3.290  18.997
 4089TIP3   OH236461   3.877   3.342  19.872
 4089TIP3    H136462   3.961   3.295  19.875
 4089TIP3    H236463   3.816   3.286  19.920
 4090TIP3   OH236464   4.817   3.668  19.352
 4090TIP3    H136465   4.802   3.670  19.257
 4090TIP3    H236466   4.783   3.751  19.383
 4091TIP3   OH236467   4.145   3.554  19.515
 4091TIP3    H136468   4.166   3.531  19.606
 4091TIP3    H236469   4.088   3.484  19.485
 4092TIP3   OH236470   5.104   3.620  19.031
 4092TIP3    H136471   5.149   3.548  18.987
 4092TIP3    H236472   5.109   3.598  19.124
 4093TIP3   OH236473   5.078   3.593  19.304
 4093TIP3    H136474   4.987   3.611  19.328
 4093TIP3    H236475   5.103   3.519  19.360
 4094TIP3   OH236476   4.358   2.037  19.881
 4094TIP3    H136477   4.269   2.014  19.855
 4094TIP3    H236478   4.371   2.126  19.847
 4095TIP3   OH236479   5.238   2.870  18.958
 4095TIP3    H136480   5.210   2.854  18.867
 4095TIP3    H236481   5.333   2.877  18.953
 4096TIP3   OH236482   4.771   2.203  18.979
 4096TIP3    H136483   4.717   2.199  19.058
 4096TIP3    H236484   4.731   2.138  18.920
 4097TIP3   OH236485   4.354   2.480  19.526
 4097TIP3    H136486   4.259   2.473  19.517
 4097TIP3    H236487   4.386   2.478  19.436
 4098TIP3   OH236488   4.902   2.556  19.386
 4098TIP3    H136489   4.868   2.640  19.355
 4098TIP3    H236490   4.969   2.532  19.322
 4099TIP3   OH236491   5.001   2.550  19.666
 4099TIP3    H136492   4.938   2.618  19.640
 4099TIP3    H236493   4.992   2.483  19.598
 4100TIP3   OH236494   4.428   2.252  18.879
 4100TIP3    H136495   4.393   2.245  18.968
 4100TIP3    H236496   4.372   2.317  18.836
 4101TIP3   OH236497   3.782   2.249  19.630
 4101TIP3    H136498   3.838   2.247  19.708
 4101TIP3    H236499   3.826   2.311  19.571
 4102TIP3   OH236500   3.850   2.314  19.112
 4102TIP3    H136501   3.918   2.356  19.058
 4102TIP3    H236502   3.795   2.387  19.141
 4103TIP3   OH236503   4.668   2.231  19.604
 4103TIP3    H136504   4.584   2.254  19.646
 4103TIP3    H236505   4.728   2.219  19.677
 4104TIP3   OH236506   4.087   2.406  19.502
 4104TIP3    H136507   4.008   2.422  19.450
 4104TIP3    H236508   4.112   2.316  19.480
 4105TIP3   OH236509   4.452   2.445  19.263
 4105TIP3    H136510   4.537   2.426  19.301
 4105TIP3    H236511   4.472   2.497  19.185
 4106TIP3   OH236512   5.050   2.223  19.914
 4106TIP3    H136513   5.048   2.168  19.993
 4106TIP3    H236514   4.974   2.195  19.863
 4107TIP3   OH236515   4.271   2.556  18.979
 4107TIP3    H136516   4.267   2.523  18.889
 4107TIP3    H236517   4.365   2.565  18.997
 4108TIP3   OH236518   4.716   2.494  19.830
 4108TIP3    H136519   4.712   2.580  19.787
 4108TIP3    H236520   4.802   2.492  19.872
 4109TIP3   OH236521   4.200   2.155  19.458
 4109TIP3    H136522   4.144   2.079  19.476
 4109TIP3    H236523   4.245   2.133  19.377
 4110TIP3   OH236524   4.640   3.016  19.217
 4110TIP3    H136525   4.573   2.963  19.173
 4110TIP3    H236526   4.607   3.027  19.306
 4111TIP3   OH236527   5.023   2.250  19.077
 4111TIP3    H136528   4.935   2.253  19.040
 4111TIP3    H236529   5.043   2.340  19.101
 4112TIP3   OH236530   5.103   2.487  19.204
 4112TIP3    H136531   5.192   2.473  19.237
 4112TIP3    H236532   5.106   2.574  19.163
 4113TIP3   OH236533   4.158   2.961  19.802
 4113TIP3    H136534   4.197   2.951  19.715
 4113TIP3    H236535   4.199   2.894  19.855
 4114TIP3   OH236536   4.861   3.155  19.147
 4114TIP3    H136537   4.828   3.244  19.157
 4114TIP3    H236538   4.786   3.099  19.166
 4115TIP3   OH236539   5.555   2.511  19.173
 4115TIP3    H136540   5.522   2.494  19.085
 4115TIP3    H236541   5.588   2.601  19.169
 4116TIP3   OH236542   5.411   3.345  19.241
 4116TIP3    H136543   5.356   3.270  19.261
 4116TIP3    H236544   5.448   3.326  19.155
 4117TIP3   OH236545   5.149   2.877  19.870
 4117TIP3    H136546   5.060   2.862  19.902
 4117TIP3    H236547   5.168   2.798  19.819
 4118TIP3   OH236548   4.410   3.292  19.573
 4118TIP3    H136549   4.435   3.374  19.532
 4118TIP3    H236550   4.323   3.272  19.537
 4119TIP3   OH236551   3.997   2.805  19.002
 4119TIP3    H136552   4.056   2.851  19.062
 4119TIP3    H236553   3.916   2.794  19.052
 4120TIP3   OH236554   4.541   3.063  19.464
 4120TIP3    H136555   4.502   3.137  19.510
 4120TIP3    H236556   4.567   3.003  19.533
 4121TIP3   OH236557   4.410   3.552  19.444
 4121TIP3    H136558   4.316   3.565  19.458
 4121TIP3    H236559   4.450   3.634  19.474
 4122TIP3   OH236560   5.188   3.189  19.016
 4122TIP3    H136561   5.204   3.140  19.096
 4122TIP3    H236562   5.099   3.165  18.991
 4123TIP3   OH236563   5.619   3.606  19.030
 4123TIP3    H136564   5.630   3.653  18.948
 4123TIP3    H236565   5.545   3.649  19.073
 4124TIP3   OH236566   5.286   3.069  19.255
 4124TIP3    H136567   5.241   2.994  19.294
 4124TIP3    H236568   5.377   3.040  19.245
 4125TIP3   OH236569   4.563   3.335  18.877
 4125TIP3    H136570   4.580   3.259  18.821
 4125TIP3    H236571   4.525   3.298  18.957
 4126TIP3   OH236572   4.455   3.240  19.116
 4126TIP3    H136573   4.517   3.182  19.159
 4126TIP3    H236574   4.473   3.326  19.153
 4127TIP3   OH236575   4.129   2.969  19.181
 4127TIP3    H136576   4.062   3.018  19.228
 4127TIP3    H236577   4.185   3.036  19.142
 4128TIP3   OH236578   4.993   2.129  19.324
 4128TIP3    H136579   5.000   2.169  19.237
 4128TIP3    H236580   5.018   2.199  19.384
 4129TIP3   OH236581   4.753   3.403  19.168
 4129TIP3    H136582   4.663   3.430  19.181
 4129TIP3    H236583   4.794   3.478  19.125
 4130TIP3   OH236584   4.697   2.376  19.370
 4130TIP3    H136585   4.767   2.441  19.374
 4130TIP3    H236586   4.693   2.339  19.458
 4131TIP3   OH236587   4.752   2.037  19.424
 4131TIP3    H136588   4.728   2.106  19.486
 4131TIP3    H236589   4.837   2.065  19.390
 4132TIP3   OH236590   4.498   3.501  19.189
 4132TIP3    H136591   4.500   3.585  19.143
 4132TIP3    H236592   4.465   3.521  19.276
 4133TIP3   OH236593   4.348   2.206  19.145
 4133TIP3    H136594   4.359   2.290  19.190
 4133TIP3    H236595   4.432   2.162  19.157
 4134TIP3   OH236596   5.250   2.642  19.735
 4134TIP3    H136597   5.164   2.609  19.711
 4134TIP3    H236598   5.291   2.571  19.784
 4135TIP3   OH236599   4.200   3.196  19.019
 4135TIP3    H136600   4.273   3.239  19.064
 4135TIP3    H236601   4.242   3.141  18.953
 4136TIP3   OH236602   3.996   2.508  18.973
 4136TIP3    H136603   4.090   2.520  18.985
 4136TIP3    H236604   3.961   2.597  18.968
 4137TIP3   OH236605   5.403   3.565  19.919
 4137TIP3    H136606   5.372   3.633  19.858
 4137TIP3    H236607   5.425   3.613  19.999
 4138TIP3   OH236608   4.100   2.000  19.776
 4138TIP3    H136609   4.087   1.987  19.683
 4138TIP3    H236610   4.070   1.919  19.817
 4139TIP3   OH236611   3.956   3.360  19.414
 4139TIP3    H136612   3.898   3.393  19.483
 4139TIP3    H236613   3.949   3.425  19.344
 4140TIP3   OH236614   4.769   3.513  18.867
 4140TIP3    H136615   4.702   3.445  18.873
 4140TIP3    H236616   4.846   3.467  18.831
 4141TIP3   OH236617   5.235   3.428  18.888
 4141TIP3    H136618   5.230   3.342  18.931
 4141TIP3    H236619   5.307   3.419  18.825
 4142TIP3   OH236620   4.343   3.030  18.862
 4142TIP3    H136621   4.371   2.965  18.926
 4142TIP3    H236622   4.424   3.056  18.818
 4143TIP3   OH236623   4.925   3.168  18.879
 4143TIP3    H136624   4.887   3.158  18.966
 4143TIP3    H236625   4.907   3.085  18.835
 4144TIP3   OH236626   4.454   2.868  19.074
 4144TIP3    H136627   4.428   2.785  19.115
 4144TIP3    H236628   4.508   2.841  19.000
 4145TIP3   OH236629   4.552   2.572  19.004
 4145TIP3    H136630   4.555   2.635  18.932
 4145TIP3    H236631   4.643   2.547  19.019
 4146TIP3   OH236632   5.511   2.879  18.879
 4146TIP3    H136633   5.495   2.853  18.788
 4146TIP3    H236634   5.491   2.972  18.881
 4147TIP3   OH236635   4.565   3.746  19.073
 4147TIP3    H136636   4.659   3.724  19.075
 4147TIP3    H236637   4.556   3.809  19.001
 4148TIP3   OH236638   3.933   3.178  18.973
 4148TIP3    H136639   4.025   3.200  18.987
 4148TIP3    H236640   3.934   3.089  18.939
 4149TIP3   OH236641   3.788   3.705  19.482
 4149TIP3    H136642   3.724   3.663  19.425
 4149TIP3    H236643   3.815   3.637  19.543
 4150TIP3   OH236644   3.876   3.523  19.665
 4150TIP3    H136645   3.858   3.450  19.724
 4150TIP3    H236646   3.923   3.587  19.718
 4151TIP3   OH236647   5.554   2.979  19.261
 4151TIP3    H136648   5.631   3.036  19.262
 4151TIP3    H236649   5.567   2.920  19.335
 4152TIP3   OH236650   5.612   2.792  19.454
 4152TIP3    H136651   5.529   2.746  19.466
 4152TIP3    H236652   5.642   2.809  19.543
 4153TIP3   OH236653   5.642   3.138  19.903
 4153TIP3    H136654   5.671   3.047  19.898
 4153TIP3    H236655   5.547   3.133  19.892
 4154TIP3   OH236656   5.635   2.772  19.096
 4154TIP3    H136657   5.593   2.788  19.012
 4154TIP3    H236658   5.599   2.838  19.155
 4155TIP3   OH236659   5.490   2.484  18.911
 4155TIP3    H136660   5.473   2.549  18.843
 4155TIP3    H236661   5.446   2.405  18.881
 4156TIP3   OH236662   5.390   2.644  19.497
 4156TIP3    H136663   5.369   2.561  19.456
 4156TIP3    H236664   5.346   2.640  19.582
 4157TIP3   OH236665   3.870   2.875  19.896
 4157TIP3    H136666   3.875   2.842  19.806
 4157TIP3    H236667   3.962   2.884  19.923
 4158TIP3   OH236668   5.389   2.235  18.847
 4158TIP3    H136669   5.421   2.193  18.927
 4158TIP3    H236670   5.298   2.207  18.839
 4159TIP3   OH236671   5.346   2.418  19.337
 4159TIP3    H136672   5.361   2.324  19.349
 4159TIP3    H236673   5.416   2.446  19.279
 4160TIP3   OH236674   5.389   2.441  19.867
 4160TIP3    H136675   5.482   2.458  19.878
 4160TIP3    H236676   5.361   2.407  19.952
 4161TIP3   OH236677   5.403   2.146  19.365
 4161TIP3    H136678   5.422   2.111  19.452
 4161TIP3    H236679   5.335   2.088  19.330
 4162TIP3   OH236680   3.959   2.229  19.840
 4162TIP3    H136681   4.000   2.143  19.825
 4162TIP3    H236682   4.031   2.285  19.870
 4163TIP3   OH236683   3.772   2.524  19.912
 4163TIP3    H136684   3.836   2.494  19.847
 4163TIP3    H236685   3.820   2.586  19.966
 4164TIP3   OH236686   5.563   2.114  19.036
 4164TIP3    H136687   5.604   2.060  18.969
 4164TIP3    H236688   5.629   2.179  19.059
 4165TIP3   OH236689   3.814   2.117  19.300
 4165TIP3    H136690   3.722   2.129  19.320
 4165TIP3    H236691   3.836   2.191  19.244
 4166TIP3   OH236692   5.280   3.649  19.538
 4166TIP3    H136693   5.350   3.624  19.478
 4166TIP3    H236694   5.325   3.687  19.613
 4167TIP3   OH236695   4.031   3.646  19.871
 4167TIP3    H136696   4.013   3.613  19.959
 4167TIP3    H236697   4.101   3.589  19.839
 4168TIP3   OH236698   4.226   3.486  19.770
 4168TIP3    H136699   4.214   3.395  19.796
 4168TIP3    H236700   4.318   3.505  19.788
 4169TIP3   OH236701   4.492   3.525  19.869
 4169TIP3    H136702   4.504   3.431  19.852
 4169TIP3    H236703   4.486   3.531  19.965
 4170TIP3   OH236704   4.833   2.094  19.790
 4170TIP3    H136705   4.763   2.029  19.801
 4170TIP3    H236706   4.903   2.046  19.746
 4171TIP3   OH236707   5.327   1.917  19.768
 4171TIP3    H136708   5.389   1.968  19.716
 4171TIP3    H236709   5.243   1.959  19.753
 4172TIP3   OH236710   5.508   2.023  19.590
 4172TIP3    H136711   5.572   1.962  19.553
 4172TIP3    H236712   5.558   2.102  19.608
 4173TIP3   OH236713   4.050   1.931  19.512
 4173TIP3    H136714   3.959   1.919  19.486
 4173TIP3    H236715   4.090   1.844  19.503
 4174TIP3   OH236716   3.955   1.937  19.140
 4174TIP3    H136717   4.004   2.002  19.088
 4174TIP3    H236718   3.907   1.990  19.203
 4175TIP3   OH236719   4.530   1.895  19.534
 4175TIP3    H136720   4.599   1.944  19.489
 4175TIP3    H236721   4.549   1.907  19.627
 4176TIP3   OH236722   5.058   1.972  19.680
 4176TIP3    H136723   5.076   1.967  19.586
 4176TIP3    H236724   5.027   1.885  19.703
 4177TIP3   OH236725   5.210   1.958  19.287
 4177TIP3    H136726   5.132   2.013  19.291
 4177TIP3    H236727   5.177   1.869  19.301
 4178TIP3   OH236728   3.930   3.550  19.222
 4178TIP3    H136729   3.852   3.550  19.167
 4178TIP3    H236730   3.959   3.642  19.223
 4179TIP3   OH236731   4.124   2.118  18.988
 4179TIP3    H136732   4.171   2.058  18.930
 4179TIP3    H236733   4.191   2.149  19.049
 4180TIP3   OH236734   4.621   2.169  19.208
 4180TIP3    H136735   4.650   2.095  19.261
 4180TIP3    H236736   4.647   2.246  19.258
 4181TIP3   OH236737   4.833   3.667  19.073
 4181TIP3    H136738   4.928   3.672  19.065
 4181TIP3    H236739   4.804   3.625  18.993
 4182TIP3   OH236740   5.478   3.585  19.351
 4182TIP3    H136741   5.454   3.497  19.322
 4182TIP3    H236742   5.457   3.641  19.276
 4183TIP3   OH236743   4.086   3.624  18.918
 4183TIP3    H136744   4.068   3.633  19.012
 4183TIP3    H236745   4.160   3.563  18.914
 4184TIP3   OH236746   6.883   2.871  19.524
 4184TIP3    H136747   6.864   2.963  19.506
 4184TIP3    H236748   6.813   2.823  19.481
 4185TIP3   OH236749   6.709   2.801  19.913
 4185TIP3    H136750   6.730   2.734  19.979
 4185TIP3    H236751   6.660   2.753  19.846
 4186TIP3   OH236752   7.091   3.076  19.698
 4186TIP3    H136753   7.024   3.052  19.762
 4186TIP3    H236754   7.139   3.147  19.740
 4187TIP3   OH236755   6.103   3.229  19.869
 4187TIP3    H136756   6.023   3.176  19.870
 4187TIP3    H236757   6.140   3.219  19.956
 4188TIP3   OH236758   5.751   2.546  19.418
 4188TIP3    H136759   5.709   2.632  19.413
 4188TIP3    H236760   5.682   2.484  19.396
 4189TIP3   OH236761   5.816   2.765  19.649
 4189TIP3    H136762   5.829   2.675  19.682
 4189TIP3    H236763   5.848   2.762  19.559
 4190TIP3   OH236764   6.825   3.607  19.737
 4190TIP3    H136765   6.872   3.549  19.678
 4190TIP3    H236766   6.779   3.548  19.797
 4191TIP3   OH236767   6.607   3.062  19.960
 4191TIP3    H136768   6.638   2.975  19.935
 4191TIP3    H236769   6.666   3.088  20.031
 4192TIP3   OH236770   6.817   2.473  19.944
 4192TIP3    H136771   6.882   2.423  19.994
 4192TIP3    H236772   6.839   2.454  19.853
 4193TIP3   OH236773   6.256   2.274  19.666
 4193TIP3    H136774   6.255   2.355  19.615
 4193TIP3    H236775   6.202   2.213  19.615
 4194TIP3   OH236776   6.990   2.316  19.501
 4194TIP3    H136777   7.032   2.283  19.581
 4194TIP3    H236778   7.061   2.358  19.453
 4195TIP3   OH236779   5.868   2.511  19.740
 4195TIP3    H136780   5.926   2.457  19.794
 4195TIP3    H236781   5.880   2.478  19.651
 4196TIP3   OH236782   6.358   2.678  19.704
 4196TIP3    H136783   6.443   2.639  19.728
 4196TIP3    H236784   6.321   2.617  19.640
 4197TIP3   OH236785   6.806   3.112  19.424
 4197TIP3    H136786   6.807   3.124  19.329
 4197TIP3    H236787   6.767   3.192  19.458
 4198TIP3   OH236788   7.102   2.243  19.736
 4198TIP3    H136789   7.072   2.188  19.808
 4198TIP3    H236790   7.198   2.236  19.738
 4199TIP3   OH236791   6.081   2.374  19.864
 4199TIP3    H136792   6.125   2.457  19.884
 4199TIP3    H236793   6.137   2.331  19.801
 4200TIP3   OH236794   5.795   3.129  19.259
 4200TIP3    H136795   5.782   3.165  19.171
 4200TIP3    H236796   5.811   3.205  19.314
 4201TIP3   OH236797   7.175   3.261  19.885
 4201TIP3    H136798   7.193   3.226  19.972
 4201TIP3    H236799   7.200   3.353  19.891
 4202TIP3   OH236800   6.489   1.912  19.801
 4202TIP3    H136801   6.469   1.819  19.817
 4202TIP3    H236802   6.411   1.958  19.832
 4203TIP3   OH236803   6.968   3.452  19.561
 4203TIP3    H136804   7.010   3.372  19.533
 4203TIP3    H236805   7.039   3.515  19.571
 4204TIP3   OH236806   7.097   3.235  19.467
 4204TIP3    H136807   7.127   3.188  19.390
 4204TIP3    H236808   7.094   3.169  19.536
 4205TIP3   OH236809   6.720   2.817  19.294
 4205TIP3    H136810   6.655   2.884  19.270
 4205TIP3    H236811   6.787   2.825  19.226
 4206TIP3   OH236812   6.751   2.668  18.970
 4206TIP3    H136813   6.808   2.712  19.033
 4206TIP3    H236814   6.798   2.588  18.947
 4207TIP3   OH236815   7.101   2.826  19.365
 4207TIP3    H136816   7.017   2.828  19.410
 4207TIP3    H236817   7.148   2.752  19.403
 4208TIP3   OH236818   6.252   2.905  19.568
 4208TIP3    H136819   6.197   2.868  19.499
 4208TIP3    H236820   6.288   2.829  19.614
 4209TIP3   OH236821   6.410   3.169  19.799
 4209TIP3    H136822   6.474   3.200  19.735
 4209TIP3    H236823   6.463   3.131  19.869
 4210TIP3   OH236824   6.206   2.768  19.911
 4210TIP3    H136825   6.260   2.733  19.840
 4210TIP3    H236826   6.240   2.728  19.990
 4211TIP3   OH236827   6.944   2.790  19.138
 4211TIP3    H136828   7.006   2.802  19.210
 4211TIP3    H236829   6.989   2.827  19.062
 4212TIP3   OH236830   6.712   3.367  19.489
 4212TIP3    H136831   6.795   3.406  19.514
 4212TIP3    H236832   6.684   3.416  19.412
 4213TIP3   OH236833   7.318   1.904  19.135
 4213TIP3    H136834   7.231   1.929  19.165
 4213TIP3    H236835   7.359   1.987  19.109
 4214TIP3   OH236836   6.106   2.793  19.361
 4214TIP3    H136837   6.076   2.859  19.299
 4214TIP3    H236838   6.068   2.711  19.329
 4215TIP3   OH236839   7.475   3.345  18.991
 4215TIP3    H136840   7.482   3.439  19.003
 4215TIP3    H236841   7.564   3.316  18.973
 4216TIP3   OH236842   5.759   3.379  19.893
 4216TIP3    H136843   5.748   3.284  19.886
 4216TIP3    H236844   5.676   3.410  19.930
 4217TIP3   OH236845   6.697   3.671  19.349
 4217TIP3    H136846   6.680   3.677  19.255
 4217TIP3    H236847   6.666   3.755  19.384
 4218TIP3   OH236848   6.035   3.560  19.514
 4218TIP3    H136849   6.052   3.535  19.604
 4218TIP3    H236850   5.971   3.496  19.483
 4219TIP3   OH236851   6.984   3.625  19.040
 4219TIP3    H136852   7.037   3.559  18.997
 4219TIP3    H236853   6.990   3.603  19.133
 4220TIP3   OH236854   6.955   3.594  19.312
 4220TIP3    H136855   6.863   3.613  19.332
 4220TIP3    H236856   6.982   3.534  19.382
 4221TIP3   OH236857   6.253   2.027  19.876
 4221TIP3    H136858   6.172   2.001  19.833
 4221TIP3    H236859   6.234   2.112  19.916
 4222TIP3   OH236860   7.100   2.884  18.945
 4222TIP3    H136861   7.070   2.874  18.855
 4222TIP3    H236862   7.196   2.887  18.939
 4223TIP3   OH236863   6.667   2.205  18.981
 4223TIP3    H136864   6.607   2.198  19.055
 4223TIP3    H236865   6.626   2.153  18.912
 4224TIP3   OH236866   6.243   2.507  19.524
 4224TIP3    H136867   6.148   2.495  19.518
 4224TIP3    H236868   6.274   2.491  19.435
 4225TIP3   OH236869   6.800   2.572  19.381
 4225TIP3    H136870   6.762   2.651  19.343
 4225TIP3    H236871   6.866   2.545  19.318
 4226TIP3   OH236872   6.828   2.490  19.643
 4226TIP3    H136873   6.808   2.540  19.564
 4226TIP3    H236874   6.870   2.410  19.612
 4227TIP3   OH236875   6.325   2.269  18.901
 4227TIP3    H136876   6.281   2.250  18.984
 4227TIP3    H236877   6.267   2.332  18.858
 4228TIP3   OH236878   5.672   2.239  19.615
 4228TIP3    H136879   5.730   2.237  19.691
 4228TIP3    H236880   5.728   2.211  19.542
 4229TIP3   OH236881   5.741   2.310  19.130
 4229TIP3    H136882   5.810   2.354  19.080
 4229TIP3    H236883   5.677   2.379  19.149
 4230TIP3   OH236884   6.544   2.259  19.602
 4230TIP3    H136885   6.453   2.260  19.632
 4230TIP3    H236886   6.594   2.227  19.677
 4231TIP3   OH236887   5.985   2.422  19.500
 4231TIP3    H136888   5.908   2.450  19.451
 4231TIP3    H236889   5.997   2.330  19.476
 4232TIP3   OH236890   6.321   2.441  19.269
 4232TIP3    H136891   6.416   2.437  19.264
 4232TIP3    H236892   6.295   2.487  19.188
 4233TIP3   OH236893   6.927   2.135  19.945
 4233TIP3    H136894   6.886   2.137  20.032
 4233TIP3    H236895   6.854   2.128  19.884
 4234TIP3   OH236896   6.247   2.559  19.032
 4234TIP3    H136897   6.187   2.531  18.963
 4234TIP3    H236898   6.322   2.596  18.985
 4235TIP3   OH236899   6.600   2.570  19.790
 4235TIP3    H136900   6.662   2.541  19.723
 4235TIP3    H236901   6.629   2.525  19.870
 4236TIP3   OH236902   6.084   2.157  19.465
 4236TIP3    H136903   6.029   2.082  19.485
 4236TIP3    H236904   6.121   2.138  19.379
 4237TIP3   OH236905   6.534   3.019  19.213
 4237TIP3    H136906   6.465   2.964  19.176
 4237TIP3    H236907   6.504   3.039  19.302
 4238TIP3   OH236908   6.913   2.253  19.089
 4238TIP3    H136909   6.825   2.254  19.050
 4238TIP3    H236910   6.932   2.345  19.107
 4239TIP3   OH236911   6.999   2.500  19.197
 4239TIP3    H136912   7.082   2.472  19.235
 4239TIP3    H236913   7.023   2.564  19.131
 4240TIP3   OH236914   6.052   2.961  19.796
 4240TIP3    H136915   5.959   2.942  19.810
 4240TIP3    H236916   6.098   2.887  19.836
 4241TIP3   OH236917   6.756   3.160  19.146
 4241TIP3    H136918   6.727   3.250  19.160
 4241TIP3    H236919   6.677   3.107  19.161
 4242TIP3   OH236920   7.417   2.516  19.178
 4242TIP3    H136921   7.385   2.483  19.094
 4242TIP3    H236922   7.454   2.602  19.158
 4243TIP3   OH236923   7.305   3.353  19.214
 4243TIP3    H136924   7.253   3.272  19.218
 4243TIP3    H236925   7.360   3.342  19.136
 4244TIP3   OH236926   6.963   2.895  19.860
 4244TIP3    H136927   6.871   2.871  19.873
 4244TIP3    H236928   7.012   2.833  19.914
 4245TIP3   OH236929   6.262   3.282  19.542
 4245TIP3    H136930   6.317   3.359  19.554
 4245TIP3    H236931   6.199   3.307  19.475
 4246TIP3   OH236932   5.906   2.770  19.042
 4246TIP3    H136933   5.945   2.846  19.085
 4246TIP3    H236934   5.814   2.774  19.065
 4247TIP3   OH236935   6.431   3.077  19.455
 4247TIP3    H136936   6.381   3.157  19.472
 4247TIP3    H236937   6.375   3.006  19.486
 4248TIP3   OH236938   6.297   3.559  19.434
 4248TIP3    H136939   6.203   3.567  19.449
 4248TIP3    H236940   6.333   3.645  19.455
 4249TIP3   OH236941   7.083   3.196  19.019
 4249TIP3    H136942   7.096   3.144  19.098
 4249TIP3    H236943   6.997   3.169  18.987
 4250TIP3   OH236944   7.506   3.612  19.038
 4250TIP3    H136945   7.532   3.668  18.964
 4250TIP3    H236946   7.440   3.663  19.084
 4251TIP3   OH236947   7.193   3.072  19.254
 4251TIP3    H136948   7.156   2.988  19.283
 4251TIP3    H236949   7.287   3.054  19.244
 4252TIP3   OH236950   6.469   3.300  18.852
 4252TIP3    H136951   6.462   3.231  18.787
 4252TIP3    H236952   6.416   3.269  18.926
 4253TIP3   OH236953   6.348   3.231  19.096
 4253TIP3    H136954   6.415   3.177  19.140
 4253TIP3    H236955   6.363   3.319  19.130
 4254TIP3   OH236956   6.016   2.984  19.184
 4254TIP3    H136957   5.938   3.025  19.221
 4254TIP3    H236958   6.054   3.050  19.126
 4255TIP3   OH236959   6.873   2.132  19.334
 4255TIP3    H136960   6.881   2.169  19.245
 4255TIP3    H236961   6.908   2.201  19.391
 4256TIP3   OH236962   6.650   3.407  19.189
 4256TIP3    H136963   6.557   3.429  19.189
 4256TIP3    H236964   6.691   3.480  19.143
 4257TIP3   OH236965   6.596   2.379  19.354
 4257TIP3    H136966   6.667   2.442  19.362
 4257TIP3    H236967   6.578   2.352  19.445
 4258TIP3   OH236968   6.628   2.050  19.432
 4258TIP3    H136969   6.601   2.125  19.486
 4258TIP3    H236970   6.712   2.077  19.395
 4259TIP3   OH236971   6.387   3.488  19.182
 4259TIP3    H136972   6.387   3.569  19.131
 4259TIP3    H236973   6.352   3.513  19.268
 4260TIP3   OH236974   6.227   2.194  19.156
 4260TIP3    H136975   6.236   2.277  19.203
 4260TIP3    H236976   6.314   2.154  19.163
 4261TIP3   OH236977   7.041   2.640  19.746
 4261TIP3    H136978   6.971   2.580  19.719
 4261TIP3    H236979   7.112   2.582  19.774
 4262TIP3   OH236980   6.080   3.198  19.013
 4262TIP3    H136981   6.156   3.243  19.051
 4262TIP3    H236982   6.115   3.148  18.940
 4263TIP3   OH236983   5.883   2.498  18.987
 4263TIP3    H136984   5.907   2.584  19.022
 4263TIP3    H236985   5.835   2.517  18.907
 4264TIP3   OH236986   7.261   3.550  19.930
 4264TIP3    H136987   7.216   3.620  19.882
 4264TIP3    H236988   7.343   3.589  19.959
 4265TIP3   OH236989   6.000   1.988  19.771
 4265TIP3    H136990   5.981   1.972  19.679
 4265TIP3    H236991   5.966   1.911  19.817
 4266TIP3   OH236992   5.851   3.368  19.420
 4266TIP3    H136993   5.773   3.382  19.472
 4266TIP3    H236994   5.840   3.426  19.344
 4267TIP3   OH236995   6.672   3.485  18.868
 4267TIP3    H136996   6.605   3.417  18.866
 4267TIP3    H236997   6.748   3.445  18.827
 4268TIP3   OH236998   7.122   3.438  18.900
 4268TIP3    H136999   7.124   3.355  18.947
 4268TIP3    H237000   7.190   3.429  18.833
 4269TIP3   OH237001   6.224   3.021  18.864
 4269TIP3    H137002   6.262   2.980  18.942
 4269TIP3    H237003   6.298   3.029  18.803
 4270TIP3   OH237004   6.829   3.155  18.880
 4270TIP3    H137005   6.788   3.154  18.966
 4270TIP3    H237006   6.806   3.070  18.842
 4271TIP3   OH237007   6.342   2.856  19.107
 4271TIP3    H137008   6.272   2.802  19.143
 4271TIP3    H237009   6.387   2.798  19.045
 4272TIP3   OH237010   6.467   2.691  18.927
 4272TIP3    H137011   6.458   2.713  18.834
 4272TIP3    H237012   6.562   2.679  18.939
 4273TIP3   OH237013   7.375   2.877  18.880
 4273TIP3    H137014   7.349   2.858  18.790
 4273TIP3    H237015   7.370   2.972  18.888
 4274TIP3   OH237016   6.445   3.734  19.067
 4274TIP3    H137017   6.539   3.719  19.069
 4274TIP3    H237018   6.432   3.799  18.998
 4275TIP3   OH237019   5.806   3.200  18.988
 4275TIP3    H137020   5.902   3.208  18.994
 4275TIP3    H237021   5.793   3.127  18.928
 4276TIP3   OH237022   5.681   3.717  19.474
 4276TIP3    H137023   5.618   3.670  19.420
 4276TIP3    H237024   5.702   3.657  19.545
 4277TIP3   OH237025   5.755   3.558  19.679
 4277TIP3    H137026   5.733   3.478  19.727
 4277TIP3    H237027   5.803   3.611  19.742
 4278TIP3   OH237028   7.464   2.997  19.265
 4278TIP3    H137029   7.546   3.045  19.265
 4278TIP3    H237030   7.467   2.946  19.346
 4279TIP3   OH237031   7.462   2.828  19.486
 4279TIP3    H137032   7.392   2.770  19.515
 4279TIP3    H237033   7.523   2.831  19.560
 4280TIP3   OH237034   7.513   3.048  19.884
 4280TIP3    H137035   7.607   3.029  19.887
 4280TIP3    H237036   7.508   3.142  19.868
 4281TIP3   OH237037   7.488   2.769  19.108
 4281TIP3    H137038   7.453   2.792  19.022
 4281TIP3    H237039   7.481   2.850  19.159
 4282TIP3   OH237040   7.311   2.472  18.933
 4282TIP3    H137041   7.312   2.535  18.861
 4282TIP3    H237042   7.296   2.387  18.891
 4283TIP3   OH237043   7.242   2.637  19.526
 4283TIP3    H137044   7.244   2.567  19.460
 4283TIP3    H237045   7.265   2.594  19.608
 4284TIP3   OH237046   5.793   2.896  19.884
 4284TIP3    H137047   5.788   2.850  19.800
 4284TIP3    H237048   5.718   2.864  19.934
 4285TIP3   OH237049   7.253   2.219  18.844
 4285TIP3    H137050   7.270   2.172  18.926
 4285TIP3    H237051   7.161   2.201  18.825
 4286TIP3   OH237052   7.224   2.415  19.346
 4286TIP3    H137053   7.239   2.321  19.359
 4286TIP3    H237054   7.296   2.443  19.290
 4287TIP3   OH237055   7.255   2.491  19.815
 4287TIP3    H137056   7.348   2.508  19.826
 4287TIP3    H237057   7.234   2.426  19.882
 4288TIP3   OH237058   7.243   2.141  19.384
 4288TIP3    H137059   7.267   2.106  19.470
 4288TIP3    H237060   7.186   2.073  19.346
 4289TIP3   OH237061   5.853   2.214  19.822
 4289TIP3    H137062   5.894   2.129  19.811
 4289TIP3    H237063   5.918   2.267  19.869
 4290TIP3   OH237064   5.651   2.503  19.922
 4290TIP3    H137065   5.716   2.483  19.855
 4290TIP3    H237066   5.675   2.590  19.953
 4291TIP3   OH237067   7.471   2.119  19.033
 4291TIP3    H137068   7.511   2.054  18.975
 4291TIP3    H237069   7.514   2.201  19.010
 4292TIP3   OH237070   5.701   2.133  19.334
 4292TIP3    H137071   5.606   2.130  19.337
 4292TIP3    H237072   5.721   2.196  19.265
 4293TIP3   OH237073   7.160   3.639  19.555
 4293TIP3    H137074   7.225   3.625  19.486
 4293TIP3    H237075   7.208   3.682  19.626
 4294TIP3   OH237076   5.926   3.641  19.884
 4294TIP3    H137077   5.884   3.586  19.950
 4294TIP3    H237078   5.992   3.585  19.844
 4295TIP3   OH237079   6.117   3.485  19.766
 4295TIP3    H137080   6.109   3.395  19.796
 4295TIP3    H237081   6.208   3.509  19.787
 4296TIP3   OH237082   6.374   3.539  19.864
 4296TIP3    H137083   6.421   3.457  19.881
 4296TIP3    H237084   6.364   3.579  19.950
 4297TIP3   OH237085   6.706   2.098  19.776
 4297TIP3    H137086   6.635   2.035  19.789
 4297TIP3    H237087   6.766   2.054  19.716
 4298TIP3   OH237088   7.147   1.959  19.777
 4298TIP3    H137089   7.226   1.992  19.735
 4298TIP3    H237090   7.077   1.983  19.716
 4299TIP3   OH237091   7.353   2.047  19.624
 4299TIP3    H137092   7.411   1.979  19.590
 4299TIP3    H237093   7.405   2.127  19.621
 4300TIP3   OH237094   5.940   1.926  19.510
 4300TIP3    H137095   5.848   1.915  19.486
 4300TIP3    H237096   5.978   1.840  19.498
 4301TIP3   OH237097   5.844   1.936  19.154
 4301TIP3    H137098   5.885   2.000  19.097
 4301TIP3    H237099   5.792   1.988  19.215
 4302TIP3   OH237100   6.410   1.898  19.529
 4302TIP3    H137101   6.478   1.950  19.487
 4302TIP3    H237102   6.426   1.907  19.622
 4303TIP3   OH237103   6.908   1.966  19.628
 4303TIP3    H137104   6.915   1.986  19.534
 4303TIP3    H237105   6.894   1.872  19.632
 4304TIP3   OH237106   7.079   1.949  19.276
 4304TIP3    H137107   6.998   1.998  19.277
 4304TIP3    H237108   7.052   1.858  19.287
 4305TIP3   OH237109   5.820   3.547  19.217
 4305TIP3    H137110   5.744   3.544  19.159
 4305TIP3    H237111   5.847   3.639  19.216
 4306TIP3   OH237112   6.007   2.108  18.991
 4306TIP3    H137113   6.053   2.048  18.932
 4306TIP3    H237114   6.074   2.136  19.054
 4307TIP3   OH237115   6.504   2.169  19.202
 4307TIP3    H137116   6.527   2.093  19.256
 4307TIP3    H237117   6.536   2.245  19.252
 4308TIP3   OH237118   6.712   3.661  19.068
 4308TIP3    H137119   6.806   3.674  19.062
 4308TIP3    H237120   6.689   3.612  18.989
 4309TIP3   OH237121   7.331   3.592  19.344
 4309TIP3    H137122   7.322   3.505  19.305
 4309TIP3    H237123   7.327   3.652  19.269
 4310TIP3   OH237124   5.977   3.612  18.906
 4310TIP3    H137125   5.947   3.596  18.995
 4310TIP3    H237126   6.055   3.557  18.896
 4311TIP3   OH237127   7.540   2.567  19.417
 4311TIP3    H137128   7.521   2.661  19.414
 4311TIP3    H237129   7.501   2.532  19.337
 4312TIP3   OH237130   7.559   3.320  19.883
 4312TIP3    H137131   7.654   3.317  19.886
 4312TIP3    H237132   7.533   3.355  19.969
 4313TIP3   OH237133   7.493   2.270  19.572
 4313TIP3    H137134   7.582   2.279  19.607
 4313TIP3    H237135   7.506   2.262  19.477
 4314TIP3   OH237136   7.492   3.721  19.520
 4314TIP3    H137137   7.444   3.674  19.451
 4314TIP3    H237138   7.495   3.659  19.593
 4315TIP3   OH237139   7.531   3.546  19.721
 4315TIP3    H137140   7.507   3.463  19.762
 4315TIP3    H237141   7.626   3.545  19.718
 4316TIP3   OH237142   7.647   2.763  19.909
 4316TIP3    H137143   7.679   2.768  19.819
 4316TIP3    H237144   7.695   2.832  19.955
 4317TIP3   OH237145   7.509   2.526  19.889
 4317TIP3    H137146   7.581   2.466  19.908
 4317TIP3    H237147   7.548   2.613  19.896
 4318TIP3   OH237148   7.509   2.164  19.313
 4318TIP3    H137149   7.416   2.149  19.330
 4318TIP3    H237150   7.518   2.154  19.218
 4319TIP3   OH237151   1.216   4.746  19.537
 4319TIP3    H137152   1.222   4.837  19.565
 4319TIP3    H237153   1.152   4.747  19.466
 4320TIP3   OH237154   1.069   4.665  19.901
 4320TIP3    H137155   1.107   4.599  19.958
 4320TIP3    H237156   1.018   4.615  19.837
 4321TIP3   OH237157   1.403   4.968  19.698
 4321TIP3    H137158   1.379   4.891  19.750
 4321TIP3    H237159   1.449   5.026  19.760
 4322TIP3   OH237160   0.415   5.082  19.843
 4322TIP3    H137161   0.391   4.997  19.807
 4322TIP3    H237162   0.506   5.072  19.871
 4323TIP3   OH237163   0.113   4.404  19.349
 4323TIP3    H137164   0.138   4.493  19.372
 4323TIP3    H237165   0.025   4.393  19.386
 4324TIP3   OH237166   0.149   4.683  19.712
 4324TIP3    H137167   0.172   4.590  19.710
 4324TIP3    H237168   0.228   4.729  19.685
 4325TIP3   OH237169   1.169   5.505  19.744
 4325TIP3    H137170   1.214   5.446  19.684
 4325TIP3    H237171   1.134   5.448  19.813
 4326TIP3   OH237172   0.946   4.928  19.937
 4326TIP3    H137173   0.984   4.845  19.910
 4326TIP3    H237174   1.006   4.961  20.005
 4327TIP3   OH237175   1.174   4.389  19.936
 4327TIP3    H137176   1.219   4.308  19.961
 4327TIP3    H237177   1.200   4.403  19.845
 4328TIP3   OH237178   0.588   4.152  19.696
 4328TIP3    H137179   0.602   4.236  19.654
 4328TIP3    H237180   0.539   4.101  19.632
 4329TIP3   OH237181   1.328   4.223  19.498
 4329TIP3    H137182   1.374   4.174  19.567
 4329TIP3    H237183   1.398   4.260  19.445
 4330TIP3   OH237184   0.232   4.422  19.726
 4330TIP3    H137185   0.293   4.375  19.783
 4330TIP3    H237186   0.236   4.377  19.642
 4331TIP3   OH237187   0.703   4.544  19.713
 4331TIP3    H137188   0.787   4.509  19.740
 4331TIP3    H237189   0.667   4.479  19.653
 4332TIP3   OH237190   1.130   5.006  19.414
 4332TIP3    H137191   1.157   5.020  19.323
 4332TIP3    H237192   1.107   5.093  19.446
 4333TIP3   OH237193   1.478   4.119  19.702
 4333TIP3    H137194   1.422   4.122  19.780
 4333TIP3    H237195   1.562   4.152  19.733
 4334TIP3   OH237196   0.402   4.269  19.876
 4334TIP3    H137197   0.450   4.307  19.950
 4334TIP3    H237198   0.468   4.222  19.826
 4335TIP3   OH237199   0.116   4.980  19.272
 4335TIP3    H137200   0.099   5.019  19.186
 4335TIP3    H237201   0.140   5.054  19.328
 4336TIP3   OH237202   1.527   5.131  19.887
 4336TIP3    H137203   1.515   5.099  19.976
 4336TIP3    H237204   1.542   5.225  19.897
 4337TIP3   OH237205   0.845   3.818  19.800
 4337TIP3    H137206   0.843   3.724  19.816
 4337TIP3    H237207   0.761   3.850  19.834
 4338TIP3   OH237208   1.314   5.348  19.572
 4338TIP3    H137209   1.353   5.264  19.548
 4338TIP3    H237210   1.387   5.409  19.575
 4339TIP3   OH237211   1.426   5.121  19.475
 4339TIP3    H137212   1.449   5.063  19.403
 4339TIP3    H237213   1.418   5.063  19.551
 4340TIP3   OH237214   1.076   4.704  19.297
 4340TIP3    H137215   1.021   4.779  19.275
 4340TIP3    H237216   1.150   4.710  19.236
 4341TIP3   OH237217   1.086   4.569  18.974
 4341TIP3    H137218   1.141   4.596  19.048
 4341TIP3    H237219   1.138   4.503  18.928
 4342TIP3   OH237220   1.440   4.713  19.380
 4342TIP3    H137221   1.372   4.723  19.447
 4342TIP3    H237222   1.507   4.660  19.423
 4343TIP3   OH237223   0.581   4.740  19.550
 4343TIP3    H137224   0.553   4.692  19.472
 4343TIP3    H237225   0.630   4.675  19.601
 4344TIP3   OH237226   0.722   5.105  19.845
 4344TIP3    H137227   0.722   5.106  19.749
 4344TIP3    H237228   0.793   5.046  19.868
 4345TIP3   OH237229   0.556   4.671  19.908
 4345TIP3    H137230   0.606   4.624  19.842
 4345TIP3    H237231   0.616   4.678  19.983
 4346TIP3   OH237232   1.304   4.662  19.148
 4346TIP3    H137233   1.357   4.682  19.225
 4346TIP3    H237234   1.355   4.696  19.074
 4347TIP3   OH237235   1.071   5.279  19.463
 4347TIP3    H137236   1.153   5.301  19.508
 4347TIP3    H237237   1.041   5.361  19.425
 4348TIP3   OH237238   1.661   3.783  19.163
 4348TIP3    H137239   1.576   3.810  19.196
 4348TIP3    H237240   1.700   3.865  19.130
 4349TIP3   OH237241   0.480   4.642  19.304
 4349TIP3    H137242   0.410   4.695  19.266
 4349TIP3    H237243   0.457   4.552  19.281
 4350TIP3   OH237244   1.795   5.225  19.003
 4350TIP3    H137245   1.813   5.319  19.008
 4350TIP3    H237246   1.881   5.184  19.007
 4351TIP3   OH237247   0.147   5.204  19.895
 4351TIP3    H137248   0.211   5.134  19.880
 4351TIP3    H237249   0.187   5.259  19.962
 4352TIP3   OH237250   1.045   5.545  19.347
 4352TIP3    H137251   1.034   5.557  19.252
 4352TIP3    H237252   1.017   5.628  19.385
 4353TIP3   OH237253   0.399   5.438  19.523
 4353TIP3    H137254   0.407   5.408  19.614
 4353TIP3    H237255   0.313   5.408  19.495
 4354TIP3   OH237256   1.328   5.498  19.031
 4354TIP3    H137257   1.382   5.430  18.990
 4354TIP3    H237258   1.344   5.487  19.125
 4355TIP3   OH237259   1.313   5.490  19.308
 4355TIP3    H137260   1.222   5.501  19.333
 4355TIP3    H237261   1.350   5.432  19.375
 4356TIP3   OH237262   0.596   3.920  19.857
 4356TIP3    H137263   0.504   3.896  19.844
 4356TIP3    H237264   0.605   4.006  19.817
 4357TIP3   OH237265   1.460   4.745  18.945
 4357TIP3    H137266   1.436   4.739  18.852
 4357TIP3    H237267   1.555   4.752  18.945
 4358TIP3   OH237268   0.988   4.100  18.971
 4358TIP3    H137269   0.939   4.097  19.054
 4358TIP3    H237270   0.952   4.028  18.919
 4359TIP3   OH237271   0.587   4.375  19.534
 4359TIP3    H137272   0.492   4.366  19.527
 4359TIP3    H237273   0.619   4.357  19.446
 4360TIP3   OH237274   1.114   4.447  19.387
 4360TIP3    H137275   1.097   4.538  19.361
 4360TIP3    H237276   1.185   4.419  19.329
 4361TIP3   OH237277   1.215   4.421  19.664
 4361TIP3    H137278   1.198   4.496  19.607
 4361TIP3    H237279   1.235   4.349  19.604
 4362TIP3   OH237280   0.629   4.140  18.879
 4362TIP3    H137281   0.603   4.125  18.970
 4362TIP3    H237282   0.547   4.145  18.831
 4363TIP3   OH237283   0.085   4.148  19.612
 4363TIP3    H137284   0.109   4.127  19.702
 4363TIP3    H237285   0.120   4.075  19.561
 4364TIP3   OH237286   0.093   4.219  19.141
 4364TIP3    H137287   0.150   4.259  19.075
 4364TIP3    H237288   0.088   4.285  19.211
 4365TIP3   OH237289   0.887   4.139  19.613
 4365TIP3    H137290   0.802   4.136  19.658
 4365TIP3    H237291   0.950   4.108  19.678
 4366TIP3   OH237292   0.328   4.306  19.489
 4366TIP3    H137293   0.249   4.314  19.435
 4366TIP3    H237294   0.351   4.213  19.484
 4367TIP3   OH237295   0.646   4.323  19.270
 4367TIP3    H137296   0.741   4.317  19.284
 4367TIP3    H237297   0.636   4.373  19.189
 4368TIP3   OH237298   1.281   4.124  19.912
 4368TIP3    H137299   1.296   4.054  19.976
 4368TIP3    H237300   1.206   4.093  19.861
 4369TIP3   OH237301   0.585   4.460  19.038
 4369TIP3    H137302   0.527   4.421  18.972
 4369TIP3    H237303   0.661   4.491  18.988
 4370TIP3   OH237304   0.943   4.431  19.786
 4370TIP3    H137305   0.998   4.404  19.713
 4370TIP3    H237306   0.990   4.402  19.864
 4371TIP3   OH237307   0.443   4.054  19.478
 4371TIP3    H137308   0.394   3.973  19.496
 4371TIP3    H237309   0.482   4.040  19.392
 4372TIP3   OH237310   0.886   4.894  19.229
 4372TIP3    H137311   0.824   4.831  19.192
 4372TIP3    H237312   0.847   4.921  19.312
 4373TIP3   OH237313   1.239   4.147  19.077
 4373TIP3    H137314   1.153   4.149  19.035
 4373TIP3    H237315   1.257   4.238  19.101
 4374TIP3   OH237316   1.317   4.387  19.203
 4374TIP3    H137317   1.402   4.364  19.240
 4374TIP3    H237318   1.328   4.477  19.171
 4375TIP3   OH237319   0.399   4.820  19.741
 4375TIP3    H137320   0.456   4.809  19.666
 4375TIP3    H237321   0.440   4.769  19.811
 4376TIP3   OH237322   1.096   5.038  19.133
 4376TIP3    H137323   1.065   5.127  19.145
 4376TIP3    H237324   1.025   4.983  19.168
 4377TIP3   OH237325   1.784   4.404  19.186
 4377TIP3    H137326   1.744   4.383  19.101
 4377TIP3    H237327   1.818   4.493  19.175
 4378TIP3   OH237328   1.627   5.238  19.226
 4378TIP3    H137329   1.584   5.156  19.248
 4378TIP3    H237330   1.677   5.219  19.147
 4379TIP3   OH237331   1.338   4.757  19.855
 4379TIP3    H137332   1.249   4.722  19.860
 4379TIP3    H237333   1.392   4.681  19.833
 4380TIP3   OH237334   0.644   5.178  19.571
 4380TIP3    H137335   0.681   5.258  19.533
 4380TIP3    H237336   0.550   5.186  19.559
 4381TIP3   OH237337   0.207   4.667  19.020
 4381TIP3    H137338   0.251   4.740  19.064
 4381TIP3    H237339   0.114   4.679  19.043
 4382TIP3   OH237340   0.706   4.952  19.424
 4382TIP3    H137341   0.703   5.029  19.480
 4382TIP3    H237342   0.672   4.881  19.479
 4383TIP3   OH237343   0.659   5.428  19.438
 4383TIP3    H137344   0.566   5.440  19.457
 4383TIP3    H237345   0.700   5.507  19.471
 4384TIP3   OH237346   1.429   5.066  19.009
 4384TIP3    H137347   1.443   5.023  19.093
 4384TIP3    H237348   1.341   5.038  18.982
 4385TIP3   OH237349   1.848   5.496  19.047
 4385TIP3    H137350   1.915   5.565  19.046
 4385TIP3    H237351   1.768   5.540  19.074
 4386TIP3   OH237352   1.518   4.951  19.255
 4386TIP3    H137353   1.480   4.874  19.296
 4386TIP3    H237354   1.610   4.930  19.245
 4387TIP3   OH237355   0.824   5.183  18.845
 4387TIP3    H137356   0.831   5.102  18.794
 4387TIP3    H237357   0.794   5.154  18.932
 4388TIP3   OH237358   0.734   5.119  19.106
 4388TIP3    H137359   0.820   5.102  19.144
 4388TIP3    H237360   0.717   5.211  19.125
 4389TIP3   OH237361   0.343   4.886  19.154
 4389TIP3    H137362   0.274   4.900  19.219
 4389TIP3    H237363   0.332   4.957  19.091
 4390TIP3   OH237364   1.210   4.035  19.328
 4390TIP3    H137365   1.221   4.070  19.240
 4390TIP3    H237366   1.244   4.104  19.386
 4391TIP3   OH237367   0.975   5.280  19.154
 4391TIP3    H137368   0.890   5.321  19.174
 4391TIP3    H237369   1.033   5.354  19.137
 4392TIP3   OH237370   0.902   4.277  19.372
 4392TIP3    H137371   0.977   4.336  19.376
 4392TIP3    H237372   0.898   4.238  19.459
 4393TIP3   OH237373   0.972   3.938  19.428
 4393TIP3    H137374   0.949   4.005  19.492
 4393TIP3    H237375   1.059   3.965  19.396
 4394TIP3   OH237376   0.717   5.381  19.174
 4394TIP3    H137377   0.725   5.468  19.133
 4394TIP3    H237378   0.694   5.400  19.265
 4395TIP3   OH237379   0.572   4.080  19.150
 4395TIP3    H137380   0.578   4.163  19.197
 4395TIP3    H237381   0.658   4.040  19.160
 4396TIP3   OH237382   1.464   4.519  19.755
 4396TIP3    H137383   1.384   4.470  19.738
 4396TIP3    H237384   1.518   4.459  19.807
 4397TIP3   OH237385   0.434   5.112  19.005
 4397TIP3    H137386   0.446   5.207  18.997
 4397TIP3    H237387   0.457   5.078  18.919
 4398TIP3   OH237388   0.234   4.392  18.975
 4398TIP3    H137389   0.232   4.482  19.008
 4398TIP3    H237390   0.185   4.396  18.893
 4399TIP3   OH237391   1.594   5.457  19.924
 4399TIP3    H137392   1.578   5.529  19.863
 4399TIP3    H237393   1.663   5.491  19.982
 4400TIP3   OH237394   0.330   3.879  19.793
 4400TIP3    H137395   0.326   3.866  19.698
 4400TIP3    H237396   0.294   3.798  19.830
 4401TIP3   OH237397   0.198   5.215  19.396
 4401TIP3    H137398   0.137   5.253  19.459
 4401TIP3    H237399   0.208   5.282  19.329
 4402TIP3   OH237400   1.019   5.379  18.854
 4402TIP3    H137401   0.956   5.307  18.859
 4402TIP3    H237402   1.099   5.338  18.820
 4403TIP3   OH237403   1.466   5.310  18.886
 4403TIP3    H137404   1.471   5.227  18.934
 4403TIP3    H237405   1.542   5.309  18.828
 4404TIP3   OH237406   0.580   4.892  18.893
 4404TIP3    H137407   0.585   4.797  18.905
 4404TIP3    H237408   0.654   4.913  18.837
 4405TIP3   OH237409   1.166   5.032  18.871
 4405TIP3    H137410   1.132   5.029  18.960
 4405TIP3    H237411   1.152   4.943  18.837
 4406TIP3   OH237412   0.675   4.744  19.131
 4406TIP3    H137413   0.627   4.685  19.188
 4406TIP3    H237414   0.720   4.687  19.069
 4407TIP3   OH237415   0.805   4.597  18.934
 4407TIP3    H137416   0.803   4.610  18.839
 4407TIP3    H237417   0.897   4.581  18.954
 4408TIP3   OH237418   1.735   4.767  18.879
 4408TIP3    H137419   1.719   4.739  18.789
 4408TIP3    H237420   1.717   4.861  18.879
 4409TIP3   OH237421   0.793   5.623  19.066
 4409TIP3    H137422   0.887   5.608  19.072
 4409TIP3    H237423   0.783   5.693  19.002
 4410TIP3   OH237424   0.132   5.077  19.015
 4410TIP3    H137425   0.188   5.153  18.999
 4410TIP3    H237426   0.138   5.026  18.934
 4411TIP3   OH237427   0.089   5.563  19.480
 4411TIP3    H137428   0.001   5.600  19.476
 4411TIP3    H237429   0.088   5.507  19.558
 4412TIP3   OH237430   0.123   5.400  19.702
 4412TIP3    H137431   0.127   5.314  19.744
 4412TIP3    H237432   0.166   5.459  19.763
 4413TIP3   OH237433   1.782   4.871  19.260
 4413TIP3    H137434   1.861   4.924  19.266
 4413TIP3    H237435   1.788   4.812  19.335
 4414TIP3   OH237436   1.819   4.691  19.458
 4414TIP3    H137437   1.746   4.638  19.490
 4414TIP3    H237438   1.885   4.685  19.527
 4415TIP3   OH237439   1.862   4.984  19.928
 4415TIP3    H137440   1.908   4.901  19.913
 4415TIP3    H237441   1.801   4.991  19.855
 4416TIP3   OH237442   1.860   4.659  19.099
 4416TIP3    H137443   1.815   4.678  19.017
 4416TIP3    H237444   1.832   4.728  19.159
 4417TIP3   OH237445   1.687   4.376  18.929
 4417TIP3    H137446   1.679   4.431  18.852
 4417TIP3    H237447   1.659   4.289  18.899
 4418TIP3   OH237448   1.604   4.532  19.518
 4418TIP3    H137449   1.588   4.445  19.484
 4418TIP3    H237450   1.564   4.531  19.605
 4419TIP3   OH237451   0.150   4.866  19.929
 4419TIP3    H137452   0.160   4.816  19.848
 4419TIP3    H237453   0.214   4.827  19.989
 4420TIP3   OH237454   1.606   4.126  18.846
 4420TIP3    H137455   1.642   4.075  18.918
 4420TIP3    H237456   1.516   4.095  18.836
 4421TIP3   OH237457   1.556   4.307  19.342
 4421TIP3    H137458   1.577   4.214  19.352
 4421TIP3    H237459   1.629   4.343  19.292
 4422TIP3   OH237460   1.626   4.329  19.875
 4422TIP3    H137461   1.715   4.365  19.879
 4422TIP3    H237462   1.618   4.275  19.953
 4423TIP3   OH237463   1.617   4.041  19.371
 4423TIP3    H137464   1.653   4.001  19.450
 4423TIP3    H237465   1.553   3.979  19.339
 4424TIP3   OH237466   0.171   4.092  19.865
 4424TIP3    H137467   0.232   4.019  19.855
 4424TIP3    H237468   0.224   4.163  19.902
 4425TIP3   OH237469   0.096   4.406  19.972
 4425TIP3    H137470   0.135   4.404  19.885
 4425TIP3    H237471   0.053   4.492  19.976
 4426TIP3   OH237472   1.777   4.003  19.033
 4426TIP3    H137473   1.822   3.946  18.970
 4426TIP3    H237474   1.844   4.066  19.059
 4427TIP3   OH237475   0.103   4.018  19.328
 4427TIP3    H137476   0.009   4.016  19.347
 4427TIP3    H237477   0.112   4.084  19.259
 4428TIP3   OH237478   1.511   5.526  19.545
 4428TIP3    H137479   1.585   5.509  19.486
 4428TIP3    H237480   1.551   5.574  19.618
 4429TIP3   OH237481   0.274   5.507  19.910
 4429TIP3    H137482   0.307   5.531  19.996
 4429TIP3    H237483   0.344   5.457  19.869
 4430TIP3   OH237484   0.451   5.349  19.778
 4430TIP3    H137485   0.439   5.255  19.797
 4430TIP3    H237486   0.542   5.367  19.802
 4431TIP3   OH237487   0.705   5.380  19.880
 4431TIP3    H137488   0.724   5.287  19.868
 4431TIP3    H237489   0.742   5.401  19.966
 4432TIP3   OH237490   1.064   3.999  19.774
 4432TIP3    H137491   0.999   3.931  19.791
 4432TIP3    H237492   1.138   3.951  19.736
 4433TIP3   OH237493   1.574   3.810  19.767
 4433TIP3    H137494   1.638   3.854  19.711
 4433TIP3    H237495   1.493   3.860  19.755
 4434TIP3   OH237496   1.747   3.909  19.576
 4434TIP3    H137497   1.807   3.846  19.538
 4434TIP3    H237498   1.801   3.985  19.597
 4435TIP3   OH237499   0.320   3.817  19.526
 4435TIP3    H137500   0.232   3.798  19.495
 4435TIP3    H237501   0.369   3.736  19.512
 4436TIP3   OH237502   0.213   3.814  19.173
 4436TIP3    H137503   0.248   3.871  19.105
 4436TIP3    H237504   0.175   3.874  19.237
 4437TIP3   OH237505   0.756   3.784  19.533
 4437TIP3    H137506   0.825   3.829  19.484
 4437TIP3    H237507   0.779   3.798  19.625
 4438TIP3   OH237508   1.288   3.861  19.687
 4438TIP3    H137509   1.330   3.845  19.603
 4438TIP3    H237510   1.252   3.775  19.712
 4439TIP3   OH237511   1.425   3.856  19.293
 4439TIP3    H137512   1.345   3.908  19.300
 4439TIP3    H237513   1.396   3.765  19.303
 4440TIP3   OH237514   0.184   5.421  19.215
 4440TIP3    H137515   0.088   5.427  19.213
 4440TIP3    H237516   0.213   5.512  19.211
 4441TIP3   OH237517   0.355   3.983  18.998
 4441TIP3    H137518   0.400   3.921  18.940
 4441TIP3    H237519   0.422   4.009  19.062
 4442TIP3   OH237520   0.847   4.065  19.207
 4442TIP3    H137521   0.878   3.990  19.258
 4442TIP3    H237522   0.870   4.141  19.260
 4443TIP3   OH237523   1.059   5.543  19.067
 4443TIP3    H137524   1.154   5.551  19.063
 4443TIP3    H237525   1.035   5.497  18.986
 4444TIP3   OH237526   1.701   5.471  19.350
 4444TIP3    H137527   1.676   5.386  19.315
 4444TIP3    H237528   1.687   5.532  19.278
 4445TIP3   OH237529   0.338   5.480  18.922
 4445TIP3    H137530   0.316   5.489  19.015
 4445TIP3    H237531   0.423   5.437  18.922
 4446TIP3   OH237532   3.093   4.742  19.531
 4446TIP3    H137533   3.102   4.833  19.558
 4446TIP3    H237534   3.026   4.744  19.463
 4447TIP3   OH237535   2.968   4.661  19.903
 4447TIP3    H137536   3.003   4.587  19.952
 4447TIP3    H237537   2.914   4.622  19.834
 4448TIP3   OH237538   3.277   4.979  19.691
 4448TIP3    H137539   3.258   4.901  19.743
 4448TIP3    H237540   3.311   5.042  19.755
 4449TIP3   OH237541   2.323   5.095  19.849
 4449TIP3    H137542   2.295   5.004  19.835
 4449TIP3    H237543   2.418   5.088  19.861
 4450TIP3   OH237544   1.961   4.387  19.433
 4450TIP3    H137545   1.958   4.476  19.467
 4450TIP3    H237546   1.895   4.385  19.364
 4451TIP3   OH237547   2.036   4.646  19.622
 4451TIP3    H137548   2.065   4.565  19.664
 4451TIP3    H237549   2.118   4.692  19.602
 4452TIP3   OH237550   3.061   5.502  19.745
 4452TIP3    H137551   3.102   5.443  19.683
 4452TIP3    H237552   3.022   5.444  19.811
 4453TIP3   OH237553   2.834   4.913  19.956
 4453TIP3    H137554   2.878   4.833  19.926
 4453TIP3    H237555   2.889   4.946  20.026
 4454TIP3   OH237556   3.074   4.387  19.936
 4454TIP3    H137557   3.114   4.302  19.957
 4454TIP3    H237558   3.094   4.401  19.844
 4455TIP3   OH237559   2.477   4.146  19.687
 4455TIP3    H137560   2.486   4.226  19.636
 4455TIP3    H237561   2.426   4.087  19.631
 4456TIP3   OH237562   3.216   4.222  19.504
 4456TIP3    H137563   3.262   4.174  19.573
 4456TIP3    H237564   3.285   4.263  19.452
 4457TIP3   OH237565   2.114   4.414  19.739
 4457TIP3    H137566   2.176   4.379  19.803
 4457TIP3    H237567   2.134   4.367  19.658
 4458TIP3   OH237568   2.594   4.540  19.705
 4458TIP3    H137569   2.679   4.506  19.731
 4458TIP3    H237570   2.560   4.477  19.642
 4459TIP3   OH237571   3.022   5.002  19.407
 4459TIP3    H137572   3.027   5.018  19.313
 4459TIP3    H237573   2.993   5.086  19.444
 4460TIP3   OH237574   3.365   4.120  19.711
 4460TIP3    H137575   3.303   4.118  19.784
 4460TIP3    H237576   3.440   4.169  19.744
 4461TIP3   OH237577   2.310   4.277  19.873
 4461TIP3    H137578   2.366   4.345  19.911
 4461TIP3    H237579   2.368   4.228  19.815
 4462TIP3   OH237580   2.022   5.011  19.273
 4462TIP3    H137581   2.019   5.053  19.186
 4462TIP3    H237582   2.044   5.083  19.333
 4463TIP3   OH237583   3.387   5.140  19.888
 4463TIP3    H137584   3.433   5.087  19.953
 4463TIP3    H237585   3.420   5.229  19.902
 4464TIP3   OH237586   2.717   3.814  19.792
 4464TIP3    H137587   2.714   3.720  19.811
 4464TIP3    H237588   2.636   3.849  19.829
 4465TIP3   OH237589   3.199   5.349  19.561
 4465TIP3    H137590   3.242   5.267  19.539
 4465TIP3    H237591   3.270   5.413  19.566
 4466TIP3   OH237592   3.324   5.126  19.468
 4466TIP3    H137593   3.335   5.065  19.395
 4466TIP3    H237594   3.308   5.070  19.544
 4467TIP3   OH237595   2.943   4.706  19.292
 4467TIP3    H137596   2.883   4.779  19.275
 4467TIP3    H237597   3.015   4.719  19.230
 4468TIP3   OH237598   2.974   4.578  18.964
 4468TIP3    H137599   3.027   4.608  19.039
 4468TIP3    H237600   3.028   4.510  18.924
 4469TIP3   OH237601   3.316   4.710  19.373
 4469TIP3    H137602   3.248   4.721  19.439
 4469TIP3    H237603   3.385   4.662  19.419
 4470TIP3   OH237604   2.446   4.747  19.573
 4470TIP3    H137605   2.418   4.712  19.489
 4470TIP3    H237606   2.504   4.681  19.610
 4471TIP3   OH237607   2.603   5.100  19.835
 4471TIP3    H137608   2.607   5.105  19.739
 4471TIP3    H237609   2.675   5.042  19.859
 4472TIP3   OH237610   2.422   4.610  19.906
 4472TIP3    H137611   2.480   4.588  19.834
 4472TIP3    H237612   2.480   4.633  19.978
 4473TIP3   OH237613   3.178   4.666  19.142
 4473TIP3    H137614   3.226   4.687  19.222
 4473TIP3    H237615   3.233   4.700  19.071
 4474TIP3   OH237616   2.952   5.270  19.469
 4474TIP3    H137617   3.035   5.298  19.507
 4474TIP3    H237618   2.923   5.345  19.416
 4475TIP3   OH237619   3.549   3.784  19.158
 4475TIP3    H137620   3.465   3.811  19.196
 4475TIP3    H237621   3.588   3.865  19.125
 4476TIP3   OH237622   2.351   4.658  19.325
 4476TIP3    H137623   2.311   4.731  19.279
 4476TIP3    H237624   2.316   4.580  19.283
 4477TIP3   OH237625   3.679   5.221  18.994
 4477TIP3    H137626   3.693   5.316  18.998
 4477TIP3    H237627   3.767   5.183  18.994
 4478TIP3   OH237628   1.969   5.237  19.862
 4478TIP3    H137629   2.024   5.158  19.863
 4478TIP3    H237630   1.892   5.214  19.914
 4479TIP3   OH237631   2.935   5.557  19.338
 4479TIP3    H137632   2.921   5.572  19.244
 4479TIP3    H237633   2.905   5.638  19.380
 4480TIP3   OH237634   2.270   5.436  19.517
 4480TIP3    H137635   2.285   5.413  19.608
 4480TIP3    H237636   2.210   5.369  19.484
 4481TIP3   OH237637   3.220   5.510  19.026
 4481TIP3    H137638   3.273   5.441  18.986
 4481TIP3    H237639   3.229   5.495  19.120
 4482TIP3   OH237640   3.197   5.484  19.300
 4482TIP3    H137641   3.106   5.503  19.322
 4482TIP3    H237642   3.226   5.423  19.368
 4483TIP3   OH237643   2.474   3.910  19.876
 4483TIP3    H137644   2.385   3.890  19.845
 4483TIP3    H237645   2.481   4.005  19.866
 4484TIP3   OH237646   3.347   4.742  18.946
 4484TIP3    H137647   3.325   4.738  18.853
 4484TIP3    H237648   3.442   4.755  18.948
 4485TIP3   OH237649   2.877   4.095  18.981
 4485TIP3    H137650   2.821   4.094  19.059
 4485TIP3    H237651   2.839   4.029  18.924
 4486TIP3   OH237652   2.468   4.371  19.531
 4486TIP3    H137653   2.373   4.360  19.529
 4486TIP3    H237654   2.496   4.364  19.440
 4487TIP3   OH237655   3.002   4.449  19.379
 4487TIP3    H137656   2.978   4.539  19.354
 4487TIP3    H237657   3.073   4.426  19.319
 4488TIP3   OH237658   3.094   4.425  19.661
 4488TIP3    H137659   3.079   4.500  19.603
 4488TIP3    H237660   3.116   4.353  19.603
 4489TIP3   OH237661   2.549   4.152  18.891
 4489TIP3    H137662   2.513   4.138  18.978
 4489TIP3    H237663   2.494   4.220  18.852
 4490TIP3   OH237664   1.897   4.128  19.626
 4490TIP3    H137665   1.952   4.130  19.704
 4490TIP3    H237666   1.935   4.194  19.567
 4491TIP3   OH237667   1.964   4.199  19.117
 4491TIP3    H137668   2.032   4.240  19.064
 4491TIP3    H237669   1.908   4.271  19.145
 4492TIP3   OH237670   2.772   4.125  19.599
 4492TIP3    H137671   2.686   4.126  19.642
 4492TIP3    H237672   2.833   4.101  19.669
 4493TIP3   OH237673   2.207   4.287  19.514
 4493TIP3    H137674   2.129   4.304  19.462
 4493TIP3    H237675   2.231   4.197  19.492
 4494TIP3   OH237676   2.531   4.330  19.268
 4494TIP3    H137677   2.626   4.327  19.278
 4494TIP3    H237678   2.517   4.376  19.185
 4495TIP3   OH237679   3.165   4.118  19.914
 4495TIP3    H137680   3.180   4.051  19.981
 4495TIP3    H237681   3.089   4.086  19.864
 4496TIP3   OH237682   2.475   4.443  19.021
 4496TIP3    H137683   2.423   4.417  18.945
 4496TIP3    H237684   2.552   4.486  18.984
 4497TIP3   OH237685   2.835   4.427  19.787
 4497TIP3    H137686   2.905   4.413  19.724
 4497TIP3    H237687   2.869   4.392  19.869
 4498TIP3   OH237688   2.320   4.034  19.474
 4498TIP3    H137689   2.258   3.962  19.487
 4498TIP3    H237690   2.374   4.005  19.400
 4499TIP3   OH237691   2.748   4.909  19.222
 4499TIP3    H137692   2.681   4.857  19.177
 4499TIP3    H237693   2.713   4.921  19.310
 4500TIP3   OH237694   3.130   4.149  19.077
 4500TIP3    H137695   3.041   4.150  19.042
 4500TIP3    H237696   3.147   4.240  19.102
 4501TIP3   OH237697   3.208   4.390  19.197
 4501TIP3    H137698   3.292   4.371  19.239
 4501TIP3    H237699   3.216   4.480  19.166
 4502TIP3   OH237700   2.281   4.818  19.788
 4502TIP3    H137701   2.331   4.815  19.706
 4502TIP3    H237702   2.319   4.749  19.842
 4503TIP3   OH237703   2.968   5.043  19.131
 4503TIP3    H137704   2.944   5.134  19.142
 4503TIP3    H237705   2.891   4.994  19.160
 4504TIP3   OH237706   3.672   4.404  19.183
 4504TIP3    H137707   3.631   4.384  19.099
 4504TIP3    H237708   3.706   4.493  19.173
 4505TIP3   OH237709   3.516   5.246  19.223
 4505TIP3    H137710   3.468   5.168  19.250
 4505TIP3    H237711   3.561   5.220  19.142
 4506TIP3   OH237712   3.228   4.767  19.852
 4506TIP3    H137713   3.140   4.731  19.868
 4506TIP3    H237714   3.281   4.691  19.830
 4507TIP3   OH237715   2.533   5.183  19.565
 4507TIP3    H137716   2.559   5.263  19.519
 4507TIP3    H237717   2.437   5.184  19.563
 4508TIP3   OH237718   2.128   4.655  19.026
 4508TIP3    H137719   2.171   4.726  19.073
 4508TIP3    H237720   2.038   4.656  19.058
 4509TIP3   OH237721   2.615   4.940  19.456
 4509TIP3    H137722   2.598   5.026  19.495
 4509TIP3    H237723   2.559   4.880  19.505
 4510TIP3   OH237724   2.535   5.437  19.443
 4510TIP3    H137725   2.442   5.451  19.459
 4510TIP3    H237726   2.577   5.518  19.470
 4511TIP3   OH237727   3.312   5.072  19.009
 4511TIP3    H137728   3.325   5.029  19.093
 4511TIP3    H237729   3.221   5.052  18.985
 4512TIP3   OH237730   3.732   5.490  19.025
 4512TIP3    H137731   3.782   5.558  18.980
 4512TIP3    H237732   3.663   5.538  19.071
 4513TIP3   OH237733   3.398   4.951  19.252
 4513TIP3    H137734   3.357   4.874  19.291
 4513TIP3    H237735   3.491   4.928  19.246
 4514TIP3   OH237736   2.697   5.186  18.852
 4514TIP3    H137737   2.695   5.107  18.799
 4514TIP3    H237738   2.655   5.161  18.934
 4515TIP3   OH237739   2.580   5.122  19.096
 4515TIP3    H137740   2.635   5.065  19.149
 4515TIP3    H237741   2.591   5.209  19.135
 4516TIP3   OH237742   2.233   4.860  19.178
 4516TIP3    H137743   2.162   4.903  19.225
 4516TIP3    H237744   2.277   4.930  19.130
 4517TIP3   OH237745   3.105   4.034  19.328
 4517TIP3    H137746   3.115   4.072  19.241
 4517TIP3    H237747   3.134   4.103  19.388
 4518TIP3   OH237748   2.875   5.295  19.157
 4518TIP3    H137749   2.784   5.319  19.175
 4518TIP3    H237750   2.917   5.378  19.134
 4519TIP3   OH237751   2.793   4.273  19.362
 4519TIP3    H137752   2.866   4.334  19.366
 4519TIP3    H237753   2.789   4.234  19.450
 4520TIP3   OH237754   2.864   3.932  19.417
 4520TIP3    H137755   2.838   3.999  19.480
 4520TIP3    H237756   2.950   3.960  19.387
 4521TIP3   OH237757   2.614   5.376  19.188
 4521TIP3    H137758   2.621   5.462  19.147
 4521TIP3    H237759   2.585   5.395  19.277
 4522TIP3   OH237760   2.450   4.087  19.145
 4522TIP3    H137761   2.447   4.169  19.195
 4522TIP3    H237762   2.538   4.052  19.162
 4523TIP3   OH237763   3.346   4.527  19.747
 4523TIP3    H137764   3.263   4.482  19.731
 4523TIP3    H237765   3.398   4.465  19.798
 4524TIP3   OH237766   2.310   5.083  19.020
 4524TIP3    H137767   2.385   5.128  19.060
 4524TIP3    H237768   2.349   5.029  18.951
 4525TIP3   OH237769   2.104   4.383  18.967
 4525TIP3    H137770   2.138   4.465  19.003
 4525TIP3    H237771   2.065   4.407  18.884
 4526TIP3   OH237772   3.492   5.460  19.924
 4526TIP3    H137773   3.470   5.529  19.862
 4526TIP3    H237774   3.553   5.502  19.986
 4527TIP3   OH237775   2.215   3.888  19.772
 4527TIP3    H137776   2.199   3.872  19.679
 4527TIP3    H237777   2.184   3.809  19.816
 4528TIP3   OH237778   2.077   5.245  19.420
 4528TIP3    H137779   2.019   5.281  19.487
 4528TIP3    H237780   2.071   5.307  19.347
 4529TIP3   OH237781   2.901   5.377  18.854
 4529TIP3    H137782   2.836   5.307  18.864
 4529TIP3    H237783   2.980   5.332  18.824
 4530TIP3   OH237784   3.359   5.317  18.888
 4530TIP3    H137785   3.361   5.235  18.936
 4530TIP3    H237786   3.435   5.314  18.831
 4531TIP3   OH237787   2.441   4.899  18.867
 4531TIP3    H137788   2.475   4.857  18.946
 4531TIP3    H237789   2.518   4.908  18.809
 4532TIP3   OH237790   3.051   5.042  18.871
 4532TIP3    H137791   3.010   5.039  18.957
 4532TIP3    H237792   3.034   4.956  18.833
 4533TIP3   OH237793   2.556   4.757  19.090
 4533TIP3    H137794   2.506   4.703  19.151
 4533TIP3    H237795   2.606   4.695  19.037
 4534TIP3   OH237796   2.694   4.582  18.927
 4534TIP3    H137797   2.689   4.603  18.833
 4534TIP3    H237798   2.788   4.575  18.944
 4535TIP3   OH237799   3.624   4.770  18.877
 4535TIP3    H137800   3.608   4.742  18.786
 4535TIP3    H237801   3.605   4.863  18.877
 4536TIP3   OH237802   2.681   5.620  19.084
 4536TIP3    H137803   2.776   5.610  19.074
 4536TIP3    H237804   2.656   5.679  19.013
 4537TIP3   OH237805   2.035   5.089  19.007
 4537TIP3    H137806   2.129   5.102  19.008
 4537TIP3    H237807   2.020   5.024  18.939
 4538TIP3   OH237808   1.912   5.595  19.475
 4538TIP3    H137809   1.844   5.552  19.423
 4538TIP3    H237810   1.938   5.529  19.540
 4539TIP3   OH237811   1.996   5.417  19.661
 4539TIP3    H137812   1.973   5.344  19.719
 4539TIP3    H237813   2.041   5.479  19.718
 4540TIP3   OH237814   3.665   4.866  19.262
 4540TIP3    H137815   3.742   4.923  19.263
 4540TIP3    H237816   3.676   4.809  19.338
 4541TIP3   OH237817   3.719   4.687  19.461
 4541TIP3    H137818   3.641   4.642  19.492
 4541TIP3    H237819   3.777   4.690  19.537
 4542TIP3   OH237820   3.702   4.993  19.943
 4542TIP3    H137821   3.756   4.915  19.930
 4542TIP3    H237822   3.718   5.046  19.865
 4543TIP3   OH237823   3.748   4.660  19.095
 4543TIP3    H137824   3.703   4.684  19.014
 4543TIP3    H237825   3.720   4.726  19.158
 4544TIP3   OH237826   3.574   4.374  18.926
 4544TIP3    H137827   3.556   4.431  18.852
 4544TIP3    H237828   3.548   4.287  18.897
 4545TIP3   OH237829   3.491   4.542  19.514
 4545TIP3    H137830   3.474   4.454  19.480
 4545TIP3    H237831   3.448   4.543  19.600
 4546TIP3   OH237832   1.971   4.731  19.879
 4546TIP3    H137833   1.975   4.704  19.787
 4546TIP3    H237834   2.063   4.739  19.905
 4547TIP3   OH237835   3.493   4.125  18.840
 4547TIP3    H137836   3.530   4.074  18.913
 4547TIP3    H237837   3.402   4.095  18.833
 4548TIP3   OH237838   3.444   4.312  19.345
 4548TIP3    H137839   3.465   4.219  19.355
 4548TIP3    H237840   3.517   4.347  19.294
 4549TIP3   OH237841   3.499   4.329  19.868
 4549TIP3    H137842   3.592   4.353  19.869
 4549TIP3    H237843   3.480   4.307  19.959
 4550TIP3   OH237844   3.506   4.045  19.371
 4550TIP3    H137845   3.539   4.006  19.452
 4550TIP3    H237846   3.442   3.982  19.338
 4551TIP3   OH237847   2.078   4.120  19.833
 4551TIP3    H137848   2.118   4.034  19.818
 4551TIP3    H237849   2.149   4.173  19.868
 4552TIP3   OH237850   1.886   4.404  19.918
 4552TIP3    H137851   1.954   4.369  19.861
 4552TIP3    H237852   1.923   4.486  19.953
 4553TIP3   OH237853   3.662   4.002  19.026
 4553TIP3    H137854   3.706   3.943  18.964
 4553TIP3    H237855   3.731   4.061  19.056
 4554TIP3   OH237856   1.934   4.000  19.303
 4554TIP3    H137857   1.841   4.013  19.325
 4554TIP3    H237858   1.956   4.075  19.247
 4555TIP3   OH237859   3.390   5.538  19.542
 4555TIP3    H137860   3.464   5.517  19.484
 4555TIP3    H237861   3.430   5.581  19.617
 4556TIP3   OH237862   2.145   5.527  19.874
 4556TIP3    H137863   2.120   5.491  19.959
 4556TIP3    H237864   2.212   5.468  19.841
 4557TIP3   OH237865   2.333   5.359  19.774
 4557TIP3    H137866   2.323   5.268  19.802
 4557TIP3    H237867   2.423   5.382  19.800
 4558TIP3   OH237868   2.603   5.400  19.849
 4558TIP3    H137869   2.637   5.339  19.783
 4558TIP3    H237870   2.611   5.352  19.931
 4559TIP3   OH237871   2.946   3.995  19.775
 4559TIP3    H137872   2.880   3.927  19.789
 4559TIP3    H237873   3.020   3.948  19.736
 4560TIP3   OH237874   3.459   3.807  19.763
 4560TIP3    H137875   3.525   3.853  19.710
 4560TIP3    H237876   3.382   3.864  19.759
 4561TIP3   OH237877   3.633   3.912  19.576
 4561TIP3    H137878   3.693   3.847  19.540
 4561TIP3    H237879   3.688   3.988  19.596
 4562TIP3   OH237880   2.163   3.812  19.511
 4562TIP3    H137881   2.073   3.801  19.483
 4562TIP3    H237882   2.203   3.726  19.499
 4563TIP3   OH237883   2.073   3.816  19.145
 4563TIP3    H137884   2.117   3.881  19.090
 4563TIP3    H237885   2.024   3.868  19.209
 4564TIP3   OH237886   2.641   3.790  19.522
 4564TIP3    H137887   2.712   3.835  19.476
 4564TIP3    H237888   2.661   3.803  19.614
 4565TIP3   OH237889   3.170   3.862  19.683
 4565TIP3    H137890   3.220   3.848  19.603
 4565TIP3    H237891   3.137   3.775  19.706
 4566TIP3   OH237892   3.317   3.855  19.293
 4566TIP3    H137893   3.239   3.910  19.301
 4566TIP3    H237894   3.285   3.766  19.305
 4567TIP3   OH237895   2.051   5.432  19.226
 4567TIP3    H137896   1.971   5.424  19.174
 4567TIP3    H237897   2.071   5.525  19.225
 4568TIP3   OH237898   2.234   3.990  18.983
 4568TIP3    H137899   2.283   3.931  18.926
 4568TIP3    H237900   2.299   4.024  19.045
 4569TIP3   OH237901   2.720   4.059  19.208
 4569TIP3    H137902   2.757   3.987  19.259
 4569TIP3    H237903   2.744   4.138  19.256
 4570TIP3   OH237904   2.949   5.554  19.055
 4570TIP3    H137905   3.044   5.560  19.051
 4570TIP3    H237906   2.924   5.503  18.977
 4571TIP3   OH237907   3.586   5.474  19.355
 4571TIP3    H137908   3.561   5.390  19.318
 4571TIP3    H237909   3.579   5.535  19.281
 4572TIP3   OH237910   2.198   5.508  18.897
 4572TIP3    H137911   2.175   5.508  18.990
 4572TIP3    H237912   2.275   5.450  18.891
 4573TIP3   OH237913   4.986   4.758  19.530
 4573TIP3    H137914   4.993   4.852  19.548
 4573TIP3    H237915   4.917   4.751  19.464
 4574TIP3   OH237916   4.852   4.668  19.903
 4574TIP3    H137917   4.887   4.608  19.969
 4574TIP3    H237918   4.795   4.612  19.850
 4575TIP3   OH237919   5.171   4.969  19.685
 4575TIP3    H137920   5.147   4.891  19.735
 4575TIP3    H237921   5.204   5.031  19.750
 4576TIP3   OH237922   4.209   5.098  19.851
 4576TIP3    H137923   4.186   5.008  19.827
 4576TIP3    H237924   4.303   5.095  19.866
 4577TIP3   OH237925   3.836   4.372  19.437
 4577TIP3    H137926   3.828   4.462  19.468
 4577TIP3    H237927   3.779   4.368  19.361
 4578TIP3   OH237928   3.925   4.664  19.653
 4578TIP3    H137929   3.950   4.575  19.679
 4578TIP3    H237930   4.007   4.713  19.650
 4579TIP3   OH237931   4.944   5.515  19.751
 4579TIP3    H137932   4.986   5.450  19.694
 4579TIP3    H237933   4.888   5.464  19.810
 4580TIP3   OH237934   4.698   4.946  19.927
 4580TIP3    H137935   4.743   4.876  19.879
 4580TIP3    H237936   4.749   4.957  20.007
 4581TIP3   OH237937   4.970   4.379  19.945
 4581TIP3    H137938   5.008   4.292  19.956
 4581TIP3    H237939   4.985   4.400  19.853
 4582TIP3   OH237940   4.366   4.151  19.680
 4582TIP3    H137941   4.373   4.230  19.627
 4582TIP3    H237942   4.314   4.091  19.626
 4583TIP3   OH237943   5.098   4.221  19.508
 4583TIP3    H137944   5.145   4.171  19.575
 4583TIP3    H237945   5.167   4.259  19.454
 4584TIP3   OH237946   4.002   4.413  19.729
 4584TIP3    H137947   4.059   4.369  19.792
 4584TIP3    H237948   4.024   4.373  19.645
 4585TIP3   OH237949   4.486   4.542  19.707
 4585TIP3    H137950   4.571   4.507  19.734
 4585TIP3    H237951   4.453   4.479  19.643
 4586TIP3   OH237952   4.917   5.014  19.401
 4586TIP3    H137953   4.910   5.024  19.306
 4586TIP3    H237954   4.887   5.099  19.435
 4587TIP3   OH237955   5.251   4.114  19.708
 4587TIP3    H137956   5.189   4.103  19.780
 4587TIP3    H237957   5.328   4.154  19.748
 4588TIP3   OH237958   4.195   4.271  19.868
 4588TIP3    H137959   4.247   4.342  19.904
 4588TIP3    H237960   4.254   4.225  19.809
 4589TIP3   OH237961   3.904   5.014  19.257
 4589TIP3    H137962   3.898   5.057  19.172
 4589TIP3    H237963   3.924   5.084  19.319
 4590TIP3   OH237964   5.271   5.125  19.889
 4590TIP3    H137965   5.305   5.074  19.962
 4590TIP3    H237966   5.307   5.213  19.902
 4591TIP3   OH237967   4.598   3.806  19.802
 4591TIP3    H137968   4.586   3.712  19.815
 4591TIP3    H237969   4.518   3.846  19.836
 4592TIP3   OH237970   5.085   5.357  19.575
 4592TIP3    H137971   5.125   5.274  19.551
 4592TIP3    H237972   5.158   5.419  19.578
 4593TIP3   OH237973   5.204   5.135  19.472
 4593TIP3    H137974   5.204   5.080  19.394
 4593TIP3    H237975   5.193   5.074  19.545
 4594TIP3   OH237976   4.834   4.705  19.298
 4594TIP3    H137977   4.770   4.773  19.276
 4594TIP3    H237978   4.904   4.716  19.233
 4595TIP3   OH237979   4.869   4.572  18.963
 4595TIP3    H137980   4.922   4.606  19.036
 4595TIP3    H237981   4.919   4.499  18.929
 4596TIP3   OH237982   5.209   4.711  19.379
 4596TIP3    H137983   5.140   4.727  19.444
 4596TIP3    H237984   5.274   4.659  19.426
 4597TIP3   OH237985   4.339   4.746  19.566
 4597TIP3    H137986   4.311   4.708  19.482
 4597TIP3    H237987   4.396   4.679  19.603
 4598TIP3   OH237988   4.493   5.123  19.845
 4598TIP3    H137989   4.496   5.121  19.749
 4598TIP3    H237990   4.562   5.063  19.872
 4599TIP3   OH237991   4.310   4.617  19.902
 4599TIP3    H137992   4.370   4.593  19.831
 4599TIP3    H237993   4.367   4.637  19.976
 4600TIP3   OH237994   5.070   4.663  19.147
 4600TIP3    H137995   5.118   4.686  19.227
 4600TIP3    H237996   5.125   4.697  19.076
 4601TIP3   OH237997   4.845   5.281  19.463
 4601TIP3    H137998   4.923   5.308  19.510
 4601TIP3    H237999   4.811   5.362  19.424
 4602TIP3   OH238000   5.438   3.776  19.153
 4602TIP3    H138001   5.349   3.797  19.181
 4602TIP3    H238002   5.477   3.861  19.132
 4603TIP3   OH238003   4.247   4.655  19.317
 4603TIP3    H138004   4.199   4.726  19.275
 4603TIP3    H238005   4.204   4.575  19.286
 4604TIP3   OH238006   5.571   5.228  18.999
 4604TIP3    H138007   5.593   5.321  19.004
 4604TIP3    H238008   5.655   5.183  19.000
 4605TIP3   OH238009   3.869   5.210  19.847
 4605TIP3    H138010   3.952   5.169  19.870
 4605TIP3    H238011   3.824   5.221  19.931
 4606TIP3   OH238012   4.813   5.544  19.343
 4606TIP3    H138013   4.802   5.559  19.249
 4606TIP3    H238014   4.783   5.625  19.384
 4607TIP3   OH238015   4.154   5.436  19.513
 4607TIP3    H138016   4.169   5.415  19.605
 4607TIP3    H238017   4.089   5.372  19.484
 4608TIP3   OH238018   5.105   5.510  19.035
 4608TIP3    H138019   5.158   5.441  18.996
 4608TIP3    H238020   5.116   5.499  19.129
 4609TIP3   OH238021   5.082   5.489  19.309
 4609TIP3    H138022   4.989   5.503  19.331
 4609TIP3    H238023   5.114   5.431  19.378
 4610TIP3   OH238024   4.357   3.909  19.884
 4610TIP3    H138025   4.273   3.889  19.842
 4610TIP3    H238026   4.353   4.003  19.902
 4611TIP3   OH238027   5.238   4.742  18.949
 4611TIP3    H138028   5.216   4.737  18.856
 4611TIP3    H238029   5.332   4.759  18.951
 4612TIP3   OH238030   4.772   4.102  18.988
 4612TIP3    H138031   4.713   4.102  19.064
 4612TIP3    H238032   4.734   4.038  18.928
 4613TIP3   OH238033   4.359   4.379  19.529
 4613TIP3    H138034   4.263   4.370  19.524
 4613TIP3    H238035   4.388   4.368  19.438
 4614TIP3   OH238036   4.887   4.453  19.397
 4614TIP3    H138037   4.862   4.541  19.368
 4614TIP3    H238038   4.953   4.425  19.334
 4615TIP3   OH238039   4.983   4.420  19.669
 4615TIP3    H138040   4.957   4.489  19.608
 4615TIP3    H238041   5.004   4.345  19.614
 4616TIP3   OH238042   4.435   4.156  18.896
 4616TIP3    H138043   4.397   4.138  18.982
 4616TIP3    H238044   4.375   4.219  18.856
 4617TIP3   OH238045   3.782   4.135  19.621
 4617TIP3    H138046   3.840   4.135  19.697
 4617TIP3    H238047   3.809   4.212  19.571
 4618TIP3   OH238048   3.849   4.195  19.120
 4618TIP3    H138049   3.920   4.235  19.071
 4618TIP3    H238050   3.792   4.268  19.145
 4619TIP3   OH238051   4.658   4.123  19.610
 4619TIP3    H138052   4.570   4.122  19.648
 4619TIP3    H238053   4.715   4.093  19.681
 4620TIP3   OH238054   4.098   4.295  19.499
 4620TIP3    H138055   4.014   4.305  19.454
 4620TIP3    H238056   4.123   4.204  19.484
 4621TIP3   OH238057   4.417   4.330  19.266
 4621TIP3    H138058   4.512   4.326  19.274
 4621TIP3    H238059   4.401   4.375  19.183
 4622TIP3   OH238060   5.052   4.110  19.915
 4622TIP3    H138061   5.061   4.048  19.988
 4622TIP3    H238062   4.977   4.078  19.866
 4623TIP3   OH238063   4.356   4.443  19.021
 4623TIP3    H138064   4.303   4.415  18.947
 4623TIP3    H238065   4.433   4.483  18.982
 4624TIP3   OH238066   4.725   4.431  19.801
 4624TIP3    H138067   4.795   4.413  19.738
 4624TIP3    H238068   4.753   4.388  19.882
 4625TIP3   OH238069   4.201   4.037  19.472
 4625TIP3    H138070   4.139   3.966  19.487
 4625TIP3    H238071   4.252   4.010  19.395
 4626TIP3   OH238072   4.638   4.900  19.227
 4626TIP3    H138073   4.569   4.851  19.183
 4626TIP3    H238074   4.603   4.918  19.314
 4627TIP3   OH238075   5.026   4.150  19.073
 4627TIP3    H138076   4.936   4.146  19.041
 4627TIP3    H238077   5.038   4.241  19.101
 4628TIP3   OH238078   5.085   4.390  19.207
 4628TIP3    H138079   5.170   4.371  19.246
 4628TIP3    H238080   5.092   4.480  19.175
 4629TIP3   OH238081   4.172   4.822  19.773
 4629TIP3    H138082   4.224   4.816  19.693
 4629TIP3    H238083   4.206   4.753  19.830
 4630TIP3   OH238084   4.851   5.034  19.121
 4630TIP3    H138085   4.823   5.125  19.130
 4630TIP3    H238086   4.777   4.983  19.153
 4631TIP3   OH238087   5.590   4.388  19.185
 4631TIP3    H138088   5.545   4.361  19.105
 4631TIP3    H238089   5.616   4.479  19.167
 4632TIP3   OH238090   5.388   5.258  19.209
 4632TIP3    H138091   5.348   5.175  19.235
 4632TIP3    H238092   5.444   5.235  19.135
 4633TIP3   OH238093   5.116   4.756  19.848
 4633TIP3    H138094   5.024   4.733  19.858
 4633TIP3    H238095   5.158   4.677  19.815
 4634TIP3   OH238096   4.407   5.182  19.565
 4634TIP3    H138097   4.438   5.264  19.526
 4634TIP3    H238098   4.313   5.182  19.551
 4635TIP3   OH238099   4.012   4.663  19.008
 4635TIP3    H138100   4.059   4.729  19.059
 4635TIP3    H238101   3.923   4.663  19.045
 4636TIP3   OH238102   4.503   4.945  19.458
 4636TIP3    H138103   4.481   5.029  19.497
 4636TIP3    H238104   4.447   4.882  19.502
 4637TIP3   OH238105   4.417   5.436  19.436
 4637TIP3    H138106   4.324   5.450  19.453
 4637TIP3    H238107   4.459   5.516  19.467
 4638TIP3   OH238108   5.196   5.070  19.012
 4638TIP3    H138109   5.215   5.027  19.095
 4638TIP3    H238110   5.105   5.048  18.993
 4639TIP3   OH238111   5.632   5.494  19.039
 4639TIP3    H138112   5.702   5.560  19.037
 4639TIP3    H238113   5.554   5.542  19.068
 4640TIP3   OH238114   5.287   4.952  19.250
 4640TIP3    H138115   5.246   4.878  19.296
 4640TIP3    H238116   5.380   4.928  19.244
 4641TIP3   OH238117   4.583   5.188  18.851
 4641TIP3    H138118   4.585   5.105  18.805
 4641TIP3    H238119   4.540   5.169  18.935
 4642TIP3   OH238120   4.463   5.124  19.096
 4642TIP3    H138121   4.516   5.068  19.152
 4642TIP3    H238122   4.471   5.211  19.133
 4643TIP3   OH238123   4.117   4.856  19.177
 4643TIP3    H138124   4.044   4.899  19.220
 4643TIP3    H238125   4.163   4.927  19.131
 4644TIP3   OH238126   4.985   4.038  19.326
 4644TIP3    H138127   4.998   4.077  19.240
 4644TIP3    H238128   5.014   4.106  19.387
 4645TIP3   OH238129   4.750   5.283  19.144
 4645TIP3    H138130   4.661   5.311  19.165
 4645TIP3    H238131   4.801   5.364  19.140
 4646TIP3   OH238132   4.677   4.276  19.376
 4646TIP3    H138133   4.749   4.338  19.383
 4646TIP3    H238134   4.672   4.235  19.462
 4647TIP3   OH238135   4.746   3.934  19.422
 4647TIP3    H138136   4.721   4.000  19.486
 4647TIP3    H238137   4.831   3.963  19.388
 4648TIP3   OH238138   4.495   5.380  19.180
 4648TIP3    H138139   4.501   5.465  19.136
 4648TIP3    H238140   4.467   5.401  19.269
 4649TIP3   OH238141   4.336   4.086  19.149
 4649TIP3    H138142   4.337   4.168  19.198
 4649TIP3    H238143   4.423   4.049  19.164
 4650TIP3   OH238144   5.235   4.520  19.749
 4650TIP3    H138145   5.151   4.477  19.731
 4650TIP3    H238146   5.285   4.454  19.798
 4651TIP3   OH238147   4.196   5.078  19.015
 4651TIP3    H138148   4.269   5.123  19.057
 4651TIP3    H238149   4.237   5.023  18.948
 4652TIP3   OH238150   3.986   4.387  18.976
 4652TIP3    H138151   4.023   4.471  19.002
 4652TIP3    H238152   3.921   4.408  18.909
 4653TIP3   OH238153   5.387   5.456  19.927
 4653TIP3    H138154   5.364   5.520  19.861
 4653TIP3    H238155   5.420   5.507  20.001
 4654TIP3   OH238156   4.102   3.887  19.769
 4654TIP3    H138157   4.086   3.871  19.676
 4654TIP3    H238158   4.071   3.807  19.813
 4655TIP3   OH238159   3.959   5.247  19.409
 4655TIP3    H138160   3.900   5.280  19.476
 4655TIP3    H238161   3.952   5.309  19.336
 4656TIP3   OH238162   4.794   5.374  18.850
 4656TIP3    H138163   4.727   5.308  18.868
 4656TIP3    H238164   4.872   5.323  18.826
 4657TIP3   OH238165   5.236   5.316  18.889
 4657TIP3    H138166   5.241   5.236  18.941
 4657TIP3    H238167   5.317   5.316  18.837
 4658TIP3   OH238168   4.339   4.897  18.869
 4658TIP3    H138169   4.370   4.855  18.949
 4658TIP3    H238170   4.418   4.906  18.815
 4659TIP3   OH238171   4.928   5.040  18.857
 4659TIP3    H138172   4.890   5.036  18.945
 4659TIP3    H238173   4.919   4.950  18.824
 4660TIP3   OH238174   4.443   4.754  19.096
 4660TIP3    H138175   4.390   4.703  19.158
 4660TIP3    H238176   4.489   4.688  19.044
 4661TIP3   OH238177   4.580   4.579  18.929
 4661TIP3    H138178   4.575   4.600  18.836
 4661TIP3    H238179   4.674   4.571  18.946
 4662TIP3   OH238180   5.517   4.777  18.875
 4662TIP3    H138181   5.494   4.750  18.786
 4662TIP3    H238182   5.495   4.870  18.878
 4663TIP3   OH238183   4.566   5.617  19.057
 4663TIP3    H138184   4.660   5.602  19.066
 4663TIP3    H238185   4.559   5.688  18.993
 4664TIP3   OH238186   3.925   5.092  18.985
 4664TIP3    H138187   4.019   5.095  19.000
 4664TIP3    H238188   3.912   5.019  18.925
 4665TIP3   OH238189   3.795   5.594  19.486
 4665TIP3    H138190   3.726   5.553  19.432
 4665TIP3    H238191   3.822   5.525  19.546
 4666TIP3   OH238192   3.888   5.407  19.659
 4666TIP3    H138193   3.865   5.330  19.711
 4666TIP3    H238194   3.929   5.467  19.722
 4667TIP3   OH238195   5.553   4.858  19.259
 4667TIP3    H138196   5.630   4.915  19.262
 4667TIP3    H238197   5.562   4.800  19.334
 4668TIP3   OH238198   5.604   4.676  19.458
 4668TIP3    H138199   5.524   4.632  19.488
 4668TIP3    H238200   5.654   4.693  19.538
 4669TIP3   OH238201   5.581   4.978  19.931
 4669TIP3    H138202   5.653   4.915  19.922
 4669TIP3    H238203   5.596   5.041  19.860
 4670TIP3   OH238204   5.641   4.655  19.089
 4670TIP3    H138205   5.597   4.680  19.008
 4670TIP3    H238206   5.610   4.719  19.153
 4671TIP3   OH238207   5.470   4.353  18.940
 4671TIP3    H138208   5.480   4.421  18.873
 4671TIP3    H238209   5.424   4.282  18.894
 4672TIP3   OH238210   5.378   4.529  19.515
 4672TIP3    H138211   5.358   4.443  19.479
 4672TIP3    H238212   5.336   4.530  19.601
 4673TIP3   OH238213   3.847   4.757  19.898
 4673TIP3    H138214   3.857   4.728  19.808
 4673TIP3    H238215   3.936   4.757  19.934
 4674TIP3   OH238216   5.368   4.111  18.843
 4674TIP3    H138217   5.364   4.065  18.927
 4674TIP3    H238218   5.281   4.099  18.805
 4675TIP3   OH238219   5.324   4.300  19.346
 4675TIP3    H138220   5.341   4.206  19.354
 4675TIP3    H238221   5.397   4.333  19.294
 4676TIP3   OH238222   5.392   4.326  19.870
 4676TIP3    H138223   5.484   4.352  19.879
 4676TIP3    H238224   5.368   4.293  19.957
 4677TIP3   OH238225   5.382   4.030  19.364
 4677TIP3    H138226   5.408   3.991  19.448
 4677TIP3    H238227   5.316   3.970  19.329
 4678TIP3   OH238228   3.962   4.120  19.831
 4678TIP3    H138229   3.997   4.032  19.815
 4678TIP3    H238230   4.037   4.169  19.864
 4679TIP3   OH238231   3.765   4.382  19.912
 4679TIP3    H138232   3.831   4.331  19.865
 4679TIP3    H238233   3.811   4.461  19.940
 4680TIP3   OH238234   5.611   3.982  19.048
 4680TIP3    H138235   5.618   3.923  18.973
 4680TIP3    H238236   5.617   4.070  19.010
 4681TIP3   OH238237   3.809   3.992  19.300
 4681TIP3    H138238   3.719   4.009  19.328
 4681TIP3    H238239   3.833   4.069  19.248
 4682TIP3   OH238240   5.288   5.530  19.543
 4682TIP3    H138241   5.361   5.515  19.482
 4682TIP3    H238242   5.327   5.579  19.615
 4683TIP3   OH238243   4.033   5.526  19.872
 4683TIP3    H138244   4.041   5.522  19.967
 4683TIP3    H238245   4.103   5.470  19.839
 4684TIP3   OH238246   4.225   5.363  19.771
 4684TIP3    H138247   4.217   5.271  19.796
 4684TIP3    H238248   4.315   5.385  19.792
 4685TIP3   OH238249   4.482   5.403  19.876
 4685TIP3    H138250   4.500   5.310  19.863
 4685TIP3    H238251   4.490   5.416  19.970
 4686TIP3   OH238252   4.830   3.983  19.786
 4686TIP3    H138253   4.761   3.918  19.802
 4686TIP3    H238254   4.901   3.934  19.746
 4687TIP3   OH238255   5.342   3.797  19.767
 4687TIP3    H138256   5.399   3.849  19.710
 4687TIP3    H238257   5.255   3.837  19.756
 4688TIP3   OH238258   5.509   3.906  19.574
 4688TIP3    H138259   5.568   3.840  19.539
 4688TIP3    H238260   5.566   3.978  19.602
 4689TIP3   OH238261   4.045   3.813  19.509
 4689TIP3    H138262   3.954   3.801  19.483
 4689TIP3    H238263   4.084   3.726  19.500
 4690TIP3   OH238264   3.952   3.816  19.140
 4690TIP3    H138265   4.001   3.880  19.089
 4690TIP3    H238266   3.903   3.868  19.203
 4691TIP3   OH238267   4.521   3.792  19.530
 4691TIP3    H138268   4.594   3.832  19.483
 4691TIP3    H238269   4.544   3.801  19.622
 4692TIP3   OH238270   5.065   3.854  19.693
 4692TIP3    H138271   5.090   3.837  19.602
 4692TIP3    H238272   5.027   3.772  19.724
 4693TIP3   OH238273   5.195   3.845  19.275
 4693TIP3    H138274   5.115   3.897  19.278
 4693TIP3    H238275   5.167   3.756  19.295
 4694TIP3   OH238276   3.931   5.432  19.211
 4694TIP3    H138277   3.855   5.428  19.153
 4694TIP3    H238278   3.953   5.525  19.215
 4695TIP3   OH238279   4.123   3.990  18.987
 4695TIP3    H138280   4.171   3.931  18.929
 4695TIP3    H238281   4.188   4.021  19.050
 4696TIP3   OH238282   4.609   4.068  19.210
 4696TIP3    H138283   4.641   3.992  19.259
 4696TIP3    H238284   4.632   4.143  19.265
 4697TIP3   OH238285   4.833   5.545  19.063
 4697TIP3    H138286   4.928   5.556  19.060
 4697TIP3    H238287   4.812   5.497  18.983
 4698TIP3   OH238288   5.477   5.479  19.345
 4698TIP3    H138289   5.445   5.397  19.307
 4698TIP3    H238290   5.469   5.543  19.274
 4699TIP3   OH238291   4.074   5.507  18.917
 4699TIP3    H138292   4.044   5.529  19.006
 4699TIP3    H238293   4.145   5.444  18.931
 4700TIP3   OH238294   6.855   4.717  19.538
 4700TIP3    H138295   6.853   4.805  19.577
 4700TIP3    H238296   6.791   4.721  19.467
 4701TIP3   OH238297   6.734   4.665  19.907
 4701TIP3    H138298   6.773   4.594  19.958
 4701TIP3    H238299   6.684   4.621  19.839
 4702TIP3   OH238300   7.036   4.987  19.682
 4702TIP3    H138301   7.012   4.912  19.737
 4702TIP3    H238302   7.082   5.046  19.741
 4703TIP3   OH238303   6.105   5.108  19.845
 4703TIP3    H138304   6.077   5.019  19.826
 4703TIP3    H238305   6.199   5.101  19.860
 4704TIP3   OH238306   5.735   4.427  19.432
 4704TIP3    H138307   5.712   4.519  19.449
 4704TIP3    H238308   5.674   4.399  19.364
 4705TIP3   OH238309   5.808   4.671  19.650
 4705TIP3    H138310   5.834   4.584  19.678
 4705TIP3    H238311   5.890   4.719  19.640
 4706TIP3   OH238312   6.822   5.508  19.740
 4706TIP3    H138313   6.866   5.439  19.690
 4706TIP3    H238314   6.768   5.460  19.803
 4707TIP3   OH238315   6.602   4.923  19.951
 4707TIP3    H138316   6.647   4.842  19.925
 4707TIP3    H238317   6.645   4.949  20.033
 4708TIP3   OH238318   6.845   4.381  19.938
 4708TIP3    H138319   6.881   4.296  19.963
 4708TIP3    H238320   6.872   4.393  19.847
 4709TIP3   OH238321   6.243   4.182  19.662
 4709TIP3    H138322   6.238   4.261  19.609
 4709TIP3    H238323   6.202   4.114  19.609
 4710TIP3   OH238324   6.984   4.208  19.501
 4710TIP3    H138325   7.026   4.158  19.571
 4710TIP3    H238326   7.057   4.246  19.452
 4711TIP3   OH238327   5.876   4.420  19.741
 4711TIP3    H138328   5.945   4.375  19.789
 4711TIP3    H238329   5.848   4.356  19.674
 4712TIP3   OH238330   6.382   4.547  19.693
 4712TIP3    H138331   6.465   4.511  19.724
 4712TIP3    H238332   6.348   4.481  19.633
 4713TIP3   OH238333   6.833   4.999  19.445
 4713TIP3    H138334   6.884   4.985  19.365
 4713TIP3    H238335   6.897   5.029  19.510
 4714TIP3   OH238336   7.114   4.100  19.712
 4714TIP3    H138337   7.065   4.109  19.793
 4714TIP3    H238338   7.200   4.135  19.731
 4715TIP3   OH238339   6.083   4.285  19.868
 4715TIP3    H138340   6.128   4.362  19.903
 4715TIP3    H238341   6.145   4.246  19.807
 4716TIP3   OH238342   5.795   4.999  19.261
 4716TIP3    H138343   5.787   5.039  19.174
 4716TIP3    H238344   5.811   5.073  19.320
 4717TIP3   OH238345   7.169   5.127  19.876
 4717TIP3    H138346   7.181   5.069  19.951
 4717TIP3    H238347   7.202   5.212  19.906
 4718TIP3   OH238348   6.488   3.817  19.774
 4718TIP3    H138349   6.482   3.723  19.787
 4718TIP3    H238350   6.408   3.852  19.812
 4719TIP3   OH238351   6.962   5.340  19.570
 4719TIP3    H138352   7.008   5.261  19.539
 4719TIP3    H238353   7.031   5.406  19.578
 4720TIP3   OH238354   7.093   5.126  19.459
 4720TIP3    H138355   7.139   5.075  19.392
 4720TIP3    H238356   7.098   5.072  19.537
 4721TIP3   OH238357   6.712   4.708  19.300
 4721TIP3    H138358   6.646   4.770  19.271
 4721TIP3    H238359   6.777   4.707  19.229
 4722TIP3   OH238360   6.746   4.552  18.963
 4722TIP3    H138361   6.801   4.588  19.032
 4722TIP3    H238362   6.799   4.485  18.922
 4723TIP3   OH238363   7.075   4.708  19.373
 4723TIP3    H138364   7.006   4.710  19.439
 4723TIP3    H238365   7.144   4.655  19.413
 4724TIP3   OH238366   6.267   4.769  19.565
 4724TIP3    H138367   6.220   4.728  19.492
 4724TIP3    H238368   6.315   4.698  19.606
 4725TIP3   OH238369   6.390   5.126  19.843
 4725TIP3    H138370   6.396   5.128  19.747
 4725TIP3    H238371   6.456   5.063  19.870
 4726TIP3   OH238372   6.201   4.588  19.897
 4726TIP3    H138373   6.268   4.578  19.829
 4726TIP3    H238374   6.251   4.611  19.976
 4727TIP3   OH238375   6.934   4.666  19.141
 4727TIP3    H138376   6.985   4.680  19.221
 4727TIP3    H238377   6.990   4.700  19.071
 4728TIP3   OH238378   6.701   5.297  19.487
 4728TIP3    H138379   6.787   5.309  19.528
 4728TIP3    H238380   6.676   5.384  19.457
 4729TIP3   OH238381   7.317   3.787  19.146
 4729TIP3    H138382   7.230   3.812  19.175
 4729TIP3    H238383   7.359   3.869  19.120
 4730TIP3   OH238384   6.116   4.642  19.355
 4730TIP3    H138385   6.089   4.725  19.316
 4730TIP3    H238386   6.081   4.575  19.297
 4731TIP3   OH238387   7.452   5.236  18.972
 4731TIP3    H138388   7.463   5.331  18.984
 4731TIP3    H238389   7.541   5.204  18.959
 4732TIP3   OH238390   5.725   5.212  19.842
 4732TIP3    H138391   5.804   5.174  19.881
 4732TIP3    H238392   5.671   5.236  19.918
 4733TIP3   OH238393   6.695   5.554  19.364
 4733TIP3    H138394   6.665   5.559  19.273
 4733TIP3    H238395   6.670   5.638  19.403
 4734TIP3   OH238396   6.040   5.439  19.519
 4734TIP3    H138397   6.056   5.423  19.612
 4734TIP3    H238398   5.964   5.384  19.499
 4735TIP3   OH238399   6.987   5.509  19.034
 4735TIP3    H138400   7.038   5.439  18.993
 4735TIP3    H238401   6.994   5.492  19.128
 4736TIP3   OH238402   6.955   5.483  19.308
 4736TIP3    H138403   6.864   5.503  19.329
 4736TIP3    H238404   6.987   5.434  19.384
 4737TIP3   OH238405   6.246   3.906  19.862
 4737TIP3    H138406   6.159   3.887  19.827
 4737TIP3    H238407   6.240   3.994  19.898
 4738TIP3   OH238408   7.110   4.751  18.957
 4738TIP3    H138409   7.082   4.742  18.866
 4738TIP3    H238410   7.206   4.753  18.952
 4739TIP3   OH238411   6.660   4.097  18.979
 4739TIP3    H138412   6.601   4.091  19.054
 4739TIP3    H238413   6.623   4.038  18.914
 4740TIP3   OH238414   6.212   4.409  19.504
 4740TIP3    H138415   6.177   4.495  19.478
 4740TIP3    H238416   6.249   4.373  19.424
 4741TIP3   OH238417   6.777   4.448  19.382
 4741TIP3    H138418   6.753   4.537  19.354
 4741TIP3    H238419   6.850   4.424  19.325
 4742TIP3   OH238420   6.862   4.409  19.654
 4742TIP3    H138421   6.837   4.468  19.583
 4742TIP3    H238422   6.894   4.330  19.609
 4743TIP3   OH238423   6.320   4.149  18.885
 4743TIP3    H138424   6.280   4.133  18.971
 4743TIP3    H238425   6.261   4.212  18.843
 4744TIP3   OH238426   5.682   4.107  19.627
 4744TIP3    H138427   5.727   4.112  19.711
 4744TIP3    H238428   5.726   4.171  19.572
 4745TIP3   OH238429   5.846   4.239  19.185
 4745TIP3    H138430   5.879   4.280  19.105
 4745TIP3    H238431   5.758   4.276  19.196
 4746TIP3   OH238432   6.553   4.137  19.603
 4746TIP3    H138433   6.469   4.148  19.648
 4746TIP3    H238434   6.614   4.109  19.671
 4747TIP3   OH238435   5.941   4.260  19.484
 4747TIP3    H138436   5.878   4.327  19.458
 4747TIP3    H238437   6.022   4.308  19.500
 4748TIP3   OH238438   6.306   4.326  19.264
 4748TIP3    H138439   6.401   4.319  19.273
 4748TIP3    H238440   6.293   4.369  19.180
 4749TIP3   OH238441   6.928   4.110  19.927
 4749TIP3    H138442   6.939   4.043  19.994
 4749TIP3    H238443   6.855   4.078  19.874
 4750TIP3   OH238444   6.247   4.439  19.019
 4750TIP3    H138445   6.195   4.410  18.944
 4750TIP3    H238446   6.323   4.482  18.981
 4751TIP3   OH238447   6.613   4.430  19.787
 4751TIP3    H138448   6.683   4.413  19.725
 4751TIP3    H238449   6.646   4.397  19.871
 4752TIP3   OH238450   6.128   4.004  19.456
 4752TIP3    H138451   6.070   3.934  19.486
 4752TIP3    H238452   6.211   3.960  19.437
 4753TIP3   OH238453   6.521   4.908  19.232
 4753TIP3    H138454   6.456   4.865  19.177
 4753TIP3    H238455   6.477   4.918  19.317
 4754TIP3   OH238456   6.910   4.149  19.081
 4754TIP3    H138457   6.822   4.152  19.044
 4754TIP3    H238458   6.927   4.238  19.109
 4755TIP3   OH238459   6.987   4.385  19.208
 4755TIP3    H138460   7.069   4.360  19.251
 4755TIP3    H238461   7.009   4.465  19.161
 4756TIP3   OH238462   6.086   4.826  19.773
 4756TIP3    H138463   6.144   4.825  19.697
 4756TIP3    H238464   6.112   4.749  19.825
 4757TIP3   OH238465   6.761   5.032  19.157
 4757TIP3    H138466   6.766   5.085  19.078
 4757TIP3    H238467   6.689   4.971  19.140
 4758TIP3   OH238468   7.417   4.408  19.184
 4758TIP3    H138469   7.381   4.381  19.099
 4758TIP3    H238470   7.474   4.482  19.164
 4759TIP3   OH238471   7.300   5.245  19.205
 4759TIP3    H138472   7.232   5.178  19.199
 4759TIP3    H238473   7.349   5.237  19.124
 4760TIP3   OH238474   6.978   4.791  19.858
 4760TIP3    H138475   6.894   4.751  19.880
 4760TIP3    H238476   7.035   4.717  19.838
 4761TIP3   OH238477   6.281   5.198  19.543
 4761TIP3    H138478   6.303   5.284  19.507
 4761TIP3    H238479   6.185   5.196  19.545
 4762TIP3   OH238480   5.910   4.666  19.015
 4762TIP3    H138481   5.951   4.736  19.066
 4762TIP3    H238482   5.819   4.666  19.044
 4763TIP3   OH238483   6.430   4.983  19.475
 4763TIP3    H138484   6.380   5.061  19.498
 4763TIP3    H238485   6.382   4.911  19.515
 4764TIP3   OH238486   6.300   5.448  19.430
 4764TIP3    H138487   6.206   5.462  19.446
 4764TIP3    H238488   6.342   5.528  19.462
 4765TIP3   OH238489   7.076   5.069  19.025
 4765TIP3    H138490   7.098   5.018  19.103
 4765TIP3    H238491   6.988   5.040  19.002
 4766TIP3   OH238492   7.498   5.499  19.028
 4766TIP3    H138493   7.527   5.564  18.965
 4766TIP3    H238494   7.434   5.545  19.082
 4767TIP3   OH238495   7.172   4.943  19.256
 4767TIP3    H138496   7.134   4.863  19.292
 4767TIP3    H238497   7.265   4.924  19.247
 4768TIP3   OH238498   6.517   5.130  18.858
 4768TIP3    H138499   6.472   5.074  18.794
 4768TIP3    H238500   6.454   5.140  18.929
 4769TIP3   OH238501   6.357   5.136  19.082
 4769TIP3    H138502   6.396   5.100  19.161
 4769TIP3    H238503   6.344   5.229  19.102
 4770TIP3   OH238504   6.024   4.857  19.192
 4770TIP3    H138505   5.945   4.894  19.232
 4770TIP3    H238506   6.060   4.928  19.139
 4771TIP3   OH238507   6.868   4.026  19.324
 4771TIP3    H138508   6.881   4.066  19.238
 4771TIP3    H238509   6.901   4.091  19.386
 4772TIP3   OH238510   6.606   5.285  19.200
 4772TIP3    H138511   6.520   5.324  19.185
 4772TIP3    H238512   6.668   5.352  19.169
 4773TIP3   OH238513   6.568   4.271  19.361
 4773TIP3    H138514   6.642   4.332  19.363
 4773TIP3    H238515   6.567   4.232  19.448
 4774TIP3   OH238516   6.627   3.933  19.422
 4774TIP3    H138517   6.606   3.999  19.488
 4774TIP3    H238518   6.714   3.957  19.391
 4775TIP3   OH238519   6.359   5.397  19.166
 4775TIP3    H138520   6.320   5.466  19.111
 4775TIP3    H238521   6.337   5.424  19.255
 4776TIP3   OH238522   6.225   4.085  19.140
 4776TIP3    H138523   6.233   4.166  19.191
 4776TIP3    H238524   6.309   4.041  19.152
 4777TIP3   OH238525   7.083   4.554  19.750
 4777TIP3    H138526   7.004   4.511  19.719
 4777TIP3    H238527   7.134   4.484  19.792
 4778TIP3   OH238528   6.073   5.081  19.018
 4778TIP3    H138529   6.121   5.162  19.036
 4778TIP3    H238530   6.126   5.036  18.952
 4779TIP3   OH238531   5.893   4.393  18.967
 4779TIP3    H138532   5.916   4.482  18.994
 4779TIP3    H238533   5.861   4.403  18.877
 4780TIP3   OH238534   7.274   5.448  19.936
 4780TIP3    H138535   7.225   5.510  19.882
 4780TIP3    H238536   7.344   5.500  19.975
 4781TIP3   OH238537   5.986   3.881  19.769
 4781TIP3    H138538   5.960   3.864  19.678
 4781TIP3    H238539   5.957   3.803  19.817
 4782TIP3   OH238540   5.841   5.230  19.413
 4782TIP3    H138541   5.784   5.267  19.480
 4782TIP3    H238542   5.842   5.295  19.344
 4783TIP3   OH238543   6.674   5.359  18.865
 4783TIP3    H138544   6.614   5.285  18.869
 4783TIP3    H238545   6.752   5.326  18.821
 4784TIP3   OH238546   7.113   5.309  18.894
 4784TIP3    H138547   7.119   5.227  18.942
 4784TIP3    H238548   7.184   5.304  18.830
 4785TIP3   OH238549   6.230   4.913  18.865
 4785TIP3    H138550   6.268   4.883  18.948
 4785TIP3    H238551   6.302   4.909  18.803
 4786TIP3   OH238552   6.779   5.038  18.866
 4786TIP3    H138553   6.687   5.061  18.855
 4786TIP3    H238554   6.785   4.947  18.836
 4787TIP3   OH238555   6.337   4.764  19.087
 4787TIP3    H138556   6.256   4.720  19.113
 4787TIP3    H238557   6.382   4.700  19.032
 4788TIP3   OH238558   6.464   4.581  18.923
 4788TIP3    H138559   6.456   4.595  18.829
 4788TIP3    H238560   6.557   4.564  18.938
 4789TIP3   OH238561   7.386   4.763  18.878
 4789TIP3    H138562   7.357   4.740  18.790
 4789TIP3    H238563   7.368   4.857  18.885
 4790TIP3   OH238564   6.495   5.704  19.168
 4790TIP3    H138565   6.559   5.661  19.111
 4790TIP3    H238566   6.411   5.689  19.125
 4791TIP3   OH238567   5.801   5.075  18.992
 4791TIP3    H138568   5.896   5.088  19.000
 4791TIP3    H238569   5.791   5.014  18.919
 4792TIP3   OH238570   5.687   5.594  19.479
 4792TIP3    H138571   5.621   5.556  19.422
 4792TIP3    H238572   5.712   5.523  19.538
 4793TIP3   OH238573   5.773   5.403  19.653
 4793TIP3    H138574   5.741   5.329  19.705
 4793TIP3    H238575   5.807   5.464  19.718
 4794TIP3   OH238576   7.442   4.867  19.263
 4794TIP3    H138577   7.511   4.932  19.273
 4794TIP3    H238578   7.448   4.812  19.340
 4795TIP3   OH238579   7.464   4.706  19.483
 4795TIP3    H138580   7.381   4.663  19.504
 4795TIP3    H238581   7.505   4.723  19.567
 4796TIP3   OH238582   7.555   4.918  19.921
 4796TIP3    H138583   7.651   4.925  19.928
 4796TIP3    H238584   7.527   5.006  19.895
 4797TIP3   OH238585   7.533   4.659  19.093
 4797TIP3    H138586   7.485   4.677  19.012
 4797TIP3    H238587   7.504   4.728  19.153
 4798TIP3   OH238588   7.323   4.368  18.931
 4798TIP3    H138589   7.323   4.422  18.852
 4798TIP3    H238590   7.301   4.280  18.900
 4799TIP3   OH238591   7.244   4.553  19.528
 4799TIP3    H138592   7.257   4.458  19.518
 4799TIP3    H238593   7.195   4.562  19.610
 4800TIP3   OH238594   5.776   4.794  19.894
 4800TIP3    H138595   5.769   4.752  19.808
 4800TIP3    H238596   5.851   4.751  19.935
 4801TIP3   OH238597   7.251   4.113  18.858
 4801TIP3    H138598   7.263   4.063  18.939
 4801TIP3    H238599   7.161   4.096  18.832
 4802TIP3   OH238600   7.213   4.296  19.347
 4802TIP3    H138601   7.234   4.204  19.360
 4802TIP3    H238602   7.286   4.330  19.296
 4803TIP3   OH238603   7.238   4.345  19.836
 4803TIP3    H138604   7.331   4.366  19.830
 4803TIP3    H238605   7.227   4.312  19.925
 4804TIP3   OH238606   7.243   4.024  19.390
 4804TIP3    H138607   7.258   3.994  19.480
 4804TIP3    H238608   7.184   3.959  19.352
 4805TIP3   OH238609   5.859   4.119  19.834
 4805TIP3    H138610   5.898   4.032  19.822
 4805TIP3    H238611   5.929   4.172  19.872
 4806TIP3   OH238612   5.652   4.390  19.930
 4806TIP3    H138613   5.731   4.378  19.877
 4806TIP3    H238614   5.667   4.472  19.977
 4807TIP3   OH238615   7.476   3.999  19.040
 4807TIP3    H138616   7.515   3.934  18.981
 4807TIP3    H238617   7.518   4.081  19.016
 4808TIP3   OH238618   5.688   4.028  19.315
 4808TIP3    H138619   5.606   4.026  19.364
 4808TIP3    H238620   5.662   4.015  19.224
 4809TIP3   OH238621   7.155   5.524  19.550
 4809TIP3    H138622   7.226   5.513  19.488
 4809TIP3    H238623   7.194   5.571  19.624
 4810TIP3   OH238624   5.905   5.526  19.872
 4810TIP3    H138625   5.908   5.523  19.967
 4810TIP3    H238626   5.979   5.473  19.843
 4811TIP3   OH238627   6.112   5.376  19.780
 4811TIP3    H138628   6.105   5.283  19.801
 4811TIP3    H238629   6.202   5.398  19.800
 4812TIP3   OH238630   6.371   5.407  19.884
 4812TIP3    H138631   6.388   5.314  19.876
 4812TIP3    H238632   6.367   5.423  19.978
 4813TIP3   OH238633   6.718   3.994  19.777
 4813TIP3    H138634   6.648   3.929  19.785
 4813TIP3    H238635   6.787   3.950  19.728
 4814TIP3   OH238636   7.186   3.792  19.796
 4814TIP3    H138637   7.250   3.849  19.753
 4814TIP3    H238638   7.101   3.831  19.772
 4815TIP3   OH238639   7.356   3.928  19.629
 4815TIP3    H138640   7.414   3.863  19.590
 4815TIP3    H238641   7.405   4.010  19.626
 4816TIP3   OH238642   5.935   3.818  19.499
 4816TIP3    H138643   5.843   3.802  19.479
 4816TIP3    H238644   5.976   3.732  19.493
 4817TIP3   OH238645   5.857   3.819  19.152
 4817TIP3    H138646   5.901   3.869  19.083
 4817TIP3    H238647   5.764   3.834  19.135
 4818TIP3   OH238648   6.380   3.819  19.509
 4818TIP3    H138649   6.459   3.847  19.462
 4818TIP3    H238650   6.405   3.822  19.601
 4819TIP3   OH238651   6.914   3.849  19.653
 4819TIP3    H138652   6.964   3.832  19.573
 4819TIP3    H238653   6.882   3.763  19.680
 4820TIP3   OH238654   7.074   3.841  19.278
 4820TIP3    H138655   6.994   3.894  19.283
 4820TIP3    H238656   7.044   3.751  19.291
 4821TIP3   OH238657   5.828   5.425  19.228
 4821TIP3    H138658   5.755   5.421  19.166
 4821TIP3    H238659   5.858   5.516  19.223
 4822TIP3   OH238660   6.004   3.995  18.988
 4822TIP3    H138661   6.046   3.938  18.922
 4822TIP3    H238662   6.077   4.027  19.041
 4823TIP3   OH238663   6.500   4.057  19.203
 4823TIP3    H138664   6.536   3.985  19.254
 4823TIP3    H238665   6.525   4.136  19.251
 4824TIP3   OH238666   6.711   5.526  19.079
 4824TIP3    H138667   6.804   5.543  19.066
 4824TIP3    H238668   6.683   5.482  18.999
 4825TIP3   OH238669   7.339   5.478  19.347
 4825TIP3    H138670   7.327   5.392  19.307
 4825TIP3    H238671   7.329   5.540  19.274
 4826TIP3   OH238672   5.960   5.457  18.903
 4826TIP3    H138673   5.975   5.521  18.972
 4826TIP3    H238674   6.045   5.415  18.890
 4827TIP3   OH238675   7.540   4.439  19.430
 4827TIP3    H138676   7.512   4.530  19.442
 4827TIP3    H238677   7.488   4.409  19.355
 4828TIP3   OH238678   7.548   5.200  19.885
 4828TIP3    H138679   7.644   5.201  19.892
 4828TIP3    H238680   7.518   5.242  19.965
 4829TIP3   OH238681   7.493   4.153  19.576
 4829TIP3    H138682   7.581   4.176  19.607
 4829TIP3    H238683   7.504   4.143  19.481
 4830TIP3   OH238684   7.502   5.611  19.519
 4830TIP3    H138685   7.451   5.565  19.453
 4830TIP3    H238686   7.501   5.553  19.595
 4831TIP3   OH238687   7.527   5.436  19.722
 4831TIP3    H138688   7.492   5.357  19.764
 4831TIP3    H238689   7.622   5.421  19.721
 4832TIP3   OH238690   7.632   4.640  19.902
 4832TIP3    H138691   7.689   4.656  19.827
 4832TIP3    H238692   7.615   4.726  19.939
 4833TIP3   OH238693   7.500   4.399  19.880
 4833TIP3    H138694   7.571   4.338  19.901
 4833TIP3    H238695   7.540   4.485  19.883
 4834TIP3   OH238696   7.506   4.054  19.315
 4834TIP3    H138697   7.415   4.037  19.339
 4834TIP3    H238698   7.509   4.039  19.221
 4835TIP3   OH238699   1.198   6.635  19.525
 4835TIP3    H138700   1.193   6.729  19.545
 4835TIP3    H238701   1.134   6.622  19.455
 4836TIP3   OH238702   1.075   6.560  19.898
 4836TIP3    H138703   1.108   6.492  19.957
 4836TIP3    H238704   1.023   6.512  19.833
 4837TIP3   OH238705   1.427   6.852  19.694
 4837TIP3    H138706   1.401   6.777  19.747
 4837TIP3    H238707   1.451   6.920  19.758
 4838TIP3   OH238708   0.410   6.970  19.844
 4838TIP3    H138709   0.389   6.885  19.805
 4838TIP3    H238710   0.489   6.955  19.895
 4839TIP3   OH238711   0.117   6.287  19.352
 4839TIP3    H138712   0.143   6.377  19.373
 4839TIP3    H238713   0.026   6.280  19.381
 4840TIP3   OH238714   0.150   6.562  19.698
 4840TIP3    H138715   0.173   6.470  19.703
 4840TIP3    H238716   0.223   6.603  19.652
 4841TIP3   OH238717   1.155   7.357  19.763
 4841TIP3    H138718   1.223   7.297  19.731
 4841TIP3    H238719   1.114   7.309  19.835
 4842TIP3   OH238720   0.966   6.828  19.943
 4842TIP3    H138721   1.002   6.748  19.904
 4842TIP3    H238722   1.008   6.833  20.029
 4843TIP3   OH238723   1.179   6.272  19.938
 4843TIP3    H138724   1.222   6.189  19.961
 4843TIP3    H238725   1.203   6.287  19.847
 4844TIP3   OH238726   0.603   6.030  19.690
 4844TIP3    H138727   0.614   6.117  19.651
 4844TIP3    H238728   0.550   5.981  19.627
 4845TIP3   OH238729   1.335   6.103  19.502
 4845TIP3    H138730   1.380   6.055  19.571
 4845TIP3    H238731   1.405   6.143  19.450
 4846TIP3   OH238732   0.236   6.303  19.719
 4846TIP3    H138733   0.298   6.256  19.774
 4846TIP3    H238734   0.241   6.258  19.634
 4847TIP3   OH238735   0.707   6.424  19.712
 4847TIP3    H138736   0.793   6.389  19.736
 4847TIP3    H238737   0.672   6.359  19.651
 4848TIP3   OH238738   1.143   6.904  19.404
 4848TIP3    H138739   1.138   6.907  19.309
 4848TIP3    H238740   1.226   6.946  19.425
 4849TIP3   OH238741   1.482   6.002  19.712
 4849TIP3    H138742   1.419   6.004  19.784
 4849TIP3    H238743   1.556   6.054  19.743
 4850TIP3   OH238744   0.409   6.150  19.865
 4850TIP3    H138745   0.454   6.192  19.938
 4850TIP3    H238746   0.479   6.103  19.818
 4851TIP3   OH238747   0.133   6.877  19.264
 4851TIP3    H138748   0.120   6.927  19.184
 4851TIP3    H238749   0.157   6.943  19.329
 4852TIP3   OH238750   1.499   7.041  19.885
 4852TIP3    H138751   1.556   6.989  19.942
 4852TIP3    H238752   1.537   7.128  19.886
 4853TIP3   OH238753   0.856   5.706  19.809
 4853TIP3    H138754   0.855   5.611  19.817
 4853TIP3    H238755   0.770   5.734  19.840
 4854TIP3   OH238756   1.320   7.220  19.569
 4854TIP3    H138757   1.358   7.135  19.547
 4854TIP3    H238758   1.392   7.282  19.560
 4855TIP3   OH238759   1.402   6.981  19.459
 4855TIP3    H138760   1.455   6.937  19.393
 4855TIP3    H238761   1.419   6.932  19.540
 4856TIP3   OH238762   1.059   6.586  19.290
 4856TIP3    H138763   0.994   6.652  19.264
 4856TIP3    H238764   1.131   6.597  19.228
 4857TIP3   OH238765   1.088   6.450  18.975
 4857TIP3    H138766   1.143   6.481  19.047
 4857TIP3    H238767   1.140   6.382  18.932
 4858TIP3   OH238768   1.430   6.598  19.381
 4858TIP3    H138769   1.362   6.610  19.447
 4858TIP3    H238770   1.498   6.547  19.426
 4859TIP3   OH238771   0.588   6.622  19.550
 4859TIP3    H138772   0.556   6.582  19.469
 4859TIP3    H238773   0.632   6.552  19.596
 4860TIP3   OH238774   0.744   6.976  19.854
 4860TIP3    H138775   0.731   6.959  19.760
 4860TIP3    H238776   0.815   6.918  19.880
 4861TIP3   OH238777   0.560   6.549  19.907
 4861TIP3    H138778   0.611   6.505  19.839
 4861TIP3    H238779   0.615   6.544  19.985
 4862TIP3   OH238780   1.296   6.547  19.148
 4862TIP3    H138781   1.344   6.569  19.228
 4862TIP3    H238782   1.351   6.582  19.077
 4863TIP3   OH238783   1.033   7.261  19.535
 4863TIP3    H138784   1.114   7.209  19.533
 4863TIP3    H238785   1.044   7.319  19.610
 4864TIP3   OH238786   1.664   5.670  19.160
 4864TIP3    H138787   1.580   5.695  19.200
 4864TIP3    H238788   1.703   5.753  19.133
 4865TIP3   OH238789   0.485   6.538  19.303
 4865TIP3    H138790   0.435   6.609  19.263
 4865TIP3    H238791   0.439   6.458  19.277
 4866TIP3   OH238792   1.795   7.089  19.002
 4866TIP3    H138793   1.816   7.182  18.998
 4866TIP3    H238794   1.880   7.045  19.001
 4867TIP3   OH238795   0.142   7.088  19.851
 4867TIP3    H138796   0.207   7.018  19.860
 4867TIP3    H238797   0.177   7.161  19.902
 4868TIP3   OH238798   0.990   7.484  19.312
 4868TIP3    H138799   1.016   7.489  19.220
 4868TIP3    H238800   0.991   7.575  19.343
 4869TIP3   OH238801   0.400   7.300  19.498
 4869TIP3    H138802   0.412   7.281  19.591
 4869TIP3    H238803   0.338   7.234  19.468
 4870TIP3   OH238804   1.348   7.369  19.081
 4870TIP3    H138805   1.407   7.308  19.037
 4870TIP3    H238806   1.321   7.323  19.160
 4871TIP3   OH238807   1.231   7.307  19.317
 4871TIP3    H138808   1.173   7.374  19.354
 4871TIP3    H238809   1.282   7.276  19.392
 4872TIP3   OH238810   0.602   5.796  19.847
 4872TIP3    H138811   0.509   5.774  19.841
 4872TIP3    H238812   0.609   5.883  19.808
 4873TIP3   OH238813   1.463   6.629  18.954
 4873TIP3    H138814   1.439   6.626  18.862
 4873TIP3    H238815   1.558   6.642  18.954
 4874TIP3   OH238816   0.996   5.979  18.982
 4874TIP3    H138817   0.943   5.975  19.061
 4874TIP3    H238818   0.953   5.918  18.922
 4875TIP3   OH238819   0.592   6.255  19.533
 4875TIP3    H138820   0.496   6.247  19.527
 4875TIP3    H238821   0.623   6.241  19.444
 4876TIP3   OH238822   1.123   6.334  19.384
 4876TIP3    H138823   1.097   6.421  19.355
 4876TIP3    H238824   1.194   6.309  19.324
 4877TIP3   OH238825   1.213   6.304  19.663
 4877TIP3    H138826   1.198   6.378  19.604
 4877TIP3    H238827   1.235   6.231  19.605
 4878TIP3   OH238828   0.642   6.029  18.883
 4878TIP3    H138829   0.613   6.023  18.974
 4878TIP3    H238830   0.563   6.055  18.835
 4879TIP3   OH238831   0.092   6.018  19.611
 4879TIP3    H138832   0.112   6.002  19.703
 4879TIP3    H238833   0.124   5.940  19.565
 4880TIP3   OH238834   0.123   6.093  19.155
 4880TIP3    H138835   0.161   6.140  19.080
 4880TIP3    H238836   0.111   6.160  19.222
 4881TIP3   OH238837   0.889   6.009  19.601
 4881TIP3    H138838   0.804   6.013  19.644
 4881TIP3    H238839   0.951   5.987  19.671
 4882TIP3   OH238840   0.333   6.186  19.487
 4882TIP3    H138841   0.254   6.195  19.434
 4882TIP3    H238842   0.352   6.092  19.485
 4883TIP3   OH238843   0.655   6.208  19.270
 4883TIP3    H138844   0.750   6.208  19.280
 4883TIP3    H238845   0.639   6.258  19.190
 4884TIP3   OH238846   1.282   6.007  19.913
 4884TIP3    H138847   1.296   5.939  19.979
 4884TIP3    H238848   1.205   5.977  19.864
 4885TIP3   OH238849   0.588   6.328  19.031
 4885TIP3    H138850   0.523   6.316  18.961
 4885TIP3    H238851   0.665   6.363  18.986
 4886TIP3   OH238852   0.951   6.319  19.786
 4886TIP3    H138853   1.017   6.302  19.719
 4886TIP3    H238854   0.989   6.287  19.867
 4887TIP3   OH238855   0.449   5.933  19.481
 4887TIP3    H138856   0.398   5.854  19.500
 4887TIP3    H238857   0.479   5.921  19.391
 4888TIP3   OH238858   0.864   6.779  19.215
 4888TIP3    H138859   0.794   6.730  19.172
 4888TIP3    H238860   0.832   6.793  19.304
 4889TIP3   OH238861   1.248   6.036  19.077
 4889TIP3    H138862   1.158   6.037  19.043
 4889TIP3    H238863   1.265   6.126  19.105
 4890TIP3   OH238864   1.328   6.273  19.201
 4890TIP3    H138865   1.413   6.253  19.241
 4890TIP3    H238866   1.337   6.364  19.171
 4891TIP3   OH238867   0.414   6.712  19.742
 4891TIP3    H138868   0.470   6.696  19.666
 4891TIP3    H238869   0.450   6.657  19.811
 4892TIP3   OH238870   1.076   6.920  19.125
 4892TIP3    H138871   1.049   7.010  19.147
 4892TIP3    H238872   1.001   6.867  19.150
 4893TIP3   OH238873   1.778   6.290  19.180
 4893TIP3    H138874   1.737   6.267  19.096
 4893TIP3    H238875   1.814   6.377  19.165
 4894TIP3   OH238876   1.628   7.110  19.221
 4894TIP3    H138877   1.587   7.026  19.241
 4894TIP3    H238878   1.681   7.094  19.143
 4895TIP3   OH238879   1.346   6.650  19.857
 4895TIP3    H138880   1.256   6.617  19.863
 4895TIP3    H238881   1.398   6.572  19.837
 4896TIP3   OH238882   0.634   7.038  19.575
 4896TIP3    H138883   0.655   7.129  19.552
 4896TIP3    H238884   0.539   7.032  19.560
 4897TIP3   OH238885   0.219   6.555  18.997
 4897TIP3    H138886   0.274   6.610  19.053
 4897TIP3    H238887   0.132   6.561  19.036
 4898TIP3   OH238888   0.748   6.823  19.452
 4898TIP3    H138889   0.720   6.901  19.499
 4898TIP3    H238890   0.697   6.752  19.492
 4899TIP3   OH238891   0.670   7.297  19.465
 4899TIP3    H138892   0.575   7.301  19.459
 4899TIP3    H238893   0.694   7.378  19.511
 4900TIP3   OH238894   1.428   6.947  19.008
 4900TIP3    H138895   1.444   6.901  19.091
 4900TIP3    H238896   1.341   6.919  18.981
 4901TIP3   OH238897   1.862   7.351  19.016
 4901TIP3    H138898   1.927   7.413  18.984
 4901TIP3    H238899   1.782   7.403  19.023
 4902TIP3   OH238900   1.521   6.829  19.252
 4902TIP3    H138901   1.480   6.752  19.293
 4902TIP3    H238902   1.613   6.804  19.242
 4903TIP3   OH238903   0.829   7.042  18.860
 4903TIP3    H138904   0.832   6.960  18.811
 4903TIP3    H238905   0.778   7.022  18.937
 4904TIP3   OH238906   0.696   7.021  19.103
 4904TIP3    H138907   0.741   6.966  19.166
 4904TIP3    H238908   0.714   7.111  19.132
 4905TIP3   OH238909   0.345   6.734  19.164
 4905TIP3    H138910   0.272   6.775  19.211
 4905TIP3    H238911   0.389   6.807  19.121
 4906TIP3   OH238912   1.220   5.917  19.327
 4906TIP3    H138913   1.231   5.956  19.240
 4906TIP3    H238914   1.251   5.985  19.387
 4907TIP3   OH238915   1.012   7.183  19.189
 4907TIP3    H138916   0.990   7.223  19.105
 4907TIP3    H238917   1.097   7.220  19.212
 4908TIP3   OH238918   0.916   6.156  19.365
 4908TIP3    H138919   0.988   6.218  19.371
 4908TIP3    H238920   0.909   6.117  19.452
 4909TIP3   OH238921   0.982   5.812  19.422
 4909TIP3    H138922   0.955   5.880  19.484
 4909TIP3    H238923   1.068   5.841  19.391
 4910TIP3   OH238924   0.732   7.289  19.178
 4910TIP3    H138925   0.751   7.357  19.113
 4910TIP3    H238926   0.649   7.317  19.217
 4911TIP3   OH238927   0.571   5.969  19.151
 4911TIP3    H138928   0.574   6.053  19.198
 4911TIP3    H238929   0.658   5.931  19.164
 4912TIP3   OH238930   1.463   6.408  19.751
 4912TIP3    H138931   1.382   6.359  19.738
 4912TIP3    H238932   1.518   6.349  19.803
 4913TIP3   OH238933   0.434   6.965  19.020
 4913TIP3    H138934   0.515   7.003  19.055
 4913TIP3    H238935   0.463   6.911  18.946
 4914TIP3   OH238936   0.221   6.271  18.966
 4914TIP3    H138937   0.236   6.360  18.998
 4914TIP3    H238938   0.185   6.283  18.878
 4915TIP3   OH238939   1.622   7.296  19.903
 4915TIP3    H138940   1.609   7.361  19.834
 4915TIP3    H238941   1.659   7.345  19.976
 4916TIP3   OH238942   0.334   5.756  19.803
 4916TIP3    H138943   0.325   5.748  19.708
 4916TIP3    H238944   0.291   5.678  19.838
 4917TIP3   OH238945   0.211   7.104  19.417
 4917TIP3    H138946   0.160   7.137  19.491
 4917TIP3    H238947   0.187   7.162  19.344
 4918TIP3   OH238948   1.029   7.232  18.881
 4918TIP3    H138949   0.964   7.163  18.872
 4918TIP3    H238950   1.108   7.198  18.838
 4919TIP3   OH238951   1.470   7.200  18.905
 4919TIP3    H138952   1.479   7.114  18.946
 4919TIP3    H238953   1.543   7.204  18.843
 4920TIP3   OH238954   0.570   6.776  18.870
 4920TIP3    H138955   0.594   6.728  18.949
 4920TIP3    H238956   0.652   6.783  18.820
 4921TIP3   OH238957   1.170   6.908  18.868
 4921TIP3    H138958   1.124   6.907  18.952
 4921TIP3    H238959   1.156   6.820  18.832
 4922TIP3   OH238960   0.669   6.629  19.091
 4922TIP3    H138961   0.619   6.577  19.155
 4922TIP3    H238962   0.717   6.564  19.040
 4923TIP3   OH238963   0.810   6.456  18.927
 4923TIP3    H138964   0.808   6.479  18.834
 4923TIP3    H238965   0.903   6.449  18.948
 4924TIP3   OH238966   1.731   6.659  18.876
 4924TIP3    H138967   1.717   6.630  18.786
 4924TIP3    H238968   1.717   6.754  18.873
 4925TIP3   OH238969   0.778   7.510  19.024
 4925TIP3    H138970   0.854   7.567  19.022
 4925TIP3    H238971   0.725   7.538  18.950
 4926TIP3   OH238972   0.157   6.994  19.011
 4926TIP3    H138973   0.250   7.009  19.026
 4926TIP3    H238974   0.154   6.926  18.944
 4927TIP3   OH238975   0.039   7.516  19.407
 4927TIP3    H138976  -0.044   7.546  19.444
 4927TIP3    H238977   0.028   7.421  19.398
 4928TIP3   OH238978   0.122   7.256  19.638
 4928TIP3    H138979   0.126   7.189  19.706
 4928TIP3    H238980   0.178   7.327  19.670
 4929TIP3   OH238981   1.782   6.744  19.257
 4929TIP3    H138982   1.860   6.799  19.257
 4929TIP3    H238983   1.793   6.686  19.333
 4930TIP3   OH238984   1.832   6.567  19.458
 4930TIP3    H138985   1.753   6.524  19.492
 4930TIP3    H238986   1.889   6.576  19.534
 4931TIP3   OH238987   1.795   6.877  19.948
 4931TIP3    H138988   1.850   6.800  19.930
 4931TIP3    H238989   1.849   6.951  19.921
 4932TIP3   OH238990   1.862   6.542  19.086
 4932TIP3    H138991   1.819   6.569  19.005
 4932TIP3    H238992   1.836   6.607  19.151
 4933TIP3   OH238993   1.675   6.248  18.926
 4933TIP3    H138994   1.666   6.307  18.852
 4933TIP3    H238995   1.653   6.162  18.891
 4934TIP3   OH238996   1.603   6.424  19.515
 4934TIP3    H138997   1.589   6.335  19.482
 4934TIP3    H238998   1.563   6.423  19.602
 4935TIP3   OH238999   0.157   6.755  19.901
 4935TIP3    H139000   0.171   6.699  19.824
 4935TIP3    H239001   0.204   6.709  19.971
 4936TIP3   OH239002   1.612   5.992  18.837
 4936TIP3    H139003   1.645   5.955  18.919
 4936TIP3    H239004   1.519   5.968  18.836
 4937TIP3   OH239005   1.564   6.193  19.344
 4937TIP3    H139006   1.587   6.101  19.354
 4937TIP3    H239007   1.635   6.230  19.291
 4938TIP3   OH239008   1.621   6.209  19.866
 4938TIP3    H139009   1.712   6.240  19.865
 4938TIP3    H239010   1.606   6.182  19.956
 4939TIP3   OH239011   1.626   5.927  19.374
 4939TIP3    H139012   1.661   5.889  19.454
 4939TIP3    H239013   1.562   5.864  19.343
 4940TIP3   OH239014   0.169   5.971  19.867
 4940TIP3    H139015   0.238   5.905  19.864
 4940TIP3    H239016   0.210   6.047  19.908
 4941TIP3   OH239017   0.106   6.271  19.963
 4941TIP3    H139018   0.139   6.275  19.873
 4941TIP3    H239019   0.064   6.356  19.977
 4942TIP3   OH239020   1.776   5.894  19.035
 4942TIP3    H139021   1.824   5.831  18.981
 4942TIP3    H239022   1.843   5.954  19.068
 4943TIP3   OH239023   0.112   5.879  19.326
 4943TIP3    H139024   0.018   5.885  19.345
 4943TIP3    H239025   0.128   5.951  19.265
 4944TIP3   OH239026   1.519   7.391  19.482
 4944TIP3    H139027   1.598   7.372  19.431
 4944TIP3    H239028   1.552   7.436  19.560
 4945TIP3   OH239029   0.261   7.325  19.928
 4945TIP3    H139030   0.295   7.349  20.014
 4945TIP3    H239031   0.339   7.302  19.877
 4946TIP3   OH239032   0.453   7.228  19.758
 4946TIP3    H139033   0.439   7.136  19.782
 4946TIP3    H239034   0.541   7.248  19.790
 4947TIP3   OH239035   0.703   7.245  19.872
 4947TIP3    H139036   0.722   7.152  19.866
 4947TIP3    H239037   0.755   7.275  19.947
 4948TIP3   OH239038   1.067   5.888  19.777
 4948TIP3    H139039   1.001   5.822  19.797
 4948TIP3    H239040   1.138   5.840  19.735
 4949TIP3   OH239041   1.575   5.692  19.757
 4949TIP3    H139042   1.644   5.736  19.709
 4949TIP3    H239043   1.502   5.753  19.756
 4950TIP3   OH239044   1.757   5.798  19.579
 4950TIP3    H139045   1.817   5.735  19.541
 4950TIP3    H239046   1.811   5.874  19.600
 4951TIP3   OH239047   0.318   5.702  19.534
 4951TIP3    H139048   0.232   5.681  19.497
 4951TIP3    H239049   0.370   5.622  19.520
 4952TIP3   OH239050   0.224   5.686  19.162
 4952TIP3    H139051   0.253   5.747  19.095
 4952TIP3    H239052   0.183   5.741  19.229
 4953TIP3   OH239053   0.756   5.665  19.538
 4953TIP3    H139054   0.829   5.710  19.495
 4953TIP3    H239055   0.763   5.690  19.630
 4954TIP3   OH239056   1.279   5.745  19.677
 4954TIP3    H139057   1.332   5.726  19.600
 4954TIP3    H239058   1.245   5.660  19.704
 4955TIP3   OH239059   1.434   5.740  19.296
 4955TIP3    H139060   1.356   5.795  19.303
 4955TIP3    H239061   1.401   5.651  19.307
 4956TIP3   OH239062   0.134   7.288  19.233
 4956TIP3    H139063   0.056   7.284  19.178
 4956TIP3    H239064   0.180   7.366  19.203
 4957TIP3   OH239065   0.358   5.865  18.993
 4957TIP3    H139066   0.410   5.807  18.938
 4957TIP3    H239067   0.419   5.899  19.058
 4958TIP3   OH239068   0.845   5.941  19.210
 4958TIP3    H139069   0.879   5.870  19.265
 4958TIP3    H239070   0.867   6.021  19.258
 4959TIP3   OH239071   1.078   7.446  19.055
 4959TIP3    H139072   1.174   7.445  19.055
 4959TIP3    H239073   1.053   7.392  18.981
 4960TIP3   OH239074   1.728   7.349  19.311
 4960TIP3    H139075   1.700   7.260  19.287
 4960TIP3    H239076   1.710   7.401  19.233
 4961TIP3   OH239077   0.322   7.372  18.907
 4961TIP3    H139078   0.281   7.414  18.983
 4961TIP3    H239079   0.386   7.311  18.944
 4962TIP3   OH239080   3.092   6.637  19.531
 4962TIP3    H139081   3.101   6.728  19.558
 4962TIP3    H239082   3.024   6.639  19.464
 4963TIP3   OH239083   2.964   6.551  19.898
 4963TIP3    H139084   2.999   6.483  19.955
 4963TIP3    H239085   2.909   6.504  19.835
 4964TIP3   OH239086   3.281   6.855  19.700
 4964TIP3    H139087   3.267   6.776  19.752
 4964TIP3    H239088   3.307   6.922  19.764
 4965TIP3   OH239089   2.308   6.967  19.836
 4965TIP3    H139090   2.285   6.876  19.818
 4965TIP3    H239091   2.402   6.965  19.856
 4966TIP3   OH239092   1.950   6.283  19.447
 4966TIP3    H139093   1.952   6.374  19.477
 4966TIP3    H239094   1.882   6.281  19.379
 4967TIP3   OH239095   2.038   6.544  19.648
 4967TIP3    H139096   2.063   6.459  19.682
 4967TIP3    H239097   2.118   6.596  19.653
 4968TIP3   OH239098   3.047   7.357  19.767
 4968TIP3    H139099   3.099   7.290  19.724
 4968TIP3    H239100   2.988   7.307  19.825
 4969TIP3   OH239101   2.835   6.845  19.934
 4969TIP3    H139102   2.880   6.776  19.885
 4969TIP3    H239103   2.865   6.832  20.024
 4970TIP3   OH239104   3.073   6.267  19.940
 4970TIP3    H139105   3.114   6.183  19.960
 4970TIP3    H239106   3.092   6.281  19.847
 4971TIP3   OH239107   2.477   6.030  19.684
 4971TIP3    H139108   2.485   6.109  19.631
 4971TIP3    H239109   2.424   5.971  19.631
 4972TIP3   OH239110   3.221   6.097  19.505
 4972TIP3    H139111   3.265   6.051  19.577
 4972TIP3    H239112   3.292   6.137  19.455
 4973TIP3   OH239113   2.109   6.297  19.743
 4973TIP3    H139114   2.171   6.257  19.804
 4973TIP3    H239115   2.131   6.259  19.658
 4974TIP3   OH239116   2.598   6.422  19.710
 4974TIP3    H139117   2.683   6.387  19.736
 4974TIP3    H239118   2.564   6.358  19.646
 4975TIP3   OH239119   3.015   6.894  19.403
 4975TIP3    H139120   3.018   6.910  19.309
 4975TIP3    H239121   2.987   6.978  19.441
 4976TIP3   OH239122   3.363   6.005  19.722
 4976TIP3    H139123   3.300   5.999  19.794
 4976TIP3    H239124   3.432   6.061  19.757
 4977TIP3   OH239125   2.313   6.163  19.871
 4977TIP3    H139126   2.366   6.238  19.898
 4977TIP3    H239127   2.372   6.112  19.815
 4978TIP3   OH239128   2.020   6.887  19.261
 4978TIP3    H139129   2.017   6.933  19.176
 4978TIP3    H239130   2.037   6.956  19.325
 4979TIP3   OH239131   3.368   7.035  19.897
 4979TIP3    H139132   3.427   6.979  19.946
 4979TIP3    H239133   3.410   7.121  19.898
 4980TIP3   OH239134   2.713   5.701  19.798
 4980TIP3    H139135   2.707   5.608  19.821
 4980TIP3    H239136   2.634   5.739  19.835
 4981TIP3   OH239137   3.207   7.223  19.577
 4981TIP3    H139138   3.241   7.137  19.554
 4981TIP3    H239139   3.282   7.282  19.567
 4982TIP3   OH239140   3.319   6.998  19.472
 4982TIP3    H139141   3.325   6.938  19.398
 4982TIP3    H239142   3.310   6.940  19.548
 4983TIP3   OH239143   2.946   6.582  19.292
 4983TIP3    H139144   2.883   6.651  19.270
 4983TIP3    H239145   3.018   6.596  19.230
 4984TIP3   OH239146   2.977   6.454  18.963
 4984TIP3    H139147   3.030   6.484  19.037
 4984TIP3    H239148   3.028   6.381  18.926
 4985TIP3   OH239149   3.314   6.594  19.376
 4985TIP3    H139150   3.245   6.608  19.442
 4985TIP3    H239151   3.381   6.543  19.422
 4986TIP3   OH239152   2.454   6.626  19.575
 4986TIP3    H139153   2.426   6.589  19.491
 4986TIP3    H239154   2.511   6.559  19.612
 4987TIP3   OH239155   2.596   6.973  19.835
 4987TIP3    H139156   2.601   6.983  19.740
 4987TIP3    H239157   2.674   6.923  19.859
 4988TIP3   OH239158   2.418   6.490  19.904
 4988TIP3    H139159   2.480   6.470  19.834
 4988TIP3    H239160   2.473   6.511  19.979
 4989TIP3   OH239161   3.181   6.544  19.142
 4989TIP3    H139162   3.228   6.568  19.223
 4989TIP3    H239163   3.236   6.578  19.072
 4990TIP3   OH239164   2.944   7.153  19.492
 4990TIP3    H139165   3.024   7.182  19.535
 4990TIP3    H239166   2.901   7.234  19.464
 4991TIP3   OH239167   3.564   5.666  19.157
 4991TIP3    H139168   3.478   5.691  19.189
 4991TIP3    H239169   3.604   5.749  19.128
 4992TIP3   OH239170   2.360   6.539  19.328
 4992TIP3    H139171   2.320   6.614  19.284
 4992TIP3    H239172   2.307   6.464  19.300
 4993TIP3   OH239173   3.681   7.086  18.999
 4993TIP3    H139174   3.699   7.180  19.001
 4993TIP3    H239175   3.768   7.045  19.000
 4994TIP3   OH239176   1.993   7.059  19.863
 4994TIP3    H139177   2.078   7.019  19.845
 4994TIP3    H239178   2.014   7.148  19.891
 4995TIP3   OH239179   2.927   7.480  19.342
 4995TIP3    H139180   2.917   7.481  19.247
 4995TIP3    H239181   2.890   7.564  19.371
 4996TIP3   OH239182   2.283   7.279  19.485
 4996TIP3    H139183   2.297   7.266  19.578
 4996TIP3    H239184   2.219   7.213  19.460
 4997TIP3   OH239185   3.226   7.372  19.077
 4997TIP3    H139186   3.284   7.309  19.035
 4997TIP3    H239187   3.205   7.332  19.162
 4998TIP3   OH239188   3.146   7.320  19.324
 4998TIP3    H139189   3.071   7.374  19.348
 4998TIP3    H239190   3.169   7.275  19.405
 4999TIP3   OH239191   2.473   5.791  19.896
 4999TIP3    H139192   2.390   5.777  19.851
 4999TIP3    H239193   2.465   5.879  19.934
 5000TIP3   OH239194   3.347   6.619  18.944
 5000TIP3    H139195   3.326   6.622  18.851
 5000TIP3    H239196   3.441   6.641  18.947
 5001TIP3   OH239197   2.884   5.989  18.989
 5001TIP3    H139198   2.826   5.981  19.065
 5001TIP3    H239199   2.853   5.922  18.928
 5002TIP3   OH239200   2.468   6.258  19.534
 5002TIP3    H139201   2.372   6.251  19.530
 5002TIP3    H239202   2.496   6.246  19.443
 5003TIP3   OH239203   3.009   6.329  19.384
 5003TIP3    H139204   2.984   6.418  19.358
 5003TIP3    H239205   3.080   6.306  19.324
 5004TIP3   OH239206   3.092   6.295  19.663
 5004TIP3    H139207   3.076   6.366  19.602
 5004TIP3    H239208   3.117   6.221  19.608
 5005TIP3   OH239209   2.545   6.037  18.890
 5005TIP3    H139210   2.514   6.021  18.979
 5005TIP3    H239211   2.496   6.113  18.861
 5006TIP3   OH239212   1.907   6.021  19.623
 5006TIP3    H139213   1.959   6.018  19.703
 5006TIP3    H239214   1.928   6.105  19.584
 5007TIP3   OH239215   1.964   6.088  19.124
 5007TIP3    H139216   2.032   6.132  19.072
 5007TIP3    H239217   1.906   6.159  19.151
 5008TIP3   OH239218   2.773   6.009  19.608
 5008TIP3    H139219   2.686   6.007  19.649
 5008TIP3    H239220   2.833   5.982  19.678
 5009TIP3   OH239221   2.204   6.188  19.508
 5009TIP3    H139222   2.121   6.203  19.463
 5009TIP3    H239223   2.225   6.096  19.489
 5010TIP3   OH239224   2.533   6.208  19.272
 5010TIP3    H139225   2.627   6.207  19.288
 5010TIP3    H239226   2.522   6.256  19.190
 5011TIP3   OH239227   3.160   5.998  19.921
 5011TIP3    H139228   3.168   5.936  19.993
 5011TIP3    H239229   3.086   5.965  19.870
 5012TIP3   OH239230   2.482   6.320  19.023
 5012TIP3    H139231   2.431   6.303  18.944
 5012TIP3    H239232   2.561   6.366  18.992
 5013TIP3   OH239233   2.836   6.310  19.794
 5013TIP3    H139234   2.904   6.292  19.729
 5013TIP3    H239235   2.871   6.277  19.876
 5014TIP3   OH239236   2.305   5.931  19.468
 5014TIP3    H139237   2.250   5.854  19.486
 5014TIP3    H239238   2.354   5.907  19.389
 5015TIP3   OH239239   2.753   6.776  19.219
 5015TIP3    H139240   2.681   6.733  19.173
 5015TIP3    H239241   2.719   6.790  19.308
 5016TIP3   OH239242   3.143   6.037  19.070
 5016TIP3    H139243   3.051   6.040  19.044
 5016TIP3    H239244   3.162   6.125  19.104
 5017TIP3   OH239245   3.216   6.271  19.200
 5017TIP3    H139246   3.300   6.253  19.242
 5017TIP3    H239247   3.222   6.363  19.172
 5018TIP3   OH239248   2.273   6.690  19.773
 5018TIP3    H139249   2.331   6.689  19.697
 5018TIP3    H239250   2.309   6.624  19.832
 5019TIP3   OH239251   2.964   6.916  19.120
 5019TIP3    H139252   2.934   7.006  19.133
 5019TIP3    H239253   2.891   6.862  19.151
 5020TIP3   OH239254   3.660   6.287  19.172
 5020TIP3    H139255   3.620   6.268  19.087
 5020TIP3    H239256   3.698   6.374  19.162
 5021TIP3   OH239257   3.529   7.110  19.232
 5021TIP3    H139258   3.478   7.034  19.260
 5021TIP3    H239259   3.571   7.082  19.150
 5022TIP3   OH239260   3.231   6.640  19.858
 5022TIP3    H139261   3.141   6.609  19.864
 5022TIP3    H239262   3.282   6.563  19.833
 5023TIP3   OH239263   2.539   7.049  19.563
 5023TIP3    H139264   2.576   7.129  19.526
 5023TIP3    H239265   2.447   7.049  19.535
 5024TIP3   OH239266   2.135   6.547  19.021
 5024TIP3    H139267   2.180   6.617  19.070
 5024TIP3    H239268   2.045   6.550  19.052
 5025TIP3   OH239269   2.624   6.811  19.454
 5025TIP3    H139270   2.610   6.896  19.494
 5025TIP3    H239271   2.567   6.751  19.502
 5026TIP3   OH239272   2.551   7.298  19.428
 5026TIP3    H139273   2.456   7.303  19.434
 5026TIP3    H239274   2.583   7.371  19.481
 5027TIP3   OH239275   3.313   6.948  19.012
 5027TIP3    H139276   3.331   6.905  19.096
 5027TIP3    H239277   3.222   6.926  18.994
 5028TIP3   OH239278   3.743   7.350  19.025
 5028TIP3    H139279   3.810   7.410  18.993
 5028TIP3    H239280   3.664   7.404  19.033
 5029TIP3   OH239281   3.403   6.826  19.250
 5029TIP3    H139282   3.363   6.750  19.293
 5029TIP3    H239283   3.496   6.803  19.243
 5030TIP3   OH239284   2.711   7.048  18.857
 5030TIP3    H139285   2.712   6.964  18.809
 5030TIP3    H239286   2.661   7.029  18.937
 5031TIP3   OH239287   2.575   7.007  19.096
 5031TIP3    H139288   2.632   6.961  19.157
 5031TIP3    H239289   2.581   7.099  19.123
 5032TIP3   OH239290   2.243   6.744  19.183
 5032TIP3    H139291   2.168   6.787  19.224
 5032TIP3    H239292   2.288   6.813  19.136
 5033TIP3   OH239293   3.106   5.919  19.321
 5033TIP3    H139294   3.121   5.960  19.236
 5033TIP3    H239295   3.139   5.983  19.385
 5034TIP3   OH239296   2.859   7.161  19.165
 5034TIP3    H139297   2.771   7.198  19.161
 5034TIP3    H239298   2.916   7.237  19.178
 5035TIP3   OH239299   2.793   6.159  19.372
 5035TIP3    H139300   2.868   6.218  19.376
 5035TIP3    H239301   2.789   6.119  19.460
 5036TIP3   OH239302   2.866   5.821  19.420
 5036TIP3    H139303   2.842   5.886  19.486
 5036TIP3    H239304   2.952   5.849  19.389
 5037TIP3   OH239305   2.608   7.270  19.159
 5037TIP3    H139306   2.610   7.355  19.115
 5037TIP3    H239307   2.587   7.292  19.250
 5038TIP3   OH239308   2.451   5.969  19.148
 5038TIP3    H139309   2.455   6.051  19.197
 5038TIP3    H239310   2.537   5.928  19.163
 5039TIP3   OH239311   3.345   6.400  19.748
 5039TIP3    H139312   3.263   6.351  19.735
 5039TIP3    H239313   3.399   6.341  19.800
 5040TIP3   OH239314   2.305   6.964  19.008
 5040TIP3    H139315   2.373   7.021  19.044
 5040TIP3    H239316   2.352   6.906  18.947
 5041TIP3   OH239317   2.113   6.264  18.970
 5041TIP3    H139318   2.161   6.334  19.014
 5041TIP3    H239319   2.071   6.307  18.895
 5042TIP3   OH239320   3.506   7.296  19.912
 5042TIP3    H139321   3.489   7.364  19.846
 5042TIP3    H239322   3.554   7.341  19.981
 5043TIP3   OH239323   2.222   5.770  19.777
 5043TIP3    H139324   2.207   5.754  19.683
 5043TIP3    H239325   2.190   5.690  19.819
 5044TIP3   OH239326   2.068   7.108  19.430
 5044TIP3    H139327   2.019   7.154  19.498
 5044TIP3    H239328   2.054   7.160  19.351
 5045TIP3   OH239329   2.908   7.247  18.863
 5045TIP3    H139330   2.845   7.175  18.874
 5045TIP3    H239331   2.988   7.204  18.832
 5046TIP3   OH239332   3.356   7.200  18.911
 5046TIP3    H139333   3.361   7.114  18.952
 5046TIP3    H239334   3.428   7.200  18.848
 5047TIP3   OH239335   2.450   6.777  18.872
 5047TIP3    H139336   2.480   6.735  18.952
 5047TIP3    H239337   2.529   6.785  18.818
 5048TIP3   OH239338   3.055   6.911  18.864
 5048TIP3    H139339   3.010   6.909  18.948
 5048TIP3    H239340   3.038   6.824  18.826
 5049TIP3   OH239341   2.553   6.635  19.090
 5049TIP3    H139342   2.505   6.582  19.153
 5049TIP3    H239343   2.604   6.572  19.039
 5050TIP3   OH239344   2.697   6.462  18.928
 5050TIP3    H139345   2.690   6.483  18.835
 5050TIP3    H239346   2.791   6.458  18.945
 5051TIP3   OH239347   3.622   6.666  18.873
 5051TIP3    H139348   3.603   6.636  18.784
 5051TIP3    H239349   3.601   6.759  18.872
 5052TIP3   OH239350   2.665   7.514  19.035
 5052TIP3    H139351   2.761   7.512  19.039
 5052TIP3    H239352   2.645   7.597  18.992
 5053TIP3   OH239353   2.034   6.955  18.987
 5053TIP3    H139354   2.128   6.967  18.996
 5053TIP3    H239355   2.024   6.887  18.921
 5054TIP3   OH239356   1.904   7.478  19.476
 5054TIP3    H139357   1.840   7.446  19.412
 5054TIP3    H239358   1.906   7.410  19.543
 5055TIP3   OH239359   1.962   7.263  19.647
 5055TIP3    H139360   1.909   7.194  19.687
 5055TIP3    H239361   2.014   7.297  19.719
 5056TIP3   OH239362   3.669   6.742  19.256
 5056TIP3    H139363   3.746   6.799  19.260
 5056TIP3    H239364   3.676   6.686  19.333
 5057TIP3   OH239365   3.712   6.568  19.461
 5057TIP3    H139366   3.633   6.524  19.494
 5057TIP3    H239367   3.770   6.575  19.537
 5058TIP3   OH239368   3.687   6.876  19.939
 5058TIP3    H139369   3.746   6.803  19.924
 5058TIP3    H239370   3.738   6.953  19.913
 5059TIP3   OH239371   3.750   6.541  19.081
 5059TIP3    H139372   3.702   6.571  19.004
 5059TIP3    H239373   3.726   6.605  19.149
 5060TIP3   OH239374   3.561   6.256  18.916
 5060TIP3    H139375   3.535   6.307  18.839
 5060TIP3    H239376   3.540   6.165  18.893
 5061TIP3   OH239377   3.484   6.421  19.512
 5061TIP3    H139378   3.473   6.332  19.479
 5061TIP3    H239379   3.445   6.419  19.599
 5062TIP3   OH239380   1.950   6.644  19.891
 5062TIP3    H139381   1.961   6.615  19.800
 5062TIP3    H239382   2.040   6.655  19.923
 5063TIP3   OH239383   3.492   6.001  18.841
 5063TIP3    H139384   3.529   5.954  18.916
 5063TIP3    H239385   3.402   5.970  18.835
 5064TIP3   OH239386   3.449   6.188  19.342
 5064TIP3    H139387   3.471   6.096  19.352
 5064TIP3    H239388   3.520   6.223  19.288
 5065TIP3   OH239389   3.506   6.204  19.866
 5065TIP3    H139390   3.596   6.236  19.859
 5065TIP3    H239391   3.495   6.184  19.959
 5066TIP3   OH239392   3.509   5.921  19.369
 5066TIP3    H139393   3.542   5.885  19.451
 5066TIP3    H239394   3.447   5.856  19.337
 5067TIP3   OH239395   2.081   5.999  19.837
 5067TIP3    H139396   2.123   5.914  19.822
 5067TIP3    H239397   2.150   6.054  19.874
 5068TIP3   OH239398   1.879   6.290  19.909
 5068TIP3    H139399   1.955   6.275  19.852
 5068TIP3    H239400   1.906   6.361  19.966
 5069TIP3   OH239401   3.669   5.890  19.025
 5069TIP3    H139402   3.715   5.832  18.963
 5069TIP3    H239403   3.737   5.948  19.058
 5070TIP3   OH239404   1.929   5.876  19.295
 5070TIP3    H139405   1.844   5.897  19.333
 5070TIP3    H239406   1.956   5.956  19.250
 5071TIP3   OH239407   3.403   7.405  19.494
 5071TIP3    H139408   3.475   7.376  19.438
 5071TIP3    H239409   3.446   7.440  19.572
 5072TIP3   OH239410   2.115   7.313  19.887
 5072TIP3    H139411   2.145   7.332  19.976
 5072TIP3    H239412   2.195   7.288  19.840
 5073TIP3   OH239413   2.332   7.228  19.749
 5073TIP3    H139414   2.325   7.135  19.773
 5073TIP3    H239415   2.417   7.255  19.783
 5074TIP3   OH239416   2.573   7.247  19.878
 5074TIP3    H139417   2.592   7.153  19.871
 5074TIP3    H239418   2.643   7.282  19.933
 5075TIP3   OH239419   2.945   5.875  19.782
 5075TIP3    H139420   2.878   5.808  19.795
 5075TIP3    H239421   3.017   5.828  19.740
 5076TIP3   OH239422   3.460   5.693  19.759
 5076TIP3    H139423   3.528   5.739  19.710
 5076TIP3    H239424   3.385   5.752  19.759
 5077TIP3   OH239425   3.639   5.803  19.579
 5077TIP3    H139426   3.700   5.738  19.545
 5077TIP3    H239427   3.694   5.877  19.603
 5078TIP3   OH239428   2.170   5.696  19.513
 5078TIP3    H139429   2.079   5.682  19.487
 5078TIP3    H239430   2.210   5.609  19.505
 5079TIP3   OH239431   2.040   5.696  19.120
 5079TIP3    H139432   2.099   5.757  19.077
 5079TIP3    H239433   2.000   5.746  19.191
 5080TIP3   OH239434   2.646   5.674  19.526
 5080TIP3    H139435   2.717   5.720  19.480
 5080TIP3    H239436   2.665   5.687  19.619
 5081TIP3   OH239437   3.165   5.744  19.681
 5081TIP3    H139438   3.215   5.727  19.601
 5081TIP3    H239439   3.134   5.658  19.708
 5082TIP3   OH239440   3.324   5.732  19.279
 5082TIP3    H139441   3.244   5.784  19.280
 5082TIP3    H239442   3.295   5.643  19.299
 5083TIP3   OH239443   2.040   7.254  19.208
 5083TIP3    H139444   1.963   7.268  19.152
 5083TIP3    H239445   2.097   7.327  19.187
 5084TIP3   OH239446   2.225   5.874  18.998
 5084TIP3    H139447   2.274   5.821  18.934
 5084TIP3    H239448   2.293   5.907  19.057
 5085TIP3   OH239449   2.725   5.947  19.211
 5085TIP3    H139450   2.759   5.875  19.264
 5085TIP3    H239451   2.746   6.025  19.261
 5086TIP3   OH239452   2.945   7.432  19.066
 5086TIP3    H139453   3.041   7.434  19.065
 5086TIP3    H239454   2.922   7.374  18.993
 5087TIP3   OH239455   3.609   7.353  19.320
 5087TIP3    H139456   3.587   7.263  19.296
 5087TIP3    H239457   3.593   7.404  19.241
 5088TIP3   OH239458   2.220   7.386  18.897
 5088TIP3    H139459   2.197   7.429  18.980
 5088TIP3    H239460   2.302   7.341  18.916
 5089TIP3   OH239461   4.992   6.644  19.526
 5089TIP3    H139462   5.004   6.731  19.562
 5089TIP3    H239463   4.904   6.645  19.488
 5090TIP3   OH239464   4.855   6.529  19.866
 5090TIP3    H139465   4.859   6.492  19.954
 5090TIP3    H239466   4.769   6.570  19.861
 5091TIP3   OH239467   5.174   6.853  19.703
 5091TIP3    H139468   5.155   6.774  19.754
 5091TIP3    H239469   5.201   6.918  19.769
 5092TIP3   OH239470   4.200   6.982  19.849
 5092TIP3    H139471   4.178   6.890  19.835
 5092TIP3    H239472   4.294   6.982  19.865
 5093TIP3   OH239473   3.845   6.301  19.408
 5093TIP3    H139474   3.842   6.389  19.446
 5093TIP3    H239475   3.761   6.292  19.363
 5094TIP3   OH239476   3.923   6.540  19.642
 5094TIP3    H139477   3.945   6.454  19.678
 5094TIP3    H239478   4.008   6.584  19.632
 5095TIP3   OH239479   4.939   7.358  19.771
 5095TIP3    H139480   4.991   7.293  19.724
 5095TIP3    H239481   4.879   7.307  19.825
 5096TIP3   OH239482   4.733   6.900  19.958
 5096TIP3    H139483   4.678   6.822  19.951
 5096TIP3    H239484   4.822   6.866  19.969
 5097TIP3   OH239485   5.006   6.262  19.954
 5097TIP3    H139486   5.026   6.168  19.947
 5097TIP3    H239487   4.988   6.290  19.864
 5098TIP3   OH239488   4.345   6.035  19.686
 5098TIP3    H139489   4.350   6.114  19.631
 5098TIP3    H239490   4.293   5.974  19.635
 5099TIP3   OH239491   5.103   6.086  19.497
 5099TIP3    H139492   5.148   6.049  19.573
 5099TIP3    H239493   5.169   6.138  19.452
 5100TIP3   OH239494   3.994   6.296  19.742
 5100TIP3    H139495   4.062   6.268  19.804
 5100TIP3    H239496   4.010   6.243  19.664
 5101TIP3   OH239497   4.450   6.407  19.666
 5101TIP3    H139498   4.537   6.378  19.693
 5101TIP3    H239499   4.422   6.340  19.603
 5102TIP3   OH239500   4.921   6.914  19.401
 5102TIP3    H139501   4.907   6.914  19.306
 5102TIP3    H239502   4.882   6.996  19.431
 5103TIP3   OH239503   5.256   6.010  19.712
 5103TIP3    H139504   5.189   5.998  19.779
 5103TIP3    H239505   5.321   6.067  19.753
 5104TIP3   OH239506   4.197   6.181  19.885
 5104TIP3    H139507   4.245   6.259  19.915
 5104TIP3    H239508   4.260   6.135  19.830
 5105TIP3   OH239509   3.906   6.887  19.264
 5105TIP3    H139510   3.904   6.937  19.182
 5105TIP3    H239511   3.926   6.952  19.331
 5106TIP3   OH239512   5.268   7.039  19.892
 5106TIP3    H139513   5.327   6.985  19.945
 5106TIP3    H239514   5.309   7.126  19.891
 5107TIP3   OH239515   4.592   5.686  19.797
 5107TIP3    H139516   4.571   5.595  19.816
 5107TIP3    H239517   4.519   5.736  19.833
 5108TIP3   OH239518   5.093   7.226  19.578
 5108TIP3    H139519   5.127   7.138  19.559
 5108TIP3    H239520   5.168   7.284  19.563
 5109TIP3   OH239521   5.210   7.000  19.478
 5109TIP3    H139522   5.180   6.945  19.406
 5109TIP3    H239523   5.204   6.944  19.555
 5110TIP3   OH239524   4.823   6.572  19.283
 5110TIP3    H139525   4.763   6.644  19.267
 5110TIP3    H239526   4.902   6.595  19.234
 5111TIP3   OH239527   4.864   6.447  18.963
 5111TIP3    H139528   4.907   6.476  19.044
 5111TIP3    H239529   4.921   6.377  18.930
 5112TIP3   OH239530   5.209   6.590  19.373
 5112TIP3    H139531   5.139   6.606  19.436
 5112TIP3    H239532   5.273   6.537  19.421
 5113TIP3   OH239533   4.316   6.630  19.576
 5113TIP3    H139534   4.297   6.595  19.489
 5113TIP3    H239535   4.371   6.563  19.617
 5114TIP3   OH239536   4.479   6.983  19.834
 5114TIP3    H139537   4.487   6.951  19.744
 5114TIP3    H239538   4.539   6.928  19.884
 5115TIP3   OH239539   4.334   6.428  19.913
 5115TIP3    H139540   4.366   6.424  19.823
 5115TIP3    H239541   4.392   6.490  19.957
 5116TIP3   OH239542   5.068   6.543  19.145
 5116TIP3    H139543   5.116   6.566  19.225
 5116TIP3    H239544   5.122   6.577  19.074
 5117TIP3   OH239545   4.834   7.179  19.464
 5117TIP3    H139546   4.904   7.194  19.528
 5117TIP3    H239547   4.781   7.259  19.468
 5118TIP3   OH239548   5.444   5.669  19.147
 5118TIP3    H139549   5.360   5.693  19.186
 5118TIP3    H239550   5.481   5.751  19.117
 5119TIP3   OH239551   4.243   6.541  19.317
 5119TIP3    H139552   4.201   6.616  19.273
 5119TIP3    H239553   4.188   6.466  19.293
 5120TIP3   OH239554   5.566   7.084  18.992
 5120TIP3    H139555   5.583   7.179  18.995
 5120TIP3    H239556   5.653   7.045  18.994
 5121TIP3   OH239557   3.880   7.065  19.861
 5121TIP3    H139558   3.963   7.020  19.846
 5121TIP3    H239559   3.905   7.153  19.891
 5122TIP3   OH239560   4.807   7.471  19.333
 5122TIP3    H139561   4.799   7.477  19.238
 5122TIP3    H239562   4.762   7.549  19.366
 5123TIP3   OH239563   4.171   7.280  19.489
 5123TIP3    H139564   4.188   7.270  19.583
 5123TIP3    H239565   4.107   7.212  19.469
 5124TIP3   OH239566   5.111   7.376  19.071
 5124TIP3    H139567   5.167   7.311  19.029
 5124TIP3    H239568   5.092   7.340  19.157
 5125TIP3   OH239569   5.041   7.333  19.323
 5125TIP3    H139570   4.959   7.378  19.341
 5125TIP3    H239571   5.054   7.275  19.398
 5126TIP3   OH239572   4.365   5.819  19.875
 5126TIP3    H139573   4.275   5.797  19.849
 5126TIP3    H239574   4.376   5.910  19.850
 5127TIP3   OH239575   5.234   6.617  18.945
 5127TIP3    H139576   5.216   6.621  18.851
 5127TIP3    H239577   5.328   6.636  18.952
 5128TIP3   OH239578   4.774   5.984  18.982
 5128TIP3    H139579   4.719   5.982  19.061
 5128TIP3    H239580   4.736   5.918  18.924
 5129TIP3   OH239581   4.323   6.232  19.500
 5129TIP3    H139582   4.228   6.225  19.496
 5129TIP3    H239583   4.352   6.225  19.409
 5130TIP3   OH239584   4.894   6.326  19.389
 5130TIP3    H139585   4.867   6.414  19.363
 5130TIP3    H239586   4.967   6.306  19.330
 5131TIP3   OH239587   4.982   6.300  19.678
 5131TIP3    H139588   4.957   6.381  19.633
 5131TIP3    H239589   4.987   6.235  19.608
 5132TIP3   OH239590   4.438   6.031  18.892
 5132TIP3    H139591   4.405   6.013  18.981
 5132TIP3    H239592   4.380   6.099  18.858
 5133TIP3   OH239593   3.804   6.012  19.636
 5133TIP3    H139594   3.842   6.009  19.724
 5133TIP3    H239595   3.862   6.069  19.587
 5134TIP3   OH239596   3.853   6.083  19.126
 5134TIP3    H139597   3.924   6.124  19.077
 5134TIP3    H239598   3.798   6.155  19.155
 5135TIP3   OH239599   4.649   6.004  19.590
 5135TIP3    H139600   4.566   6.026  19.631
 5135TIP3    H239601   4.711   5.996  19.663
 5136TIP3   OH239602   4.051   6.153  19.516
 5136TIP3    H139603   3.986   6.184  19.452
 5136TIP3    H239604   4.082   6.069  19.480
 5137TIP3   OH239605   4.420   6.205  19.247
 5137TIP3    H139606   4.513   6.213  19.266
 5137TIP3    H239607   4.407   6.258  19.168
 5138TIP3   OH239608   5.048   5.991  19.900
 5138TIP3    H139609   5.050   5.927  19.971
 5138TIP3    H239610   4.970   5.967  19.849
 5139TIP3   OH239611   4.359   6.327  19.007
 5139TIP3    H139612   4.312   6.301  18.928
 5139TIP3    H239613   4.437   6.372  18.975
 5140TIP3   OH239614   4.686   6.280  19.767
 5140TIP3    H139615   4.777   6.302  19.746
 5140TIP3    H239616   4.674   6.309  19.857
 5141TIP3   OH239617   4.191   5.922  19.453
 5141TIP3    H139618   4.139   5.844  19.472
 5141TIP3    H239619   4.248   5.896  19.381
 5142TIP3   OH239620   4.635   6.779  19.228
 5142TIP3    H139621   4.566   6.732  19.181
 5142TIP3    H239622   4.602   6.789  19.317
 5143TIP3   OH239623   5.026   6.035  19.080
 5143TIP3    H139624   4.936   6.038  19.049
 5143TIP3    H239625   5.043   6.122  19.115
 5144TIP3   OH239626   5.101   6.271  19.203
 5144TIP3    H139627   5.186   6.252  19.244
 5144TIP3    H239628   5.107   6.363  19.178
 5145TIP3   OH239629   4.179   6.708  19.803
 5145TIP3    H139630   4.222   6.695  19.719
 5145TIP3    H239631   4.236   6.666  19.867
 5146TIP3   OH239632   4.848   6.914  19.126
 5146TIP3    H139633   4.818   7.004  19.133
 5146TIP3    H239634   4.774   6.861  19.158
 5147TIP3   OH239635   5.558   6.288  19.179
 5147TIP3    H139636   5.517   6.271  19.095
 5147TIP3    H239637   5.593   6.377  19.171
 5148TIP3   OH239638   5.419   7.109  19.232
 5148TIP3    H139639   5.365   7.037  19.264
 5148TIP3    H239640   5.455   7.078  19.149
 5149TIP3   OH239641   5.117   6.633  19.854
 5149TIP3    H139642   5.028   6.598  19.853
 5149TIP3    H239643   5.173   6.558  19.833
 5150TIP3   OH239644   4.412   7.053  19.537
 5150TIP3    H139645   4.453   7.136  19.511
 5150TIP3    H239646   4.320   7.063  19.513
 5151TIP3   OH239647   4.015   6.549  18.991
 5151TIP3    H139648   4.065   6.612  19.042
 5151TIP3    H239649   3.928   6.550  19.031
 5152TIP3   OH239650   4.508   6.807  19.464
 5152TIP3    H139651   4.484   6.895  19.494
 5152TIP3    H239652   4.458   6.747  19.518
 5153TIP3   OH239653   4.436   7.309  19.420
 5153TIP3    H139654   4.341   7.310  19.432
 5153TIP3    H239655   4.467   7.384  19.472
 5154TIP3   OH239656   5.197   6.947  19.012
 5154TIP3    H139657   5.219   6.903  19.094
 5154TIP3    H239658   5.105   6.926  18.996
 5155TIP3   OH239659   5.629   7.348  19.019
 5155TIP3    H139660   5.694   7.411  18.987
 5155TIP3    H239661   5.550   7.400  19.031
 5156TIP3   OH239662   5.288   6.822  19.241
 5156TIP3    H139663   5.249   6.750  19.290
 5156TIP3    H239664   5.382   6.803  19.241
 5157TIP3   OH239665   4.589   7.051  18.860
 5157TIP3    H139666   4.593   6.968  18.813
 5157TIP3    H239667   4.544   7.030  18.942
 5158TIP3   OH239668   4.461   7.001  19.102
 5158TIP3    H139669   4.514   6.951  19.164
 5158TIP3    H239670   4.470   7.092  19.130
 5159TIP3   OH239671   4.118   6.737  19.168
 5159TIP3    H139672   4.046   6.778  19.215
 5159TIP3    H239673   4.164   6.809  19.126
 5160TIP3   OH239674   4.995   5.902  19.323
 5160TIP3    H139675   5.006   5.945  19.238
 5160TIP3    H239676   5.024   5.968  19.386
 5161TIP3   OH239677   4.749   7.162  19.157
 5161TIP3    H139678   4.661   7.200  19.152
 5161TIP3    H239679   4.795   7.216  19.221
 5162TIP3   OH239680   4.682   6.156  19.357
 5162TIP3    H139681   4.754   6.218  19.367
 5162TIP3    H239682   4.671   6.117  19.444
 5163TIP3   OH239683   4.750   5.811  19.416
 5163TIP3    H139684   4.723   5.878  19.479
 5163TIP3    H239685   4.837   5.838  19.387
 5164TIP3   OH239686   4.495   7.265  19.158
 5164TIP3    H139687   4.497   7.350  19.113
 5164TIP3    H239688   4.473   7.287  19.249
 5165TIP3   OH239689   4.343   5.961  19.148
 5165TIP3    H139690   4.346   6.047  19.190
 5165TIP3    H239691   4.429   5.922  19.164
 5166TIP3   OH239692   5.240   6.394  19.745
 5166TIP3    H139693   5.152   6.356  19.740
 5166TIP3    H239694   5.290   6.333  19.798
 5167TIP3   OH239695   4.195   6.963  19.013
 5167TIP3    H139696   4.267   7.010  19.055
 5167TIP3    H239697   4.238   6.907  18.948
 5168TIP3   OH239698   3.988   6.270  18.970
 5168TIP3    H139699   4.039   6.347  18.992
 5168TIP3    H239700   3.907   6.305  18.933
 5169TIP3   OH239701   5.405   7.298  19.907
 5169TIP3    H139702   5.386   7.366  19.841
 5169TIP3    H239703   5.430   7.348  19.985
 5170TIP3   OH239704   4.108   5.772  19.775
 5170TIP3    H139705   4.092   5.761  19.681
 5170TIP3    H239706   4.073   5.693  19.815
 5171TIP3   OH239707   3.960   7.107  19.438
 5171TIP3    H139708   3.905   7.146  19.506
 5171TIP3    H239709   3.943   7.159  19.360
 5172TIP3   OH239710   4.790   7.250  18.860
 5172TIP3    H139711   4.729   7.180  18.879
 5172TIP3    H239712   4.871   7.205  18.835
 5173TIP3   OH239713   5.241   7.199  18.910
 5173TIP3    H139714   5.245   7.112  18.951
 5173TIP3    H239715   5.314   7.199  18.847
 5174TIP3   OH239716   4.336   6.777  18.871
 5174TIP3    H139717   4.365   6.735  18.951
 5174TIP3    H239718   4.415   6.783  18.817
 5175TIP3   OH239719   4.934   6.916  18.869
 5175TIP3    H139720   4.893   6.913  18.955
 5175TIP3    H239721   4.922   6.828  18.834
 5176TIP3   OH239722   4.441   6.635  19.092
 5176TIP3    H139723   4.393   6.583  19.157
 5176TIP3    H239724   4.491   6.570  19.042
 5177TIP3   OH239725   4.584   6.463  18.926
 5177TIP3    H139726   4.581   6.484  18.833
 5177TIP3    H239727   4.677   6.454  18.946
 5178TIP3   OH239728   5.512   6.655  18.873
 5178TIP3    H139729   5.492   6.625  18.784
 5178TIP3    H239730   5.488   6.748  18.872
 5179TIP3   OH239731   4.547   7.507  19.037
 5179TIP3    H139732   4.642   7.514  19.037
 5179TIP3    H239733   4.517   7.581  18.983
 5180TIP3   OH239734   3.924   6.959  18.989
 5180TIP3    H139735   4.018   6.969  19.000
 5180TIP3    H239736   3.915   6.891  18.922
 5181TIP3   OH239737   3.785   7.486  19.482
 5181TIP3    H139738   3.721   7.452  19.420
 5181TIP3    H239739   3.792   7.418  19.549
 5182TIP3   OH239740   3.842   7.275  19.654
 5182TIP3    H139741   3.784   7.208  19.690
 5182TIP3    H239742   3.897   7.301  19.728
 5183TIP3   OH239743   5.554   6.746  19.260
 5183TIP3    H139744   5.633   6.801  19.265
 5183TIP3    H239745   5.561   6.687  19.335
 5184TIP3   OH239746   5.600   6.561  19.456
 5184TIP3    H139747   5.521   6.517  19.485
 5184TIP3    H239748   5.653   6.571  19.535
 5185TIP3   OH239749   5.565   6.881  19.939
 5185TIP3    H139750   5.620   6.804  19.922
 5185TIP3    H239751   5.616   6.955  19.906
 5186TIP3   OH239752   5.637   6.545  19.091
 5186TIP3    H139753   5.592   6.567  19.010
 5186TIP3    H239754   5.608   6.610  19.154
 5187TIP3   OH239755   5.455   6.261  18.925
 5187TIP3    H139756   5.439   6.316  18.848
 5187TIP3    H239757   5.430   6.173  18.897
 5188TIP3   OH239758   5.376   6.413  19.510
 5188TIP3    H139759   5.361   6.326  19.473
 5188TIP3    H239760   5.334   6.411  19.596
 5189TIP3   OH239761   3.854   6.649  19.889
 5189TIP3    H139762   3.861   6.616  19.799
 5189TIP3    H239763   3.945   6.661  19.917
 5190TIP3   OH239764   5.373   6.014  18.838
 5190TIP3    H139765   5.417   5.965  18.907
 5190TIP3    H239766   5.284   5.979  18.837
 5191TIP3   OH239767   5.338   6.186  19.338
 5191TIP3    H139768   5.359   6.094  19.350
 5191TIP3    H239769   5.411   6.221  19.287
 5192TIP3   OH239770   5.396   6.198  19.867
 5192TIP3    H139771   5.488   6.223  19.869
 5192TIP3    H239772   5.370   6.196  19.959
 5193TIP3   OH239773   5.408   5.920  19.366
 5193TIP3    H139774   5.436   5.885  19.451
 5193TIP3    H239775   5.343   5.857  19.335
 5194TIP3   OH239776   3.969   5.998  19.856
 5194TIP3    H139777   4.018   5.919  19.835
 5194TIP3    H239778   4.034   6.059  19.890
 5195TIP3   OH239779   3.763   6.292  19.900
 5195TIP3    H139780   3.840   6.275  19.846
 5195TIP3    H239781   3.788   6.364  19.957
 5196TIP3   OH239782   5.547   5.895  19.020
 5196TIP3    H139783   5.591   5.835  18.960
 5196TIP3    H239784   5.616   5.953  19.051
 5197TIP3   OH239785   3.809   5.873  19.297
 5197TIP3    H139786   3.720   5.891  19.328
 5197TIP3    H239787   3.834   5.953  19.251
 5198TIP3   OH239788   5.291   7.408  19.499
 5198TIP3    H139789   5.360   7.378  19.440
 5198TIP3    H239790   5.337   7.442  19.575
 5199TIP3   OH239791   4.004   7.318  19.886
 5199TIP3    H139792   4.032   7.335  19.976
 5199TIP3    H239793   4.084   7.293  19.841
 5200TIP3   OH239794   4.226   7.238  19.754
 5200TIP3    H139795   4.219   7.146  19.779
 5200TIP3    H239796   4.313   7.265  19.784
 5201TIP3   OH239797   4.477   7.252  19.869
 5201TIP3    H139798   4.485   7.160  19.846
 5201TIP3    H239799   4.527   7.262  19.950
 5202TIP3   OH239800   4.825   5.867  19.773
 5202TIP3    H139801   4.756   5.802  19.786
 5202TIP3    H239802   4.898   5.818  19.737
 5203TIP3   OH239803   5.347   5.687  19.764
 5203TIP3    H139804   5.412   5.738  19.716
 5203TIP3    H239805   5.267   5.740  19.760
 5204TIP3   OH239806   5.526   5.794  19.582
 5204TIP3    H139807   5.588   5.732  19.544
 5204TIP3    H239808   5.579   5.872  19.601
 5205TIP3   OH239809   4.052   5.695  19.514
 5205TIP3    H139810   3.960   5.683  19.491
 5205TIP3    H239811   4.091   5.608  19.504
 5206TIP3   OH239812   3.950   5.699  19.132
 5206TIP3    H139813   4.001   5.766  19.087
 5206TIP3    H239814   3.899   5.748  19.197
 5207TIP3   OH239815   4.528   5.670  19.524
 5207TIP3    H139816   4.596   5.720  19.479
 5207TIP3    H239817   4.546   5.683  19.617
 5208TIP3   OH239818   5.065   5.748  19.687
 5208TIP3    H139819   5.101   5.735  19.599
 5208TIP3    H239820   5.030   5.663  19.712
 5209TIP3   OH239821   5.214   5.733  19.288
 5209TIP3    H139822   5.136   5.788  19.295
 5209TIP3    H239823   5.183   5.644  19.306
 5210TIP3   OH239824   3.921   7.257  19.219
 5210TIP3    H139825   3.841   7.269  19.168
 5210TIP3    H239826   3.979   7.328  19.191
 5211TIP3   OH239827   4.125   5.877  18.992
 5211TIP3    H139828   4.174   5.819  18.934
 5211TIP3    H239829   4.189   5.908  19.055
 5212TIP3   OH239830   4.615   5.940  19.205
 5212TIP3    H139831   4.651   5.871  19.261
 5212TIP3    H239832   4.633   6.021  19.252
 5213TIP3   OH239833   4.830   7.447  19.054
 5213TIP3    H139834   4.926   7.441  19.057
 5213TIP3    H239835   4.804   7.381  18.990
 5214TIP3   OH239836   5.495   7.353  19.321
 5214TIP3    H139837   5.474   7.262  19.298
 5214TIP3    H239838   5.477   7.403  19.242
 5215TIP3   OH239839   4.100   7.377  18.898
 5215TIP3    H139840   4.075   7.422  18.979
 5215TIP3    H239841   4.184   7.335  18.919
 5216TIP3   OH239842   6.861   6.646  19.520
 5216TIP3    H139843   6.857   6.741  19.521
 5216TIP3    H239844   6.792   6.619  19.459
 5217TIP3   OH239845   6.718   6.545  19.901
 5217TIP3    H139846   6.762   6.478  19.953
 5217TIP3    H239847   6.662   6.495  19.841
 5218TIP3   OH239848   7.076   6.862  19.700
 5218TIP3    H139849   7.032   6.794  19.751
 5218TIP3    H239850   7.097   6.930  19.765
 5219TIP3   OH239851   6.084   6.970  19.841
 5219TIP3    H139852   6.059   6.880  19.823
 5219TIP3    H239853   6.177   6.966  19.862
 5220TIP3   OH239854   5.724   6.278  19.433
 5220TIP3    H139855   5.711   6.369  19.460
 5220TIP3    H239856   5.662   6.265  19.361
 5221TIP3   OH239857   5.805   6.548  19.646
 5221TIP3    H139858   5.830   6.462  19.679
 5221TIP3    H239859   5.889   6.593  19.631
 5222TIP3   OH239860   6.822   7.360  19.772
 5222TIP3    H139861   6.867   7.290  19.726
 5222TIP3    H239862   6.768   7.315  19.837
 5223TIP3   OH239863   6.602   6.838  19.935
 5223TIP3    H139864   6.639   6.765  19.885
 5223TIP3    H239865   6.639   6.828  20.023
 5224TIP3   OH239866   6.851   6.267  19.939
 5224TIP3    H139867   6.891   6.182  19.957
 5224TIP3    H239868   6.865   6.281  19.845
 5225TIP3   OH239869   6.249   6.039  19.682
 5225TIP3    H139870   6.257   6.118  19.629
 5225TIP3    H239871   6.198   5.979  19.628
 5226TIP3   OH239872   6.989   6.102  19.503
 5226TIP3    H139873   7.035   6.054  19.573
 5226TIP3    H239874   7.059   6.144  19.453
 5227TIP3   OH239875   5.882   6.304  19.743
 5227TIP3    H139876   5.941   6.262  19.807
 5227TIP3    H239877   5.905   6.263  19.659
 5228TIP3   OH239878   6.367   6.423  19.701
 5228TIP3    H139879   6.451   6.385  19.727
 5228TIP3    H239880   6.333   6.362  19.636
 5229TIP3   OH239881   6.804   6.897  19.413
 5229TIP3    H139882   6.794   6.901  19.318
 5229TIP3    H239883   6.765   6.978  19.444
 5230TIP3   OH239884   7.126   5.992  19.707
 5230TIP3    H139885   7.074   5.994  19.787
 5230TIP3    H239886   7.214   6.017  19.734
 5231TIP3   OH239887   6.085   6.168  19.876
 5231TIP3    H139888   6.128   6.250  19.898
 5231TIP3    H239889   6.144   6.125  19.814
 5232TIP3   OH239890   5.794   6.888  19.262
 5232TIP3    H139891   5.788   6.936  19.180
 5232TIP3    H239892   5.812   6.955  19.328
 5233TIP3   OH239893   7.139   7.047  19.892
 5233TIP3    H139894   7.177   7.002  19.967
 5233TIP3    H239895   7.179   7.134  19.894
 5234TIP3   OH239896   6.489   5.703  19.805
 5234TIP3    H139897   6.474   5.610  19.818
 5234TIP3    H239898   6.410   5.745  19.839
 5235TIP3   OH239899   6.967   7.214  19.577
 5235TIP3    H139900   7.006   7.130  19.556
 5235TIP3    H239901   7.038   7.277  19.566
 5236TIP3   OH239902   7.101   7.000  19.469
 5236TIP3    H139903   7.086   6.939  19.397
 5236TIP3    H239904   7.097   6.945  19.547
 5237TIP3   OH239905   6.710   6.582  19.293
 5237TIP3    H139906   6.643   6.646  19.270
 5237TIP3    H239907   6.776   6.591  19.224
 5238TIP3   OH239908   6.742   6.450  18.966
 5238TIP3    H139909   6.802   6.484  19.032
 5238TIP3    H239910   6.780   6.366  18.941
 5239TIP3   OH239911   7.084   6.593  19.370
 5239TIP3    H139912   7.015   6.612  19.433
 5239TIP3    H239913   7.146   6.538  19.418
 5240TIP3   OH239914   6.224   6.628  19.570
 5240TIP3    H139915   6.191   6.591  19.488
 5240TIP3    H239916   6.280   6.560  19.606
 5241TIP3   OH239917   6.372   6.977  19.839
 5241TIP3    H139918   6.373   6.979  19.743
 5241TIP3    H239919   6.446   6.922  19.863
 5242TIP3   OH239920   6.182   6.465  19.897
 5242TIP3    H139921   6.246   6.454  19.826
 5242TIP3    H239922   6.234   6.492  19.972
 5243TIP3   OH239923   6.943   6.543  19.142
 5243TIP3    H139924   6.990   6.565  19.222
 5243TIP3    H239925   6.994   6.584  19.072
 5244TIP3   OH239926   6.711   7.150  19.488
 5244TIP3    H139927   6.790   7.177  19.534
 5244TIP3    H239928   6.663   7.231  19.472
 5245TIP3   OH239929   7.314   5.670  19.148
 5245TIP3    H139930   7.227   5.694  19.178
 5245TIP3    H239931   7.356   5.753  19.125
 5246TIP3   OH239932   6.121   6.536  19.329
 5246TIP3    H139933   6.083   6.610  19.282
 5246TIP3    H239934   6.074   6.460  19.296
 5247TIP3   OH239935   7.466   7.104  18.986
 5247TIP3    H139936   7.482   7.197  19.005
 5247TIP3    H239937   7.553   7.067  18.972
 5248TIP3   OH239938   5.762   7.062  19.853
 5248TIP3    H139939   5.848   7.024  19.840
 5248TIP3    H239940   5.780   7.149  19.891
 5249TIP3   OH239941   6.703   7.479  19.335
 5249TIP3    H139942   6.688   7.483  19.241
 5249TIP3    H239943   6.657   7.556  19.370
 5250TIP3   OH239944   6.055   7.281  19.492
 5250TIP3    H139945   6.067   7.269  19.586
 5250TIP3    H239946   5.990   7.215  19.468
 5251TIP3   OH239947   6.987   7.371  19.067
 5251TIP3    H139948   7.047   7.309  19.025
 5251TIP3    H239949   6.966   7.331  19.151
 5252TIP3   OH239950   6.916   7.312  19.316
 5252TIP3    H139951   6.842   7.368  19.340
 5252TIP3    H239952   6.934   7.261  19.395
 5253TIP3   OH239953   6.248   5.806  19.886
 5253TIP3    H139954   6.164   5.781  19.847
 5253TIP3    H239955   6.247   5.902  19.886
 5254TIP3   OH239956   7.098   6.643  18.949
 5254TIP3    H139957   7.073   6.636  18.857
 5254TIP3    H239958   7.193   6.653  18.947
 5255TIP3   OH239959   6.667   6.005  18.979
 5255TIP3    H139960   6.607   6.012  19.052
 5255TIP3    H239961   6.626   5.941  18.921
 5256TIP3   OH239962   6.241   6.261  19.524
 5256TIP3    H139963   6.146   6.253  19.518
 5256TIP3    H239964   6.272   6.250  19.434
 5257TIP3   OH239965   6.803   6.346  19.395
 5257TIP3    H139966   6.767   6.427  19.359
 5257TIP3    H239967   6.867   6.318  19.331
 5258TIP3   OH239968   6.854   6.290  19.660
 5258TIP3    H139969   6.829   6.344  19.585
 5258TIP3    H239970   6.893   6.212  19.620
 5259TIP3   OH239971   6.318   6.036  18.914
 5259TIP3    H139972   6.273   6.016  18.997
 5259TIP3    H239973   6.260   6.099  18.871
 5260TIP3   OH239974   5.682   6.014  19.617
 5260TIP3    H139975   5.734   6.016  19.698
 5260TIP3    H239976   5.702   6.097  19.574
 5261TIP3   OH239977   5.737   6.084  19.113
 5261TIP3    H139978   5.806   6.127  19.062
 5261TIP3    H239979   5.679   6.155  19.141
 5262TIP3   OH239980   6.543   6.018  19.616
 5262TIP3    H139981   6.454   6.018  19.651
 5262TIP3    H239982   6.597   5.985  19.688
 5263TIP3   OH239983   5.976   6.189  19.510
 5263TIP3    H139984   5.894   6.205  19.464
 5263TIP3    H239985   5.997   6.098  19.492
 5264TIP3   OH239986   6.315   6.214  19.265
 5264TIP3    H139987   6.408   6.195  19.249
 5264TIP3    H239988   6.285   6.259  19.186
 5265TIP3   OH239989   6.937   5.997  19.920
 5265TIP3    H139990   6.945   5.931  19.989
 5265TIP3    H239991   6.861   5.968  19.870
 5266TIP3   OH239992   6.234   6.330  19.028
 5266TIP3    H139993   6.178   6.299  18.957
 5266TIP3    H239994   6.311   6.364  18.984
 5267TIP3   OH239995   6.601   6.306  19.791
 5267TIP3    H139996   6.676   6.290  19.734
 5267TIP3    H239997   6.621   6.259  19.871
 5268TIP3   OH239998   6.083   5.936  19.465
 5268TIP3    H139999   6.032   5.856  19.478
 5268TIP3    H240000   6.111   5.932  19.374
 5269TIP3   OH240001   6.517   6.775  19.219
 5269TIP3    H140002   6.448   6.727  19.174
 5269TIP3    H240003   6.483   6.790  19.307
 5270TIP3   OH240004   6.921   6.037  19.073
 5270TIP3    H140005   6.830   6.042  19.042
 5270TIP3    H240006   6.939   6.125  19.106
 5271TIP3   OH240007   6.996   6.269  19.202
 5271TIP3    H140008   7.078   6.251  19.248
 5271TIP3    H240009   7.006   6.359  19.170
 5272TIP3   OH240010   6.059   6.696  19.780
 5272TIP3    H140011   6.112   6.691  19.701
 5272TIP3    H240012   6.084   6.618  19.831
 5273TIP3   OH240013   6.740   6.908  19.135
 5273TIP3    H140014   6.711   6.999  19.143
 5273TIP3    H240015   6.663   6.857  19.160
 5274TIP3   OH240016   7.405   6.291  19.181
 5274TIP3    H140017   7.378   6.257  19.095
 5274TIP3    H240018   7.444   6.376  19.161
 5275TIP3   OH240019   7.316   7.118  19.230
 5275TIP3    H140020   7.256   7.048  19.257
 5275TIP3    H240021   7.350   7.090  19.145
 5276TIP3   OH240022   6.965   6.669  19.860
 5276TIP3    H140023   6.875   6.638  19.869
 5276TIP3    H240024   7.011   6.595  19.820
 5277TIP3   OH240025   6.302   7.050  19.565
 5277TIP3    H140026   6.336   7.130  19.525
 5277TIP3    H240027   6.209   7.051  19.544
 5278TIP3   OH240028   5.904   6.543  19.018
 5278TIP3    H140029   5.949   6.611  19.069
 5278TIP3    H240030   5.814   6.545  19.050
 5279TIP3   OH240031   6.395   6.815  19.456
 5279TIP3    H140032   6.374   6.900  19.495
 5279TIP3    H240033   6.337   6.753  19.499
 5280TIP3   OH240034   6.322   7.298  19.430
 5280TIP3    H140035   6.226   7.301  19.437
 5280TIP3    H240036   6.351   7.374  19.480
 5281TIP3   OH240037   7.082   6.957  19.026
 5281TIP3    H140038   7.107   6.907  19.103
 5281TIP3    H240039   6.991   6.931  19.008
 5282TIP3   OH240040   7.546   7.363  19.044
 5282TIP3    H140041   7.568   7.408  18.962
 5282TIP3    H240042   7.469   7.410  19.077
 5283TIP3   OH240043   7.184   6.820  19.243
 5283TIP3    H140044   7.145   6.743  19.284
 5283TIP3    H240045   7.278   6.802  19.242
 5284TIP3   OH240046   6.476   7.055  18.854
 5284TIP3    H140047   6.477   6.972  18.806
 5284TIP3    H240048   6.429   7.034  18.935
 5285TIP3   OH240049   6.349   7.007  19.096
 5285TIP3    H140050   6.403   6.954  19.154
 5285TIP3    H240051   6.360   7.097  19.127
 5286TIP3   OH240052   6.011   6.740  19.181
 5286TIP3    H140053   5.936   6.782  19.222
 5286TIP3    H240054   6.055   6.811  19.133
 5287TIP3   OH240055   6.878   5.922  19.323
 5287TIP3    H140056   6.886   5.962  19.237
 5287TIP3    H240057   6.905   5.990  19.385
 5288TIP3   OH240058   6.643   7.158  19.159
 5288TIP3    H140059   6.554   7.194  19.159
 5288TIP3    H240060   6.699   7.233  19.180
 5289TIP3   OH240061   6.615   6.144  19.382
 5289TIP3    H140062   6.678   6.215  19.393
 5289TIP3    H240063   6.590   6.120  19.472
 5290TIP3   OH240064   6.646   5.820  19.442
 5290TIP3    H140065   6.613   5.895  19.491
 5290TIP3    H240066   6.721   5.855  19.394
 5291TIP3   OH240067   6.392   7.267  19.167
 5291TIP3    H140068   6.391   7.351  19.123
 5291TIP3    H240069   6.366   7.286  19.257
 5292TIP3   OH240070   6.194   5.970  19.186
 5292TIP3    H140071   6.242   6.046  19.220
 5292TIP3    H240072   6.261   5.902  19.178
 5293TIP3   OH240073   7.076   6.443  19.742
 5293TIP3    H140074   6.997   6.399  19.714
 5293TIP3    H240075   7.128   6.375  19.786
 5294TIP3   OH240076   6.083   6.960  19.015
 5294TIP3    H140077   6.156   7.009  19.052
 5294TIP3    H240078   6.123   6.903  18.950
 5295TIP3   OH240079   5.887   6.267  18.971
 5295TIP3    H140080   5.912   6.351  19.010
 5295TIP3    H240081   5.864   6.289  18.881
 5296TIP3   OH240082   7.270   7.288  19.917
 5296TIP3    H140083   7.249   7.359  19.857
 5296TIP3    H240084   7.352   7.314  19.957
 5297TIP3   OH240085   5.998   5.765  19.772
 5297TIP3    H140086   5.984   5.756  19.678
 5297TIP3    H240087   5.954   5.688  19.810
 5298TIP3   OH240088   5.847   7.107  19.435
 5298TIP3    H140089   5.788   7.145  19.501
 5298TIP3    H240090   5.829   7.158  19.355
 5299TIP3   OH240091   6.678   7.247  18.860
 5299TIP3    H140092   6.612   7.179  18.871
 5299TIP3    H240093   6.757   7.200  18.833
 5300TIP3   OH240094   7.129   7.200  18.912
 5300TIP3    H140095   7.128   7.116  18.957
 5300TIP3    H240096   7.201   7.192  18.849
 5301TIP3   OH240097   6.218   6.771  18.872
 5301TIP3    H140098   6.246   6.725  18.951
 5301TIP3    H240099   6.298   6.782  18.820
 5302TIP3   OH240100   6.818   6.913  18.873
 5302TIP3    H140101   6.778   6.908  18.960
 5302TIP3    H240102   6.799   6.827  18.833
 5303TIP3   OH240103   6.322   6.627  19.093
 5303TIP3    H140104   6.268   6.573  19.151
 5303TIP3    H240105   6.371   6.564  19.040
 5304TIP3   OH240106   6.460   6.457  18.927
 5304TIP3    H140107   6.456   6.477  18.833
 5304TIP3    H240108   6.554   6.451  18.945
 5305TIP3   OH240109   7.372   6.656  18.880
 5305TIP3    H140110   7.345   6.634  18.791
 5305TIP3    H240111   7.362   6.751  18.885
 5306TIP3   OH240112   6.438   7.509  19.043
 5306TIP3    H140113   6.533   7.509  19.040
 5306TIP3    H240114   6.412   7.578  18.982
 5307TIP3   OH240115   5.812   6.961  18.986
 5307TIP3    H140116   5.906   6.967  18.999
 5307TIP3    H240117   5.801   6.890  18.922
 5308TIP3   OH240118   5.673   7.487  19.479
 5308TIP3    H140119   5.608   7.454  19.418
 5308TIP3    H240120   5.680   7.419  19.547
 5309TIP3   OH240121   5.730   7.278  19.653
 5309TIP3    H140122   5.670   7.211  19.685
 5309TIP3    H240123   5.781   7.303  19.730
 5310TIP3   OH240124   7.458   6.761  19.258
 5310TIP3    H140125   7.533   6.819  19.267
 5310TIP3    H240126   7.460   6.708  19.338
 5311TIP3   OH240127   7.461   6.600  19.479
 5311TIP3    H140128   7.379   6.553  19.499
 5311TIP3    H240129   7.492   6.631  19.564
 5312TIP3   OH240130   7.568   6.788  19.847
 5312TIP3    H140131   7.663   6.786  19.864
 5312TIP3    H240132   7.544   6.880  19.859
 5313TIP3   OH240133   7.493   6.537  19.098
 5313TIP3    H140134   7.453   6.564  19.016
 5313TIP3    H240135   7.483   6.613  19.155
 5314TIP3   OH240136   7.334   6.242  18.921
 5314TIP3    H140137   7.323   6.306  18.850
 5314TIP3    H240138   7.305   6.159  18.883
 5315TIP3   OH240139   7.248   6.436  19.528
 5315TIP3    H140140   7.261   6.342  19.519
 5315TIP3    H240141   7.195   6.445  19.607
 5316TIP3   OH240142   5.728   6.653  19.888
 5316TIP3    H140143   5.737   6.622  19.797
 5316TIP3    H240144   5.818   6.659  19.920
 5317TIP3   OH240145   7.250   5.993  18.846
 5317TIP3    H140146   7.254   5.956  18.934
 5317TIP3    H240147   7.159   5.978  18.818
 5318TIP3   OH240148   7.216   6.180  19.354
 5318TIP3    H140149   7.239   6.088  19.366
 5318TIP3    H240150   7.288   6.216  19.302
 5319TIP3   OH240151   7.238   6.248  19.841
 5319TIP3    H140152   7.333   6.262  19.842
 5319TIP3    H240153   7.219   6.209  19.926
 5320TIP3   OH240154   7.253   5.906  19.388
 5320TIP3    H140155   7.263   5.879  19.479
 5320TIP3    H240156   7.190   5.845  19.351
 5321TIP3   OH240157   5.860   5.999  19.828
 5321TIP3    H140158   5.903   5.915  19.815
 5321TIP3    H240159   5.927   6.054  19.869
 5322TIP3   OH240160   5.653   6.284  19.909
 5322TIP3    H140161   5.729   6.278  19.851
 5322TIP3    H240162   5.665   6.366  19.956
 5323TIP3   OH240163   7.465   5.886  19.042
 5323TIP3    H140164   7.503   5.825  18.978
 5323TIP3    H240165   7.496   5.972  19.014
 5324TIP3   OH240166   5.695   5.878  19.292
 5324TIP3    H140167   5.607   5.896  19.322
 5324TIP3    H240168   5.720   5.956  19.242
 5325TIP3   OH240169   7.154   7.403  19.502
 5325TIP3    H140170   7.227   7.375  19.446
 5325TIP3    H240171   7.196   7.437  19.581
 5326TIP3   OH240172   5.885   7.319  19.889
 5326TIP3    H140173   5.913   7.337  19.978
 5326TIP3    H240174   5.965   7.292  19.844
 5327TIP3   OH240175   6.105   7.231  19.757
 5327TIP3    H140176   6.098   7.138  19.781
 5327TIP3    H240177   6.192   7.256  19.786
 5328TIP3   OH240178   6.353   7.250  19.873
 5328TIP3    H140179   6.367   7.156  19.864
 5328TIP3    H240180   6.404   7.275  19.950
 5329TIP3   OH240181   6.714   5.880  19.789
 5329TIP3    H140182   6.646   5.814  19.801
 5329TIP3    H240183   6.784   5.835  19.742
 5330TIP3   OH240184   7.185   5.676  19.788
 5330TIP3    H140185   7.248   5.736  19.748
 5330TIP3    H240186   7.100   5.714  19.769
 5331TIP3   OH240187   7.362   5.815  19.632
 5331TIP3    H140188   7.421   5.751  19.593
 5331TIP3    H240189   7.409   5.898  19.627
 5332TIP3   OH240190   5.944   5.702  19.508
 5332TIP3    H140191   5.852   5.691  19.484
 5332TIP3    H240192   5.982   5.615  19.496
 5333TIP3   OH240193   5.816   5.694  19.124
 5333TIP3    H140194   5.874   5.755  19.080
 5333TIP3    H240195   5.772   5.746  19.192
 5334TIP3   OH240196   6.416   5.674  19.532
 5334TIP3    H140197   6.477   5.724  19.477
 5334TIP3    H240198   6.441   5.696  19.621
 5335TIP3   OH240199   6.929   5.748  19.680
 5335TIP3    H140200   6.953   5.746  19.587
 5335TIP3    H240201   6.892   5.661  19.696
 5336TIP3   OH240202   7.074   5.731  19.275
 5336TIP3    H140203   6.999   5.790  19.282
 5336TIP3    H240204   7.037   5.644  19.289
 5337TIP3   OH240205   5.806   7.251  19.213
 5337TIP3    H140206   5.726   7.262  19.162
 5337TIP3    H240207   5.862   7.324  19.185
 5338TIP3   OH240208   6.006   5.869  19.003
 5338TIP3    H140209   6.068   5.797  18.994
 5338TIP3    H240210   6.043   5.924  19.072
 5339TIP3   OH240211   6.500   5.982  19.196
 5339TIP3    H140212   6.511   5.889  19.212
 5339TIP3    H240213   6.546   6.025  19.269
 5340TIP3   OH240214   6.713   7.439  19.055
 5340TIP3    H140215   6.808   7.439  19.055
 5340TIP3    H240216   6.688   7.376  18.987
 5341TIP3   OH240217   7.373   7.359  19.342
 5341TIP3    H140218   7.360   7.270  19.310
 5341TIP3    H240219   7.369   7.414  19.263
 5342TIP3   OH240220   5.987   7.389  18.894
 5342TIP3    H140221   5.962   7.427  18.979
 5342TIP3    H240222   6.069   7.342  18.912
 5343TIP3   OH240223   7.542   6.334  19.417
 5343TIP3    H140224   7.515   6.423  19.438
 5343TIP3    H240225   7.488   6.309  19.341
 5344TIP3   OH240226   7.550   7.057  19.889
 5344TIP3    H140227   7.646   7.065  19.884
 5344TIP3    H240228   7.517   7.143  19.862
 5345TIP3   OH240229   7.501   6.039  19.574
 5345TIP3    H140230   7.588   6.058  19.608
 5345TIP3    H240231   7.512   6.033  19.479
 5346TIP3   OH240232   7.474   7.524  19.540
 5346TIP3    H140233   7.435   7.468  19.473
 5346TIP3    H240234   7.455   7.479  19.623
 5347TIP3   OH240235   7.537   7.292  19.726
 5347TIP3    H140236   7.502   7.226  19.666
 5347TIP3    H240237   7.628   7.303  19.699
 5348TIP3   OH240238   7.651   6.508  19.911
 5348TIP3    H140239   7.695   6.538  19.831
 5348TIP3    H240240   7.601   6.585  19.941
 5349TIP3   OH240241   7.503   6.275  19.896
 5349TIP3    H140242   7.577   6.218  19.915
 5349TIP3    H240243   7.538   6.363  19.902
 5350TIP3   OH240244   7.518   5.927  19.315
 5350TIP3    H140245   7.427   5.914  19.343
 5350TIP3    H240246   7.515   5.918  19.220
 5351TIP3   OH240247   0.835   7.507  19.858
 5351TIP3    H140248   0.850   7.416  19.830
 5351TIP3    H240249   0.743   7.509  19.883
 5352TIP3   OH240250   1.645   7.499  19.097
 5352TIP3    H140251   1.555   7.507  19.129
 5352TIP3    H240252   1.679   7.588  19.101
 5353TIP3   OH240253   0.573   7.576  19.889
 5353TIP3    H140254   0.482   7.573  19.859
 5353TIP3    H240255   0.587   7.667  19.915
 5354TIP3   OH240256   0.305   7.576  19.815
 5354TIP3    H140257   0.288   7.570  19.721
 5354TIP3    H240258   0.257   7.503  19.853
 5355TIP3   OH240259   1.584   7.507  19.728
 5355TIP3    H140260   1.614   7.591  19.762
 5355TIP3    H240261   1.490   7.520  19.711
 5356TIP3   OH240262   0.270   7.545  19.545
 5356TIP3    H140263   0.191   7.542  19.491
 5356TIP3    H240264   0.326   7.477  19.509
 5357TIP3   OH240265   0.210   7.528  19.118
 5357TIP3    H140266   0.243   7.607  19.075
 5357TIP3    H240267   0.137   7.559  19.171
 5358TIP3   OH240268   0.734   7.530  19.576
 5358TIP3    H140269   0.727   7.616  19.535
 5358TIP3    H240270   0.743   7.548  19.670
 5359TIP3   OH240271   1.324   7.551  19.667
 5359TIP3    H140272   1.281   7.633  19.643
 5359TIP3    H240273   1.254   7.499  19.707
 5360TIP3   OH240274   1.423   7.559  19.276
 5360TIP3    H140275   1.374   7.497  19.223
 5360TIP3    H240276   1.444   7.510  19.356
 5361TIP3   OH240277   2.714   7.507  19.879
 5361TIP3    H140278   2.740   7.444  19.812
 5361TIP3    H240279   2.618   7.506  19.878
 5362TIP3   OH240280   3.537   7.512  19.108
 5362TIP3    H140281   3.447   7.518  19.139
 5362TIP3    H240282   3.571   7.601  19.115
 5363TIP3   OH240283   2.448   7.572  19.847
 5363TIP3    H140284   2.354   7.564  19.833
 5363TIP3    H240285   2.459   7.658  19.886
 5364TIP3   OH240286   2.176   7.568  19.791
 5364TIP3    H140287   2.171   7.558  19.696
 5364TIP3    H240288   2.126   7.495  19.825
 5365TIP3   OH240289   3.462   7.512  19.743
 5365TIP3    H140290   3.494   7.598  19.771
 5365TIP3    H240291   3.369   7.524  19.727
 5366TIP3   OH240292   2.165   7.531  19.520
 5366TIP3    H140293   2.075   7.514  19.492
 5366TIP3    H240294   2.214   7.455  19.490
 5367TIP3   OH240295   2.085   7.514  19.121
 5367TIP3    H140296   2.104   7.608  19.112
 5367TIP3    H240297   2.013   7.511  19.184
 5368TIP3   OH240298   2.588   7.510  19.593
 5368TIP3    H140299   2.605   7.598  19.559
 5368TIP3    H240300   2.539   7.525  19.674
 5369TIP3   OH240301   3.201   7.556  19.663
 5369TIP3    H140302   3.208   7.515  19.577
 5369TIP3    H240303   3.140   7.499  19.711
 5370TIP3   OH240304   3.308   7.563  19.271
 5370TIP3    H140305   3.255   7.506  19.216
 5370TIP3    H240306   3.330   7.510  19.347
 5371TIP3   OH240307   4.597   7.515  19.864
 5371TIP3    H140308   4.621   7.425  19.840
 5371TIP3    H240309   4.504   7.510  19.883
 5372TIP3   OH240310   5.424   7.507  19.106
 5372TIP3    H140311   5.332   7.512  19.132
 5372TIP3    H240312   5.457   7.596  19.120
 5373TIP3   OH240313   4.330   7.571  19.873
 5373TIP3    H140314   4.239   7.565  19.841
 5373TIP3    H240315   4.339   7.662  19.901
 5374TIP3   OH240316   4.064   7.570  19.784
 5374TIP3    H140317   4.060   7.559  19.689
 5374TIP3    H240318   4.017   7.495  19.820
 5375TIP3   OH240319   5.355   7.518  19.745
 5375TIP3    H140320   5.384   7.605  19.773
 5375TIP3    H240321   5.261   7.528  19.729
 5376TIP3   OH240322   4.051   7.533  19.512
 5376TIP3    H140323   3.960   7.514  19.488
 5376TIP3    H240324   4.099   7.454  19.486
 5377TIP3   OH240325   3.968   7.513  19.117
 5377TIP3    H140326   3.986   7.606  19.106
 5377TIP3    H240327   3.900   7.510  19.184
 5378TIP3   OH240328   4.477   7.521  19.580
 5378TIP3    H140329   4.480   7.614  19.556
 5378TIP3    H240330   4.469   7.521  19.675
 5379TIP3   OH240331   5.092   7.557  19.663
 5379TIP3    H140332   5.109   7.510  19.581
 5379TIP3    H240333   5.031   7.501  19.711
 5380TIP3   OH240334   5.195   7.569  19.264
 5380TIP3    H140335   5.138   7.517  19.209
 5380TIP3    H240336   5.210   7.515  19.342
 5381TIP3   OH240337   6.486   7.513  19.875
 5381TIP3    H140338   6.510   7.434  19.827
 5381TIP3    H240339   6.391   7.510  19.880
 5382TIP3   OH240340   7.320   7.513  19.114
 5382TIP3    H140341   7.233   7.515  19.153
 5382TIP3    H240342   7.331   7.599  19.073
 5383TIP3   OH240343   6.218   7.571  19.861
 5383TIP3    H140344   6.125   7.563  19.840
 5383TIP3    H240345   6.226   7.659  19.899
 5384TIP3   OH240346   5.951   7.570  19.785
 5384TIP3    H140347   5.945   7.560  19.690
 5384TIP3    H240348   5.898   7.498  19.820
 5385TIP3   OH240349   7.223   7.504  19.751
 5385TIP3    H140350   7.257   7.587  19.786
 5385TIP3    H240351   7.130   7.521  19.736
 5386TIP3   OH240352   5.937   7.535  19.513
 5386TIP3    H140353   5.847   7.517  19.489
 5386TIP3    H240354   5.985   7.456  19.487
 5387TIP3   OH240355   5.857   7.510  19.124
 5387TIP3    H140356   5.874   7.604  19.112
 5387TIP3    H240357   5.788   7.506  19.190
 5388TIP3   OH240358   6.355   7.519  19.583
 5388TIP3    H140359   6.366   7.609  19.554
 5388TIP3    H240360   6.315   7.526  19.670
 5389TIP3   OH240361   6.965   7.565  19.667
 5389TIP3    H140362   6.975   7.524  19.581
 5389TIP3    H240363   6.906   7.506  19.715
 5390TIP3   OH240364   7.082   7.551  19.259
 5390TIP3    H140365   7.029   7.502  19.196
 5390TIP3    H240366   7.082   7.497  19.338
 5391TIP3   OH240367   1.200   1.012  10.646
 5391TIP3    H140368   1.190   1.107  10.639
 5391TIP3    H240369   1.131   0.976  10.590
 5392TIP3   OH240370   1.095   0.909  11.021
 5392TIP3    H140371   1.096   0.872  11.109
 5392TIP3    H240372   1.047   0.845  10.969
 5393TIP3   OH240373   0.309   0.890  11.168
 5393TIP3    H140374   0.303   0.802  11.206
 5393TIP3    H240375   0.395   0.921  11.194
 5394TIP3   OH240376   1.447   1.208  10.862
 5394TIP3    H140377   1.413   1.133  10.910
 5394TIP3    H240378   1.476   1.269  10.930
 5395TIP3   OH240379   0.418   1.327  10.975
 5395TIP3    H140380   0.390   1.237  10.957
 5395TIP3    H240381   0.513   1.320  10.987
 5396TIP3   OH240382   0.124   0.633  10.480
 5396TIP3    H140383   0.140   0.726  10.492
 5396TIP3    H240384   0.041   0.616  10.524
 5397TIP3   OH240385   0.111   0.901  10.809
 5397TIP3    H140386   0.152   0.821  10.841
 5397TIP3    H240387   0.179   0.945  10.759
 5398TIP3   OH240388   1.173   1.732  10.873
 5398TIP3    H140389   1.224   1.666  10.826
 5398TIP3    H240390   1.131   1.684  10.944
 5399TIP3   OH240391   0.916   1.168  11.051
 5399TIP3    H140392   0.951   1.098  10.995
 5399TIP3    H240393   0.990   1.195  11.105
 5400TIP3   OH240394   1.807   0.309  11.100
 5400TIP3    H140395   1.807   0.382  11.161
 5400TIP3    H240396   1.864   0.337  11.029
 5401TIP3   OH240397   1.260   0.603  11.087
 5401TIP3    H140398   1.274   0.509  11.102
 5401TIP3    H240399   1.239   0.609  10.994
 5402TIP3   OH240400   0.592   0.403  10.810
 5402TIP3    H140401   0.607   0.493  10.781
 5402TIP3    H240402   0.555   0.359  10.733
 5403TIP3   OH240403   1.346   0.437  10.636
 5403TIP3    H140404   1.396   0.416  10.715
 5403TIP3    H240405   1.406   0.487  10.582
 5404TIP3   OH240406   0.231   0.663  10.879
 5404TIP3    H140407   0.304   0.622  10.925
 5404TIP3    H240408   0.223   0.613  10.797
 5405TIP3   OH240409   0.734   0.808  10.835
 5405TIP3    H140410   0.817   0.769  10.863
 5405TIP3    H240411   0.694   0.741  10.778
 5406TIP3   OH240412   1.837   0.464  11.341
 5406TIP3    H140413   1.775   0.533  11.320
 5406TIP3    H240414   1.824   0.448  11.435
 5407TIP3   OH240415   0.446   0.328  11.228
 5407TIP3    H140416   0.413   0.381  11.156
 5407TIP3    H240417   0.384   0.342  11.299
 5408TIP3   OH240418   1.137   1.268  10.546
 5408TIP3    H140419   1.152   1.263  10.451
 5408TIP3    H240420   1.114   1.360  10.561
 5409TIP3   OH240421   0.726   1.055  11.219
 5409TIP3    H140422   0.666   1.122  11.251
 5409TIP3    H240423   0.790   1.104  11.166
 5410TIP3   OH240424   1.481   0.412  10.871
 5410TIP3    H140425   1.422   0.376  10.938
 5410TIP3    H240426   1.551   0.454  10.921
 5411TIP3   OH240427   0.411   0.491  11.003
 5411TIP3    H140428   0.470   0.545  11.055
 5411TIP3    H240429   0.467   0.452  10.936
 5412TIP3   OH240430   0.578   1.283  11.280
 5412TIP3    H140431   0.584   1.361  11.225
 5412TIP3    H240432   0.490   1.286  11.317
 5413TIP3   OH240433   0.107   1.224  10.379
 5413TIP3    H140434   0.102   1.253  10.288
 5413TIP3    H240435   0.130   1.303  10.428
 5414TIP3   OH240436   1.517   1.412  11.066
 5414TIP3    H140437   1.423   1.413  11.086
 5414TIP3    H240438   1.536   1.501  11.035
 5415TIP3   OH240439   1.563   0.211  11.220
 5415TIP3    H140440   1.482   0.222  11.171
 5415TIP3    H240441   1.633   0.225  11.156
 5416TIP3   OH240442   0.835   0.111  10.908
 5416TIP3    H140443   0.845   0.021  10.940
 5416TIP3    H240444   0.766   0.148  10.963
 5417TIP3   OH240445   1.321   1.564  10.721
 5417TIP3    H140446   1.345   1.477  10.691
 5417TIP3    H240447   1.401   1.616  10.712
 5418TIP3   OH240448   1.437   1.342  10.618
 5418TIP3    H140449   1.451   1.287  10.541
 5418TIP3    H240450   1.440   1.282  10.692
 5419TIP3   OH240451   1.613   1.225  11.440
 5419TIP3    H140452   1.606   1.164  11.367
 5419TIP3    H240453   1.626   1.311  11.399
 5420TIP3   OH240454   1.041   0.933  10.431
 5420TIP3    H140455   0.988   1.009  10.408
 5420TIP3    H240456   1.115   0.935  10.370
 5421TIP3   OH240457   1.101   0.759  10.119
 5421TIP3    H140458   1.148   0.817  10.180
 5421TIP3    H240459   1.171   0.716  10.069
 5422TIP3   OH240460   1.801   0.890  11.256
 5422TIP3    H140461   1.727   0.951  11.249
 5422TIP3    H240462   1.855   0.908  11.179
 5423TIP3   OH240463   1.421   0.929  10.506
 5423TIP3    H140464   1.352   0.955  10.567
 5423TIP3    H240465   1.482   0.879  10.560
 5424TIP3   OH240466   1.395   0.750  11.430
 5424TIP3    H140467   1.387   0.825  11.489
 5424TIP3    H240468   1.328   0.765  11.363
 5425TIP3   OH240469   0.572   0.993  10.696
 5425TIP3    H140470   0.521   0.948  10.628
 5425TIP3    H240471   0.628   0.924  10.732
 5426TIP3   OH240472   0.701   1.340  10.964
 5426TIP3    H140473   0.697   1.341  10.869
 5426TIP3    H240474   0.771   1.279  10.986
 5427TIP3   OH240475   0.585   0.891  11.048
 5427TIP3    H140476   0.644   0.874  10.975
 5427TIP3    H240477   0.637   0.945  11.109
 5428TIP3   OH240478   1.261   1.429  11.150
 5428TIP3    H140479   1.234   1.493  11.216
 5428TIP3    H240480   1.214   1.349  11.173
 5429TIP3   OH240481   0.706   1.334  11.519
 5429TIP3    H140482   0.640   1.391  11.560
 5429TIP3    H240483   0.668   1.309  11.435
 5430TIP3   OH240484   1.263   0.924  10.278
 5430TIP3    H140485   1.322   0.903  10.351
 5430TIP3    H240486   1.320   0.957  10.209
 5431TIP3   OH240487   0.448   0.969  11.417
 5431TIP3    H140488   0.451   1.037  11.485
 5431TIP3    H240489   0.357   0.939  11.419
 5432TIP3   OH240490   1.073   1.551  10.558
 5432TIP3    H140491   1.118   1.570  10.640
 5432TIP3    H240492   1.026   1.632  10.537
 5433TIP3   OH240493   0.515   1.509  11.622
 5433TIP3    H140494   0.511   1.541  11.532
 5433TIP3    H240495   0.425   1.483  11.642
 5434TIP3   OH240496   1.702   0.077  10.278
 5434TIP3    H140497   1.622   0.118  10.311
 5434TIP3    H240498   1.750   0.148  10.237
 5435TIP3   OH240499   0.415   0.890  10.489
 5435TIP3    H140500   0.389   0.961  10.431
 5435TIP3    H240501   0.416   0.812  10.433
 5436TIP3   OH240502   1.794   1.480  10.120
 5436TIP3    H140503   1.817   1.573  10.118
 5436TIP3    H240504   1.878   1.435  10.125
 5437TIP3   OH240505   0.160   1.148  11.365
 5437TIP3    H140506   0.068   1.153  11.339
 5437TIP3    H240507   0.174   1.054  11.381
 5438TIP3   OH240508   0.149   1.445  11.004
 5438TIP3    H140509   0.216   1.380  10.987
 5438TIP3    H240510   0.172   1.482  11.089
 5439TIP3   OH240511   1.879   1.504  11.615
 5439TIP3    H140512   1.871   1.410  11.596
 5439TIP3    H240513   1.792   1.530  11.646
 5440TIP3   OH240514   0.954   1.451  11.491
 5440TIP3    H140515   0.954   1.536  11.535
 5440TIP3    H240516   0.865   1.417  11.505
 5441TIP3   OH240517   1.012   1.794  10.439
 5441TIP3    H140518   1.012   1.813  10.345
 5441TIP3    H240519   1.008   1.880  10.481
 5442TIP3   OH240520   0.405   1.667  10.663
 5442TIP3    H140521   0.440   1.643  10.749
 5442TIP3    H240522   0.312   1.647  10.668
 5443TIP3   OH240523   1.299   1.773  10.189
 5443TIP3    H140524   1.348   1.704  10.144
 5443TIP3    H240525   1.313   1.756  10.282
 5444TIP3   OH240526   1.307   1.725  10.463
 5444TIP3    H140527   1.217   1.692  10.470
 5444TIP3    H240528   1.358   1.669  10.521
 5445TIP3   OH240529   1.538   0.622  11.641
 5445TIP3    H140530   1.488   0.667  11.573
 5445TIP3    H240531   1.556   0.536  11.603
 5446TIP3   OH240532   0.347   1.326  11.423
 5446TIP3    H140533   0.382   1.281  11.500
 5446TIP3    H240534   0.277   1.268  11.391
 5447TIP3   OH240535   0.599   0.186  11.038
 5447TIP3    H140536   0.543   0.219  10.968
 5447TIP3    H240537   0.568   0.232  11.116
 5448TIP3   OH240538   0.996   0.172  11.406
 5448TIP3    H140539   1.026   0.081  11.414
 5448TIP3    H240540   0.902   0.164  11.388
 5449TIP3   OH240541   1.324   0.471  11.470
 5449TIP3    H140542   1.266   0.466  11.546
 5449TIP3    H240543   1.330   0.564  11.450
 5450TIP3   OH240544   1.459   1.014  10.101
 5450TIP3    H140545   1.455   0.919  10.085
 5450TIP3    H240546   1.548   1.039  10.075
 5451TIP3   OH240547   0.977   0.340  10.103
 5451TIP3    H140548   0.936   0.315  10.186
 5451TIP3    H240549   0.903   0.355  10.044
 5452TIP3   OH240550   0.602   0.630  11.137
 5452TIP3    H140551   0.594   0.650  11.231
 5452TIP3    H240552   0.600   0.715  11.094
 5453TIP3   OH240553   0.598   0.639  10.671
 5453TIP3    H140554   0.502   0.635  10.665
 5453TIP3    H240555   0.629   0.611  10.585
 5454TIP3   OH240556   1.124   0.684  10.531
 5454TIP3    H140557   1.090   0.768  10.500
 5454TIP3    H240558   1.198   0.665  10.475
 5455TIP3   OH240559   1.066   0.722  11.718
 5455TIP3    H140560   0.989   0.683  11.675
 5455TIP3    H240561   1.132   0.652  11.715
 5456TIP3   OH240562   1.220   0.624  10.810
 5456TIP3    H140563   1.191   0.691  10.748
 5456TIP3    H240564   1.246   0.551  10.755
 5457TIP3   OH240565   0.316   0.634  11.285
 5457TIP3    H140566   0.398   0.662  11.327
 5457TIP3    H240567   0.290   0.555  11.333
 5458TIP3   OH240568   0.667   0.388  10.026
 5458TIP3    H140569   0.636   0.366  10.114
 5458TIP3    H240570   0.612   0.461   9.998
 5459TIP3   OH240571   0.096   0.421  10.767
 5459TIP3    H140572   0.124   0.392  10.853
 5459TIP3    H240573   0.154   0.375  10.706
 5460TIP3   OH240574   0.118   0.464  10.259
 5460TIP3    H140575   0.196   0.493  10.211
 5460TIP3    H240576   0.102   0.533  10.322
 5461TIP3   OH240577   1.167   0.781  11.266
 5461TIP3    H140578   1.206   0.729  11.196
 5461TIP3    H240579   1.112   0.720  11.314
 5462TIP3   OH240580   0.879   0.384  10.736
 5462TIP3    H140581   0.794   0.385  10.779
 5462TIP3    H240582   0.941   0.362  10.806
 5463TIP3   OH240583   0.343   0.549  10.626
 5463TIP3    H140584   0.270   0.565  10.566
 5463TIP3    H240585   0.385   0.470  10.592
 5464TIP3   OH240586   0.658   0.549  10.421
 5464TIP3    H140587   0.753   0.548  10.428
 5464TIP3    H240588   0.640   0.611  10.350
 5465TIP3   OH240589   1.295   0.318  11.052
 5465TIP3    H140590   1.253   0.314  11.138
 5465TIP3    H240591   1.225   0.296  10.990
 5466TIP3   OH240592   0.567   0.703  10.216
 5466TIP3    H140593   0.488   0.676  10.170
 5466TIP3    H240594   0.630   0.724  10.147
 5467TIP3   OH240595   1.624   1.869  11.702
 5467TIP3    H140596   1.646   1.906  11.616
 5467TIP3    H240597   1.696   1.897  11.758
 5468TIP3   OH240598   0.421   1.147  11.632
 5468TIP3    H140599   0.480   1.141  11.708
 5468TIP3    H240600   0.334   1.130  11.668
 5469TIP3   OH240601   0.956   0.668  10.925
 5469TIP3    H140602   1.029   0.623  10.883
 5469TIP3    H240603   0.930   0.610  10.997
 5470TIP3   OH240604   0.479   0.311  10.577
 5470TIP3    H140605   0.413   0.245  10.601
 5470TIP3    H240606   0.540   0.263  10.521
 5471TIP3   OH240607   0.861   0.520  11.151
 5471TIP3    H140608   0.785   0.577  11.146
 5471TIP3    H240609   0.918   0.561  11.216
 5472TIP3   OH240610   0.875   1.154  10.348
 5472TIP3    H140611   0.811   1.094  10.310
 5472TIP3    H240612   0.847   1.166  10.438
 5473TIP3   OH240613   1.596   1.070  11.213
 5473TIP3    H140614   1.651   1.125  11.157
 5473TIP3    H240615   1.521   1.048  11.158
 5474TIP3   OH240616   1.243   0.390  10.195
 5474TIP3    H140617   1.161   0.386  10.146
 5474TIP3    H240618   1.278   0.477  10.176
 5475TIP3   OH240619   1.023   1.178  11.467
 5475TIP3    H140620   0.970   1.126  11.527
 5475TIP3    H240621   0.992   1.268  11.479
 5476TIP3   OH240622   1.340   0.630  10.372
 5476TIP3    H140623   1.425   0.605  10.409
 5476TIP3    H240624   1.360   0.663  10.285
 5477TIP3   OH240625   0.407   1.060  10.905
 5477TIP3    H140626   0.463   1.047  10.828
 5477TIP3    H240627   0.439   0.996  10.968
 5478TIP3   OH240628   1.110   1.281  10.265
 5478TIP3    H140629   1.075   1.368  10.247
 5478TIP3    H240630   1.033   1.227  10.284
 5479TIP3   OH240631   0.188   0.890  11.468
 5479TIP3    H140632   0.199   0.865  11.560
 5479TIP3    H240633   0.097   0.868  11.449
 5480TIP3   OH240634   0.837   0.914  11.688
 5480TIP3    H140635   0.787   0.843  11.647
 5480TIP3    H240636   0.928   0.885  11.683
 5481TIP3   OH240637   1.250   1.421  11.482
 5481TIP3    H140638   1.158   1.425  11.459
 5481TIP3    H240639   1.252   1.433  11.577
 5482TIP3   OH240640   1.804   0.644  10.336
 5482TIP3    H140641   1.771   0.611  10.253
 5482TIP3    H240642   1.823   0.737  10.319
 5483TIP3   OH240643   1.857   1.225  11.567
 5483TIP3    H140644   1.764   1.218  11.544
 5483TIP3    H240645   1.904   1.204  11.487
 5484TIP3   OH240646   1.655   1.464  10.362
 5484TIP3    H140647   1.590   1.394  10.374
 5484TIP3    H240648   1.684   1.453  10.271
 5485TIP3   OH240649   1.377   0.982  11.029
 5485TIP3    H140650   1.283   0.969  11.015
 5485TIP3    H240651   1.419   0.907  10.986
 5486TIP3   OH240652   0.640   1.402  10.693
 5486TIP3    H140653   0.669   1.484  10.653
 5486TIP3    H240654   0.549   1.393  10.667
 5487TIP3   OH240655   0.218   0.875  10.165
 5487TIP3    H140656   0.270   0.946  10.202
 5487TIP3    H240657   0.128   0.906  10.169
 5488TIP3   OH240658   0.755   1.172  10.590
 5488TIP3    H140659   0.729   1.256  10.629
 5488TIP3    H240660   0.696   1.108  10.630
 5489TIP3   OH240661   0.845   1.595  11.270
 5489TIP3    H140662   0.905   1.663  11.241
 5489TIP3    H240663   0.897   1.540  11.329
 5490TIP3   OH240664   0.663   1.657  10.572
 5490TIP3    H140665   0.570   1.670  10.589
 5490TIP3    H240666   0.705   1.738  10.601
 5491TIP3   OH240667   1.139   1.188  11.220
 5491TIP3    H140668   1.102   1.174  11.308
 5491TIP3    H240669   1.191   1.110  11.203
 5492TIP3   OH240670   1.358   1.293  10.134
 5492TIP3    H140671   1.393   1.204  10.132
 5492TIP3    H240672   1.275   1.286  10.181
 5493TIP3   OH240673   1.454   1.620  11.456
 5493TIP3    H140674   1.375   1.567  11.444
 5493TIP3    H240675   1.446   1.690  11.391
 5494TIP3   OH240676   1.868   1.747  10.160
 5494TIP3    H140677   1.934   1.814  10.178
 5494TIP3    H240678   1.785   1.786  10.188
 5495TIP3   OH240679   0.263   0.398  11.429
 5495TIP3    H140680   0.213   0.436  11.502
 5495TIP3    H240681   0.223   0.312  11.415
 5496TIP3   OH240682   1.509   1.179  10.402
 5496TIP3    H140683   1.460   1.098  10.416
 5496TIP3    H240684   1.599   1.151  10.386
 5497TIP3   OH240685   0.245   1.548  11.246
 5497TIP3    H140686   0.293   1.476  11.289
 5497TIP3    H240687   0.219   1.605  11.319
 5498TIP3   OH240688   0.683   1.347  10.232
 5498TIP3    H140689   0.756   1.298  10.271
 5498TIP3    H240690   0.700   1.438  10.257
 5499TIP3   OH240691   0.334   1.083  10.305
 5499TIP3    H140692   0.258   1.126  10.344
 5499TIP3    H240693   0.381   1.153  10.260
 5500TIP3   OH240694   1.175   0.334  11.289
 5500TIP3    H140695   1.231   0.367  11.359
 5500TIP3    H240696   1.113   0.275  11.334
 5501TIP3   OH240697   1.216   0.283  10.444
 5501TIP3    H140698   1.219   0.324  10.358
 5501TIP3    H240699   1.250   0.350  10.504
 5502TIP3   OH240700   0.987   1.528  10.243
 5502TIP3    H140701   0.895   1.543  10.265
 5502TIP3    H240702   1.036   1.581  10.306
 5503TIP3   OH240703   0.919   0.503  10.490
 5503TIP3    H140704   0.993   0.564  10.496
 5503TIP3    H240705   0.907   0.472  10.580
 5504TIP3   OH240706   1.021   0.582  11.377
 5504TIP3    H140707   0.950   0.587  11.440
 5504TIP3    H240708   1.045   0.490  11.374
 5505TIP3   OH240709   0.989   0.184  10.557
 5505TIP3    H140710   0.974   0.253  10.621
 5505TIP3    H240711   1.072   0.208  10.516
 5506TIP3   OH240712   0.731   1.605  10.311
 5506TIP3    H140713   0.732   1.692  10.271
 5506TIP3    H240714   0.709   1.621  10.403
 5507TIP3   OH240715   0.579   0.321  10.282
 5507TIP3    H140716   0.575   0.400  10.337
 5507TIP3    H240717   0.667   0.286  10.297
 5508TIP3   OH240718   1.585   0.396  11.490
 5508TIP3    H140719   1.490   0.404  11.478
 5508TIP3    H240720   1.614   0.344  11.415
 5509TIP3   OH240721   1.468   0.744  10.910
 5509TIP3    H140722   1.387   0.696  10.891
 5509TIP3    H240723   1.521   0.682  10.960
 5510TIP3   OH240724   0.417   1.307  10.150
 5510TIP3    H140725   0.489   1.352  10.194
 5510TIP3    H240726   0.460   1.249  10.087
 5511TIP3   OH240727   0.312   0.625  10.114
 5511TIP3    H140728   0.280   0.712  10.138
 5511TIP3    H240729   0.268   0.606  10.031
 5512TIP3   OH240730   1.592   1.687  11.057
 5512TIP3    H140731   1.579   1.754  10.990
 5512TIP3    H240732   1.687   1.681  11.067
 5513TIP3   OH240733   0.340   0.177  10.919
 5513TIP3    H140734   0.322   0.181  10.826
 5513TIP3    H240735   0.327   0.085  10.942
 5514TIP3   OH240736   0.183   1.471  10.484
 5514TIP3    H140737   0.135   1.526  10.546
 5514TIP3    H240738   0.240   1.532  10.437
 5515TIP3   OH240739   0.153   1.764  11.702
 5515TIP3    H140740   0.210   1.755  11.778
 5515TIP3    H240741   0.130   1.674  11.678
 5516TIP3   OH240742   0.634   1.618  11.853
 5516TIP3    H140743   0.712   1.563  11.852
 5516TIP3    H240744   0.586   1.591  11.774
 5517TIP3   OH240745   0.997   1.554  19.936
 5517TIP3    H140746   0.968   1.466  19.912
 5517TIP3    H240747   1.076   1.540  19.987
 5518TIP3   OH240748   1.249   1.460  11.758
 5518TIP3    H140749   1.230   1.376  11.801
 5518TIP3    H240750   1.322   1.497  11.807
 5519TIP3   OH240751   1.435   1.555  10.087
 5519TIP3    H140752   1.400   1.468  10.107
 5519TIP3    H240753   1.518   1.538  10.043
 5520TIP3   OH240754   0.201   1.146  11.805
 5520TIP3    H140755   0.227   1.070  11.857
 5520TIP3    H240756   0.111   1.127  11.779
 5521TIP3   OH240757   0.594   1.136  10.032
 5521TIP3    H140758   0.622   1.077  10.103
 5521TIP3    H240759   0.661   1.205  10.031
 5522TIP3   OH240760   0.799   1.181  11.725
 5522TIP3    H140761   0.762   1.216  11.644
 5522TIP3    H240762   0.809   1.087  11.708
 5523TIP3   OH240763   1.356   1.144  11.510
 5523TIP3    H140764   1.440   1.182  11.485
 5523TIP3    H240765   1.292   1.209  11.484
 5524TIP3   OH240766   0.267   0.829  11.740
 5524TIP3    H140767   0.343   0.772  11.753
 5524TIP3    H240768   0.243   0.858  11.829
 5525TIP3   OH240769   0.697   0.975  10.236
 5525TIP3    H140770   0.641   0.922  10.294
 5525TIP3    H240771   0.747   0.910  10.187
 5526TIP3   OH240772   0.560   0.720  11.390
 5526TIP3    H140773   0.541   0.813  11.403
 5526TIP3    H240774   0.637   0.703  11.445
 5527TIP3   OH240775   0.822   0.775  10.088
 5527TIP3    H140776   0.829   0.754   9.995
 5527TIP3    H240777   0.912   0.772  10.121
 5528TIP3   OH240778   1.157   1.000  11.787
 5528TIP3    H140779   1.223   0.973  11.722
 5528TIP3    H240780   1.118   0.917  11.816
 5529TIP3   OH240781   1.702   1.007  20.020
 5529TIP3    H140782   1.758   0.956  19.962
 5529TIP3    H240783   1.740   1.095  20.019
 5530TIP3   OH240784   0.582   0.405  11.609
 5530TIP3    H140785   0.590   0.356  11.528
 5530TIP3    H240786   0.649   0.474  11.602
 5531TIP3   OH240787   0.705   0.348  11.316
 5531TIP3    H140788   0.763   0.402  11.262
 5531TIP3    H240789   0.617   0.367  11.283
 5532TIP3   OH240790   0.853   0.809  11.226
 5532TIP3    H140791   0.926   0.819  11.287
 5532TIP3    H240792   0.803   0.891  11.234
 5533TIP3   OH240793   1.338   0.650  11.852
 5533TIP3    H140794   1.327   0.565  11.896
 5533TIP3    H240795   1.409   0.636  11.790
 5534TIP3   OH240796   1.434   0.943  11.669
 5534TIP3    H140797   1.403   1.016  11.616
 5534TIP3    H240798   1.529   0.939  11.652
 5535TIP3   OH240799   0.453   0.625  11.781
 5535TIP3    H140800   0.415   0.537  11.787
 5535TIP3    H240801   0.515   0.619  11.708
 5536TIP3   OH240802   0.713   0.086  11.373
 5536TIP3    H140803   0.717   0.179  11.350
 5536TIP3    H240804   0.621   0.064  11.367
 5537TIP3   OH240805   0.889   0.418  11.801
 5537TIP3    H140806   0.826   0.461  11.859
 5537TIP3    H240807   0.875   0.460  11.716
 5538TIP3   OH240808   1.162   0.438  11.686
 5538TIP3    H140809   1.078   0.403  11.718
 5538TIP3    H240810   1.228   0.384  11.729
 5539TIP3   OH240811   1.368   0.304  11.824
 5539TIP3    H140812   1.343   0.211  11.818
 5539TIP3    H240813   1.330   0.333  11.906
 5540TIP3   OH240814   0.361   0.363  11.777
 5540TIP3    H140815   0.419   0.363  11.701
 5540TIP3    H240816   0.360   0.272  11.807
 5541TIP3   OH240817   0.803   0.033  11.640
 5541TIP3    H140818   0.777  -0.059  11.642
 5541TIP3    H240819   0.781   0.063  11.551
 5542TIP3   OH240820   0.757   0.176  11.862
 5542TIP3    H140821   0.780   0.110  11.796
 5542TIP3    H240822   0.807   0.254  11.837
 5543TIP3   OH240823   0.755   1.847  10.179
 5543TIP3    H140824   0.850   1.842  10.170
 5543TIP3    H240825   0.731   1.925  10.129
 5544TIP3   OH240826   0.143   1.292  10.115
 5544TIP3    H140827   0.234   1.317  10.129
 5544TIP3    H240828   0.142   1.253  10.028
 5545TIP3   OH240829   0.091   1.785  10.580
 5545TIP3    H140830   0.002   1.820  10.585
 5545TIP3    H240831   0.101   1.735  10.661
 5546TIP3   OH240832   0.162   1.639  10.800
 5546TIP3    H140833   0.138   1.556  10.841
 5546TIP3    H240834   0.191   1.694  10.873
 5547TIP3   OH240835   1.862   1.701  11.111
 5547TIP3    H140836   1.861   1.714  11.206
 5547TIP3    H240837   1.931   1.760  11.079
 5548TIP3   OH240838   1.800   1.679  11.388
 5548TIP3    H140839   1.746   1.610  11.350
 5548TIP3    H240840   1.854   1.634  11.453
 5549TIP3   OH240841   1.661   1.291  11.860
 5549TIP3    H140842   1.605   1.336  11.796
 5549TIP3    H240843   1.706   1.361  11.906
 5550TIP3   OH240844   1.774   1.091  10.387
 5550TIP3    H140845   1.848   1.152  10.399
 5550TIP3    H240846   1.779   1.032  10.462
 5551TIP3   OH240847   1.813   0.912  10.592
 5551TIP3    H140848   1.732   0.872  10.622
 5551TIP3    H240849   1.863   0.928  10.672
 5552TIP3   OH240850   1.802   1.198  11.084
 5552TIP3    H140851   1.857   1.131  11.046
 5552TIP3    H240852   1.826   1.279  11.038
 5553TIP3   OH240853   1.638   1.467  11.311
 5553TIP3    H140854   1.562   1.512  11.349
 5553TIP3    H240855   1.609   1.442  11.223
 5554TIP3   OH240856   1.850   0.898  10.207
 5554TIP3    H140857   1.776   0.882  10.149
 5554TIP3    H240858   1.821   0.969  10.265
 5555TIP3   OH240859   1.732   0.568  10.086
 5555TIP3    H140860   1.651   0.620  10.083
 5555TIP3    H240861   1.712   0.490  10.034
 5556TIP3   OH240862   1.591   0.773  10.666
 5556TIP3    H140863   1.581   0.687  10.627
 5556TIP3    H240864   1.552   0.765  10.753
 5557TIP3   OH240865   0.146   1.078  11.050
 5557TIP3    H140866   0.174   1.058  10.961
 5557TIP3    H240867   0.204   1.026  11.106
 5558TIP3   OH240868   1.710   0.947  11.621
 5558TIP3    H140869   1.746   0.861  11.643
 5558TIP3    H240870   1.765   0.978  11.549
 5559TIP3   OH240871   1.788   0.705  11.709
 5559TIP3    H140872   1.704   0.666  11.684
 5559TIP3    H240873   1.852   0.638  11.688
 5560TIP3   OH240874   1.616   0.332   9.989
 5560TIP3    H140875   1.668   0.289  10.056
 5560TIP3    H240876   1.529   0.343  10.029
 5561TIP3   OH240877   1.578   0.551  10.497
 5561TIP3    H140878   1.609   0.461  10.504
 5561TIP3    H240879   1.642   0.594  10.440
 5562TIP3   OH240880   1.636   0.571  11.045
 5562TIP3    H140881   1.728   0.592  11.029
 5562TIP3    H240882   1.624   0.589  11.138
 5563TIP3   OH240883   1.648   0.665  11.307
 5563TIP3    H140884   1.565   0.696  11.344
 5563TIP3    H240885   1.698   0.745  11.291
 5564TIP3   OH240886   0.137   0.488  11.665
 5564TIP3    H140887   0.169   0.574  11.695
 5564TIP3    H240888   0.191   0.425  11.712
 5565TIP3   OH240889   1.934   0.132  11.845
 5565TIP3    H140890   2.015   0.115  11.798
 5565TIP3    H240891   1.877   0.175  11.781
 5566TIP3   OH240892   1.660   0.292  10.510
 5566TIP3    H140893   1.670   0.247  10.594
 5566TIP3    H240894   1.587   0.247  10.467
 5567TIP3   OH240895   0.165   0.351  11.031
 5567TIP3    H140896   0.228   0.284  11.003
 5567TIP3    H240897   0.218   0.430  11.042
 5568TIP3   OH240898   0.067   0.686  11.106
 5568TIP3    H140899   0.126   0.688  11.030
 5568TIP3    H240900   0.125   0.691  11.181
 5569TIP3   OH240901   1.788   0.275  11.667
 5569TIP3    H140902   1.713   0.324  11.701
 5569TIP3    H240903   1.753   0.232  11.588
 5570TIP3   OH240904   1.844   0.267  10.144
 5570TIP3    H140905   1.901   0.241  10.072
 5570TIP3    H240906   1.891   0.338  10.187
 5571TIP3   OH240907   0.126   0.295  10.483
 5571TIP3    H140908   0.030   0.296  10.488
 5571TIP3    H240909   0.147   0.361  10.417
 5572TIP3   OH240910   1.529   1.728  10.663
 5572TIP3    H140911   1.601   1.716  10.601
 5572TIP3    H240912   1.568   1.777  10.735
 5573TIP3   OH240913   0.116   0.214  11.270
 5573TIP3    H140914   0.022   0.208  11.287
 5573TIP3    H240915   0.124   0.270  11.194
 5574TIP3   OH240916   0.257   1.418  11.692
 5574TIP3    H140917   0.210   1.394  11.612
 5574TIP3    H240918   0.246   1.341  11.749
 5575TIP3   OH240919   0.579   1.584  11.356
 5575TIP3    H140920   0.551   1.667  11.317
 5575TIP3    H240921   0.673   1.579  11.336
 5576TIP3   OH240922   0.963   1.699  11.615
 5576TIP3    H140923   0.979   1.678  11.707
 5576TIP3    H240924   1.040   1.749  11.588
 5577TIP3   OH240925   1.199   1.832  11.566
 5577TIP3    H140926   1.259   1.779  11.514
 5577TIP3    H240927   1.248   1.855  11.645
 5578TIP3   OH240928   1.711   0.133  11.438
 5578TIP3    H140929   1.651   0.152  11.366
 5578TIP3    H240930   1.701   0.039  11.454
 5579TIP3   OH240931   0.309   1.874  11.358
 5579TIP3    H140932   0.230   1.910  11.318
 5579TIP3    H240933   0.302   1.895  11.451
 5580TIP3   OH240934   0.556   1.836  11.244
 5580TIP3    H140935   0.467   1.852  11.275
 5580TIP3    H240936   0.561   1.884  11.161
 5581TIP3   OH240937   1.008   1.793  11.156
 5581TIP3    H140938   0.960   1.830  11.081
 5581TIP3    H240939   1.020   1.868  11.215
 5582TIP3   OH240940   1.218   1.673  11.288
 5582TIP3    H140941   1.143   1.707  11.239
 5582TIP3    H240942   1.291   1.730  11.262
 5583TIP3   OH240943   1.455   1.817  11.257
 5583TIP3    H140944   1.466   1.910  11.236
 5583TIP3    H240945   1.500   1.771  11.186
 5584TIP3   OH240946   0.281   1.738  11.034
 5584TIP3    H140947   0.260   1.692  11.116
 5584TIP3    H240948   0.354   1.688  10.997
 5585TIP3   OH240949   0.475   1.591  10.914
 5585TIP3    H140950   0.453   1.500  10.932
 5585TIP3    H240951   0.564   1.602  10.948
 5586TIP3   OH240952   0.731   1.613  11.018
 5586TIP3    H140953   0.736   1.520  10.992
 5586TIP3    H240954   0.759   1.613  11.109
 5587TIP3   OH240955   1.073   0.257  10.889
 5587TIP3    H140956   1.002   0.195  10.901
 5587TIP3    H240957   1.140   0.208  10.840
 5588TIP3   OH240958   1.538   0.115  10.919
 5588TIP3    H140959   1.608   0.145  10.860
 5588TIP3    H240960   1.459   0.157  10.885
 5589TIP3   OH240961   1.737   0.155  10.734
 5589TIP3    H140962   1.801   0.086  10.712
 5589TIP3    H240963   1.791   0.232  10.753
 5590TIP3   OH240964   0.274   0.152  10.658
 5590TIP3    H140965   0.214   0.187  10.593
 5590TIP3    H240966   0.275   0.058  10.641
 5591TIP3   OH240967   0.138   0.119  10.262
 5591TIP3    H140968   0.213   0.158  10.216
 5591TIP3    H240969   0.126   0.174  10.339
 5592TIP3   OH240970   0.741   0.107  10.644
 5592TIP3    H140971   0.820   0.133  10.597
 5592TIP3    H240972   0.761   0.124  10.736
 5593TIP3   OH240973   1.285   0.134  10.767
 5593TIP3    H140974   1.307   0.158  10.677
 5593TIP3    H240975   1.287   0.038  10.767
 5594TIP3   OH240976   1.458   0.153  10.394
 5594TIP3    H140977   1.371   0.193  10.393
 5594TIP3    H240978   1.442   0.059  10.394
 5595TIP3   OH240979   0.215   1.711  10.289
 5595TIP3    H140980   0.136   1.681  10.335
 5595TIP3    H240981   0.194   1.801  10.261
 5596TIP3   OH240982   0.365   0.217  10.140
 5596TIP3    H140983   0.411   0.195  10.059
 5596TIP3    H240984   0.432   0.253  10.197
 5597TIP3   OH240985   0.844   0.283  10.343
 5597TIP3    H140986   0.887   0.218  10.399
 5597TIP3    H240987   0.868   0.367  10.381
 5598TIP3   OH240988   1.030   1.805  10.156
 5598TIP3    H140989   1.125   1.817  10.159
 5598TIP3    H240990   1.018   1.720  10.113
 5599TIP3   OH240991   1.728   1.703  10.470
 5599TIP3    H140992   1.704   1.617  10.438
 5599TIP3    H240993   1.709   1.762  10.397
 5600TIP3   OH240994   0.262   0.115  11.616
 5600TIP3    H140995   0.239   0.023  11.607
 5600TIP3    H240996   0.345   0.115  11.664
 5601TIP3   OH240997   0.488   0.112  11.784
 5601TIP3    H140998   0.577   0.131  11.815
 5601TIP3    H240999   0.489   0.019  11.763
 5602TIP3   OH241000   0.450   1.819  10.138
 5602TIP3    H141001   0.391   1.755  10.178
 5602TIP3    H241002   0.538   1.782  10.153
 5603TIP3   OH241003   1.312   0.044  11.792
 5603TIP3    H141004   1.268  -0.034  11.824
 5603TIP3    H241005   1.383   0.011  11.737
 5604TIP3   OH241006   1.620   1.594  11.678
 5604TIP3    H141007   1.564   1.586  11.601
 5604TIP3    H241008   1.630   1.688  11.692
 5605TIP3   OH241009   3.096   1.002  10.663
 5605TIP3    H141010   3.084   1.097  10.666
 5605TIP3    H241011   3.032   0.971  10.600
 5606TIP3   OH241012   2.961   0.914  11.032
 5606TIP3    H141013   2.983   0.871  11.115
 5606TIP3    H241014   2.921   0.845  10.979
 5607TIP3   OH241015   2.185   0.857  11.162
 5607TIP3    H141016   2.194   0.779  11.216
 5607TIP3    H241017   2.275   0.885  11.145
 5608TIP3   OH241018   3.324   1.215  10.862
 5608TIP3    H141019   3.300   1.136  10.911
 5608TIP3    H241020   3.357   1.276  10.929
 5609TIP3   OH241021   2.324   1.334  10.979
 5609TIP3    H141022   2.289   1.247  10.956
 5609TIP3    H241023   2.418   1.320  10.988
 5610TIP3   OH241024   1.964   0.656  10.564
 5610TIP3    H141025   1.935   0.741  10.599
 5610TIP3    H241026   1.902   0.638  10.493
 5611TIP3   OH241027   2.012   0.911  10.788
 5611TIP3    H141028   2.048   0.827  10.814
 5611TIP3    H241029   2.089   0.964  10.764
 5612TIP3   OH241030   3.067   1.728  10.877
 5612TIP3    H141031   3.111   1.662  10.824
 5612TIP3    H241032   3.022   1.678  10.945
 5613TIP3   OH241033   2.811   1.162  11.051
 5613TIP3    H141034   2.846   1.081  11.015
 5613TIP3    H241035   2.880   1.195  11.108
 5614TIP3   OH241036   3.687   0.298  11.096
 5614TIP3    H141037   3.678   0.362  11.167
 5614TIP3    H241038   3.756   0.334  11.040
 5615TIP3   OH241039   3.149   0.595  11.082
 5615TIP3    H141040   3.173   0.505  11.105
 5615TIP3    H241041   3.123   0.590  10.990
 5616TIP3   OH241042   2.472   0.394  10.785
 5616TIP3    H141043   2.485   0.481  10.748
 5616TIP3    H241044   2.428   0.344  10.716
 5617TIP3   OH241045   3.242   0.441  10.637
 5617TIP3    H141046   3.288   0.414  10.716
 5617TIP3    H241047   3.307   0.490  10.586
 5618TIP3   OH241048   2.124   0.674  10.868
 5618TIP3    H141049   2.193   0.641  10.926
 5618TIP3    H241050   2.143   0.634  10.784
 5619TIP3   OH241051   2.602   0.796  10.841
 5619TIP3    H141052   2.688   0.759  10.864
 5619TIP3    H241053   2.565   0.732  10.780
 5620TIP3   OH241054   3.689   0.449  11.328
 5620TIP3    H141055   3.638   0.531  11.326
 5620TIP3    H241056   3.749   0.460  11.401
 5621TIP3   OH241057   2.338   0.336  11.208
 5621TIP3    H141058   2.308   0.389  11.135
 5621TIP3    H241059   2.265   0.338  11.271
 5622TIP3   OH241060   3.043   1.259  10.549
 5622TIP3    H141061   3.034   1.256  10.454
 5622TIP3    H241062   2.999   1.340  10.576
 5623TIP3   OH241063   2.589   1.079  11.193
 5623TIP3    H141064   2.535   1.151  11.226
 5623TIP3    H241065   2.660   1.122  11.147
 5624TIP3   OH241066   3.376   0.404  10.871
 5624TIP3    H141067   3.322   0.368  10.941
 5624TIP3    H241068   3.449   0.447  10.916
 5625TIP3   OH241069   2.314   0.503  10.985
 5625TIP3    H141070   2.380   0.549  11.037
 5625TIP3    H241071   2.363   0.461  10.914
 5626TIP3   OH241072   2.438   1.291  11.286
 5626TIP3    H141073   2.432   1.378  11.248
 5626TIP3    H241074   2.353   1.278  11.329
 5627TIP3   OH241075   2.012   1.243  10.399
 5627TIP3    H141076   2.005   1.290  10.315
 5627TIP3    H241077   2.037   1.311  10.462
 5628TIP3   OH241078   3.382   1.430  11.054
 5628TIP3    H141079   3.290   1.435  11.081
 5628TIP3    H241080   3.405   1.519  11.029
 5629TIP3   OH241081   3.431   0.206  11.211
 5629TIP3    H141082   3.357   0.226  11.153
 5629TIP3    H241083   3.508   0.213  11.155
 5630TIP3   OH241084   2.729   0.105  10.916
 5630TIP3    H141085   2.734   0.013  10.942
 5630TIP3    H241086   2.657   0.140  10.968
 5631TIP3   OH241087   3.207   1.573  10.694
 5631TIP3    H141088   3.240   1.485  10.676
 5631TIP3    H241089   3.285   1.628  10.698
 5632TIP3   OH241090   3.326   1.338  10.617
 5632TIP3    H141091   3.275   1.282  10.558
 5632TIP3    H241092   3.332   1.289  10.698
 5633TIP3   OH241093   3.500   1.234  11.434
 5633TIP3    H141094   3.500   1.170  11.364
 5633TIP3    H241095   3.519   1.317  11.391
 5634TIP3   OH241096   2.961   0.931  10.429
 5634TIP3    H141097   2.894   0.996  10.411
 5634TIP3    H241098   3.020   0.935  10.354
 5635TIP3   OH241099   2.983   0.766  10.125
 5635TIP3    H141100   3.055   0.806  10.174
 5635TIP3    H241101   3.016   0.679  10.101
 5636TIP3   OH241102   3.676   0.883  11.250
 5636TIP3    H141103   3.608   0.950  11.247
 5636TIP3    H241104   3.731   0.899  11.173
 5637TIP3   OH241105   3.314   0.939  10.512
 5637TIP3    H141106   3.245   0.960  10.575
 5637TIP3    H241107   3.378   0.889  10.562
 5638TIP3   OH241108   3.272   0.746  11.426
 5638TIP3    H141109   3.271   0.815  11.492
 5638TIP3    H241110   3.203   0.770  11.364
 5639TIP3   OH241111   2.459   0.993  10.696
 5639TIP3    H141112   2.429   0.956  10.613
 5639TIP3    H241113   2.512   0.923  10.735
 5640TIP3   OH241114   2.605   1.337  10.956
 5640TIP3    H141115   2.601   1.338  10.861
 5640TIP3    H241116   2.677   1.278  10.977
 5641TIP3   OH241117   2.451   0.888  11.055
 5641TIP3    H141118   2.506   0.864  10.980
 5641TIP3    H241119   2.503   0.953  11.102
 5642TIP3   OH241120   3.131   1.442  11.168
 5642TIP3    H141121   3.125   1.472  11.259
 5642TIP3    H241122   3.095   1.353  11.171
 5643TIP3   OH241123   2.599   1.318  11.511
 5643TIP3    H141124   2.537   1.370  11.563
 5643TIP3    H241125   2.551   1.298  11.431
 5644TIP3   OH241126   3.200   0.876  10.271
 5644TIP3    H141127   3.237   0.900  10.356
 5644TIP3    H241128   3.260   0.912  10.207
 5645TIP3   OH241129   2.288   0.943  11.458
 5645TIP3    H141130   2.291   1.016  11.521
 5645TIP3    H241131   2.194   0.930  11.442
 5646TIP3   OH241132   2.948   1.523  10.586
 5646TIP3    H141133   3.024   1.552  10.636
 5646TIP3    H241134   2.917   1.601  10.540
 5647TIP3   OH241135   2.408   1.492  11.612
 5647TIP3    H141136   2.406   1.527  11.523
 5647TIP3    H241137   2.316   1.478  11.634
 5648TIP3   OH241138   3.596   0.096  10.263
 5648TIP3    H141139   3.515   0.131  10.300
 5648TIP3    H241140   3.637   0.171  10.220
 5649TIP3   OH241141   2.364   0.902  10.447
 5649TIP3    H141142   2.313   0.968  10.399
 5649TIP3    H241143   2.319   0.819  10.427
 5650TIP3   OH241144   3.675   1.465  10.119
 5650TIP3    H141145   3.697   1.559  10.117
 5650TIP3    H241146   3.760   1.421  10.119
 5651TIP3   OH241147   1.981   1.145  11.337
 5651TIP3    H141148   1.942   1.144  11.249
 5651TIP3    H241149   1.994   1.052  11.358
 5652TIP3   OH241150   1.949   1.434  11.009
 5652TIP3    H141151   2.037   1.413  11.040
 5652TIP3    H241152   1.920   1.506  11.065
 5653TIP3   OH241153   3.743   1.531  11.599
 5653TIP3    H141154   3.755   1.437  11.594
 5653TIP3    H241155   3.656   1.543  11.636
 5654TIP3   OH241156   2.843   1.436  11.489
 5654TIP3    H141157   2.841   1.519  11.538
 5654TIP3    H241158   2.757   1.397  11.503
 5655TIP3   OH241159   2.916   1.786  10.449
 5655TIP3    H141160   2.894   1.795  10.356
 5655TIP3    H241161   2.890   1.869  10.488
 5656TIP3   OH241162   2.266   1.669  10.659
 5656TIP3    H141163   2.291   1.640  10.747
 5656TIP3    H241164   2.205   1.603  10.628
 5657TIP3   OH241165   3.186   1.774  10.186
 5657TIP3    H141166   3.228   1.702  10.138
 5657TIP3    H241167   3.203   1.755  10.278
 5658TIP3   OH241168   3.184   1.731  10.459
 5658TIP3    H141169   3.089   1.742  10.459
 5658TIP3    H241170   3.199   1.660  10.522
 5659TIP3   OH241171   3.435   0.609  11.623
 5659TIP3    H141172   3.379   0.644  11.554
 5659TIP3    H241173   3.444   0.516  11.601
 5660TIP3   OH241174   2.197   1.295  11.418
 5660TIP3    H141175   2.218   1.263  11.505
 5660TIP3    H241176   2.122   1.242  11.390
 5661TIP3   OH241177   2.490   0.198  11.021
 5661TIP3    H141178   2.450   0.236  10.943
 5661TIP3    H241179   2.443   0.240  11.094
 5662TIP3   OH241180   2.867   0.167  11.412
 5662TIP3    H141181   2.915   0.084  11.413
 5662TIP3    H241182   2.788   0.148  11.362
 5663TIP3   OH241183   3.214   0.471  11.423
 5663TIP3    H141184   3.172   0.452  11.507
 5663TIP3    H241185   3.230   0.565  11.424
 5664TIP3   OH241186   3.373   0.982  10.087
 5664TIP3    H141187   3.323   1.016  10.013
 5664TIP3    H241188   3.408   1.060  10.130
 5665TIP3   OH241189   2.855   0.369  10.102
 5665TIP3    H141190   2.815   0.336  10.182
 5665TIP3    H241191   2.782   0.375  10.040
 5666TIP3   OH241192   2.477   0.634  11.160
 5666TIP3    H141193   2.411   0.632  11.230
 5666TIP3    H241194   2.475   0.724  11.128
 5667TIP3   OH241195   2.468   0.639  10.662
 5667TIP3    H141196   2.374   0.627  10.653
 5667TIP3    H241197   2.503   0.622  10.574
 5668TIP3   OH241198   3.036   0.680  10.527
 5668TIP3    H141199   3.008   0.767  10.497
 5668TIP3    H241200   3.099   0.652  10.461
 5669TIP3   OH241201   2.916   0.689  11.655
 5669TIP3    H141202   2.872   0.615  11.695
 5669TIP3    H241203   3.002   0.692  11.697
 5670TIP3   OH241204   3.099   0.617  10.810
 5670TIP3    H141205   3.082   0.685  10.744
 5670TIP3    H241206   3.131   0.543  10.759
 5671TIP3   OH241207   2.239   0.631  11.317
 5671TIP3    H141208   2.282   0.658  11.398
 5671TIP3    H241209   2.194   0.549  11.340
 5672TIP3   OH241210   2.548   0.406  10.012
 5672TIP3    H141211   2.520   0.390  10.102
 5672TIP3    H241212   2.467   0.412   9.962
 5673TIP3   OH241213   1.901   0.367  10.759
 5673TIP3    H141214   1.961   0.390  10.829
 5673TIP3    H241215   1.952   0.379  10.679
 5674TIP3   OH241216   1.998   0.447  10.296
 5674TIP3    H141217   2.065   0.488  10.241
 5674TIP3    H241218   1.937   0.518  10.316
 5675TIP3   OH241219   3.034   0.767  11.257
 5675TIP3    H141220   3.079   0.707  11.197
 5675TIP3    H241221   2.975   0.710  11.307
 5676TIP3   OH241222   2.759   0.391  10.733
 5676TIP3    H141223   2.671   0.380  10.768
 5676TIP3    H241224   2.817   0.367  10.805
 5677TIP3   OH241225   2.208   0.555  10.634
 5677TIP3    H141226   2.125   0.579  10.592
 5677TIP3    H241227   2.231   0.470  10.596
 5678TIP3   OH241228   2.557   0.574  10.414
 5678TIP3    H141229   2.652   0.571  10.419
 5678TIP3    H241230   2.538   0.622  10.334
 5679TIP3   OH241231   3.189   0.309  11.053
 5679TIP3    H141232   3.139   0.308  11.135
 5679TIP3    H241233   3.126   0.286  10.986
 5680TIP3   OH241234   2.463   0.690  10.188
 5680TIP3    H141235   2.386   0.680  10.133
 5680TIP3    H241236   2.534   0.711  10.127
 5681TIP3   OH241237   3.489   1.864  11.726
 5681TIP3    H141238   3.516   1.899  11.641
 5681TIP3    H241239   3.563   1.884  11.784
 5682TIP3   OH241240   2.262   1.141  11.658
 5682TIP3    H141241   2.330   1.132  11.724
 5682TIP3    H241242   2.180   1.136  11.706
 5683TIP3   OH241243   2.840   0.671  10.930
 5683TIP3    H141244   2.917   0.632  10.888
 5683TIP3    H241245   2.816   0.608  10.997
 5684TIP3   OH241246   2.323   0.306  10.567
 5684TIP3    H141247   2.259   0.241  10.595
 5684TIP3    H241248   2.368   0.264  10.493
 5685TIP3   OH241249   2.734   0.530  11.159
 5685TIP3    H141250   2.651   0.577  11.164
 5685TIP3    H241251   2.782   0.558  11.237
 5686TIP3   OH241252   2.772   1.135  10.364
 5686TIP3    H141253   2.705   1.077  10.327
 5686TIP3    H241254   2.742   1.154  10.453
 5687TIP3   OH241255   3.483   1.078  11.207
 5687TIP3    H141256   3.537   1.131  11.149
 5687TIP3    H241257   3.407   1.054  11.154
 5688TIP3   OH241258   3.111   0.369  10.220
 5688TIP3    H141259   3.033   0.377  10.165
 5688TIP3    H241260   3.141   0.458  10.233
 5689TIP3   OH241261   2.914   1.153  11.472
 5689TIP3    H141262   2.922   1.108  11.556
 5689TIP3    H241263   2.879   1.239  11.494
 5690TIP3   OH241264   3.223   0.605  10.325
 5690TIP3    H141265   3.306   0.582  10.367
 5690TIP3    H241266   3.234   0.696  10.298
 5691TIP3   OH241267   2.286   1.067  10.899
 5691TIP3    H141268   2.342   1.054  10.822
 5691TIP3    H241269   2.316   1.001  10.961
 5692TIP3   OH241270   2.995   1.270  10.271
 5692TIP3    H141271   2.960   1.359  10.268
 5692TIP3    H241272   2.920   1.215  10.289
 5693TIP3   OH241273   2.008   0.896  11.461
 5693TIP3    H141274   2.021   0.845  11.541
 5693TIP3    H241275   1.947   0.844  11.409
 5694TIP3   OH241276   2.694   0.860  11.659
 5694TIP3    H141277   2.638   0.824  11.590
 5694TIP3    H241278   2.777   0.814  11.649
 5695TIP3   OH241279   3.126   1.432  11.472
 5695TIP3    H141280   3.031   1.420  11.463
 5695TIP3    H241281   3.140   1.445  11.565
 5696TIP3   OH241282   3.696   0.654  10.326
 5696TIP3    H141283   3.634   0.633  10.257
 5696TIP3    H241284   3.728   0.742  10.304
 5697TIP3   OH241285   3.737   1.252  11.575
 5697TIP3    H141286   3.646   1.232  11.553
 5697TIP3    H241287   3.788   1.222  11.499
 5698TIP3   OH241288   3.541   1.460  10.361
 5698TIP3    H141289   3.486   1.385  10.380
 5698TIP3    H241290   3.574   1.444  10.272
 5699TIP3   OH241291   3.261   0.989  11.029
 5699TIP3    H141292   3.168   0.974  11.016
 5699TIP3    H241293   3.304   0.912  10.992
 5700TIP3   OH241294   2.523   1.407  10.686
 5700TIP3    H141295   2.545   1.493  10.650
 5700TIP3    H241296   2.430   1.396  10.667
 5701TIP3   OH241297   2.117   0.883  10.130
 5701TIP3    H141298   2.161   0.953  10.178
 5701TIP3    H241299   2.025   0.893  10.151
 5702TIP3   OH241300   2.648   1.176  10.601
 5702TIP3    H141301   2.615   1.261  10.630
 5702TIP3    H241302   2.586   1.113  10.639
 5703TIP3   OH241303   2.722   1.585  11.276
 5703TIP3    H141304   2.785   1.649  11.244
 5703TIP3    H241305   2.773   1.527  11.333
 5704TIP3   OH241306   2.529   1.668  10.576
 5704TIP3    H141307   2.436   1.681  10.593
 5704TIP3    H241308   2.570   1.751  10.603
 5705TIP3   OH241309   3.029   1.188  11.225
 5705TIP3    H141310   2.989   1.170  11.310
 5705TIP3    H241311   3.088   1.114  11.210
 5706TIP3   OH241312   3.252   1.287  10.156
 5706TIP3    H141313   3.304   1.247  10.225
 5706TIP3    H241314   3.162   1.278  10.185
 5707TIP3   OH241315   3.341   1.620  11.451
 5707TIP3    H141316   3.257   1.575  11.443
 5707TIP3    H241317   3.334   1.693  11.390
 5708TIP3   OH241318   3.747   1.732  10.159
 5708TIP3    H141319   3.814   1.798  10.172
 5708TIP3    H241320   3.665   1.775  10.184
 5709TIP3   OH241321   2.118   0.382  11.373
 5709TIP3    H141322   2.030   0.409  11.349
 5709TIP3    H241323   2.108   0.291  11.404
 5710TIP3   OH241324   3.397   1.150  10.348
 5710TIP3    H141325   3.358   1.088  10.409
 5710TIP3    H241326   3.492   1.142  10.362
 5711TIP3   OH241327   2.142   1.544  11.252
 5711TIP3    H141328   2.154   1.457  11.290
 5711TIP3    H241329   2.181   1.603  11.316
 5712TIP3   OH241330   2.572   1.345  10.246
 5712TIP3    H141331   2.638   1.296  10.295
 5712TIP3    H241332   2.587   1.437  10.271
 5713TIP3   OH241333   2.216   1.083  10.298
 5713TIP3    H141334   2.142   1.123  10.343
 5713TIP3    H241335   2.257   1.155  10.251
 5714TIP3   OH241336   3.035   0.333  11.274
 5714TIP3    H141337   3.101   0.370  11.333
 5714TIP3    H241338   2.981   0.278  11.330
 5715TIP3   OH241339   3.111   0.265  10.470
 5715TIP3    H141340   3.104   0.302  10.382
 5715TIP3    H241341   3.147   0.336  10.523
 5716TIP3   OH241342   2.870   1.512  10.264
 5716TIP3    H141343   2.783   1.534  10.297
 5716TIP3    H241344   2.908   1.596  10.239
 5717TIP3   OH241345   2.818   0.514  10.494
 5717TIP3    H141346   2.895   0.569  10.508
 5717TIP3    H241347   2.797   0.481  10.581
 5718TIP3   OH241348   2.881   0.585  11.397
 5718TIP3    H141349   2.889   0.620  11.485
 5718TIP3    H241350   2.919   0.498  11.402
 5719TIP3   OH241351   2.866   0.189  10.560
 5719TIP3    H141352   2.851   0.259  10.624
 5719TIP3    H241353   2.955   0.203  10.529
 5720TIP3   OH241354   2.618   1.606  10.324
 5720TIP3    H141355   2.615   1.690  10.279
 5720TIP3    H241356   2.587   1.624  10.412
 5721TIP3   OH241357   2.469   0.340  10.273
 5721TIP3    H141358   2.462   0.421  10.323
 5721TIP3    H241359   2.557   0.307  10.294
 5722TIP3   OH241360   3.465   0.371  11.484
 5722TIP3    H141361   3.380   0.377  11.441
 5722TIP3    H241362   3.529   0.380  11.413
 5723TIP3   OH241363   3.355   0.749  10.915
 5723TIP3    H141364   3.273   0.700  10.913
 5723TIP3    H241365   3.416   0.692  10.962
 5724TIP3   OH241366   2.314   1.300  10.149
 5724TIP3    H141367   2.389   1.336  10.196
 5724TIP3    H241368   2.352   1.239  10.086
 5725TIP3   OH241369   2.119   0.612  10.112
 5725TIP3    H141370   2.129   0.707  10.119
 5725TIP3    H241371   2.048   0.600  10.050
 5726TIP3   OH241372   3.470   1.705  11.042
 5726TIP3    H141373   3.458   1.784  10.989
 5726TIP3    H241374   3.564   1.701  11.059
 5727TIP3   OH241375   2.211   0.166  10.914
 5727TIP3    H141376   2.186   0.165  10.821
 5727TIP3    H241377   2.201   0.075  10.942
 5728TIP3   OH241378   2.081   1.477  10.550
 5728TIP3    H141379   2.008   1.500  10.606
 5728TIP3    H241380   2.075   1.537  10.475
 5729TIP3   OH241381   2.032   1.774  11.706
 5729TIP3    H141382   2.095   1.749  11.774
 5729TIP3    H241383   1.999   1.690  11.673
 5730TIP3   OH241384   2.481   1.639  11.836
 5730TIP3    H141385   2.560   1.598  11.870
 5730TIP3    H241386   2.461   1.589  11.756
 5731TIP3   OH241387   2.912   1.574   9.980
 5731TIP3    H141388   2.854   1.506  10.015
 5731TIP3    H241389   2.997   1.530   9.971
 5732TIP3   OH241390   3.127   1.490  11.744
 5732TIP3    H141391   3.097   1.406  11.779
 5732TIP3    H241392   3.197   1.517  11.804
 5733TIP3   OH241393   3.295   1.549  10.069
 5733TIP3    H141394   3.281   1.460  10.098
 5733TIP3    H241395   3.381   1.547  10.026
 5734TIP3   OH241396   2.009   1.138  11.781
 5734TIP3    H141397   2.001   1.043  11.786
 5734TIP3    H241398   1.955   1.163  11.707
 5735TIP3   OH241399   2.495   1.118  10.052
 5735TIP3    H141400   2.511   1.057  10.125
 5735TIP3    H241401   2.565   1.183  10.059
 5736TIP3   OH241402   2.667   1.138  11.712
 5736TIP3    H141403   2.648   1.179  11.628
 5736TIP3    H241404   2.684   1.046  11.692
 5737TIP3   OH241405   3.252   1.125  11.490
 5737TIP3    H141406   3.337   1.165  11.475
 5737TIP3    H241407   3.189   1.194  11.471
 5738TIP3   OH241408   2.119   0.826  11.726
 5738TIP3    H141409   2.206   0.787  11.710
 5738TIP3    H241410   2.125   0.861  11.815
 5739TIP3   OH241411   2.581   0.964  10.269
 5739TIP3    H141412   2.516   0.925  10.327
 5739TIP3    H241413   2.615   0.890  10.219
 5740TIP3   OH241414   2.480   0.750  11.441
 5740TIP3    H141415   2.419   0.823  11.447
 5740TIP3    H241416   2.556   0.787  11.394
 5741TIP3   OH241417   2.708   0.788  10.087
 5741TIP3    H141418   2.713   0.795   9.992
 5741TIP3    H241419   2.799   0.780  10.115
 5742TIP3   OH241420   3.033   1.006  11.771
 5742TIP3    H141421   3.117   0.969  11.744
 5742TIP3    H241422   3.000   0.946  11.837
 5743TIP3   OH241423   3.595   0.981  20.009
 5743TIP3    H141424   3.670   0.950  19.958
 5743TIP3    H241425   3.609   1.076  20.016
 5744TIP3   OH241426   2.556   0.513  11.554
 5744TIP3    H141427   2.571   0.448  11.485
 5744TIP3    H241428   2.537   0.594  11.507
 5745TIP3   OH241429   2.584   0.356  11.327
 5745TIP3    H141430   2.644   0.396  11.264
 5745TIP3    H241431   2.498   0.360  11.285
 5746TIP3   OH241432   2.698   0.871  11.335
 5746TIP3    H141433   2.793   0.884  11.338
 5746TIP3    H241434   2.665   0.948  11.289
 5747TIP3   OH241435   3.147   0.657  11.819
 5747TIP3    H141436   3.146   0.573  11.863
 5747TIP3    H241437   3.239   0.673  11.799
 5748TIP3   OH241438   3.313   0.928  11.666
 5748TIP3    H141439   3.289   1.001  11.608
 5748TIP3    H241440   3.408   0.922  11.657
 5749TIP3   OH241441   2.364   0.586  11.742
 5749TIP3    H141442   2.296   0.519  11.735
 5749TIP3    H241443   2.427   0.561  11.674
 5750TIP3   OH241444   2.616   0.085  11.317
 5750TIP3    H141445   2.604   0.179  11.329
 5750TIP3    H241446   2.530   0.054  11.287
 5751TIP3   OH241447   2.767   0.474  11.732
 5751TIP3    H141448   2.719   0.436  11.805
 5751TIP3    H241449   2.701   0.483  11.663
 5752TIP3   OH241450   3.071   0.401  11.641
 5752TIP3    H141451   2.987   0.387  11.684
 5752TIP3    H241452   3.135   0.361  11.700
 5753TIP3   OH241453   3.244   0.302  11.831
 5753TIP3    H141454   3.251   0.208  11.847
 5753TIP3    H241455   3.201   0.336  11.910
 5754TIP3   OH241456   2.178   0.378  11.751
 5754TIP3    H141457   2.164   0.294  11.707
 5754TIP3    H241458   2.207   0.355  11.839
 5755TIP3   OH241459   2.631   0.071  11.635
 5755TIP3    H141460   2.625  -0.024  11.624
 5755TIP3    H241461   2.687   0.100  11.563
 5756TIP3   OH241462   2.668   0.117  11.906
 5756TIP3    H141463   2.672   0.084  11.816
 5756TIP3    H241464   2.650   0.211  11.896
 5757TIP3   OH241465   2.650   1.845  10.191
 5757TIP3    H141466   2.743   1.837  10.172
 5757TIP3    H241467   2.612   1.882  10.111
 5758TIP3   OH241468   2.039   1.342  10.138
 5758TIP3    H141469   2.134   1.346  10.143
 5758TIP3    H241470   2.021   1.280  10.068
 5759TIP3   OH241471   1.914   1.822  10.631
 5759TIP3    H141472   1.855   1.783  10.567
 5759TIP3    H241473   1.934   1.751  10.691
 5760TIP3   OH241474   1.986   1.625  10.806
 5760TIP3    H141475   1.948   1.548  10.848
 5760TIP3    H241476   2.038   1.666  10.875
 5761TIP3   OH241477   3.737   1.738  11.099
 5761TIP3    H141478   3.740   1.741  11.195
 5761TIP3    H241479   3.826   1.758  11.072
 5762TIP3   OH241480   3.679   1.687  11.376
 5762TIP3    H141481   3.630   1.616  11.335
 5762TIP3    H241482   3.725   1.645  11.449
 5763TIP3   OH241483   3.563   1.307  11.881
 5763TIP3    H141484   3.482   1.290  11.929
 5763TIP3    H241485   3.535   1.344  11.798
 5764TIP3   OH241486   3.663   1.095  10.391
 5764TIP3    H141487   3.739   1.153  10.397
 5764TIP3    H241488   3.669   1.039  10.468
 5765TIP3   OH241489   3.699   0.923  10.600
 5765TIP3    H141490   3.622   0.878  10.635
 5765TIP3    H241491   3.757   0.932  10.675
 5766TIP3   OH241492   3.676   1.208  11.066
 5766TIP3    H141493   3.736   1.136  11.045
 5766TIP3    H241494   3.720   1.286  11.031
 5767TIP3   OH241495   3.521   1.473  11.295
 5767TIP3    H141496   3.447   1.513  11.339
 5767TIP3    H241497   3.487   1.446  11.210
 5768TIP3   OH241498   3.732   0.903  10.206
 5768TIP3    H141499   3.654   0.895  10.151
 5768TIP3    H241500   3.709   0.973  10.269
 5769TIP3   OH241501   3.522   0.635  10.121
 5769TIP3    H141502   3.468   0.690  10.064
 5769TIP3    H241503   3.510   0.546  10.087
 5770TIP3   OH241504   3.475   0.777  10.669
 5770TIP3    H141505   3.468   0.687  10.635
 5770TIP3    H241506   3.439   0.772  10.757
 5771TIP3   OH241507   1.967   0.980  11.051
 5771TIP3    H141508   1.971   0.961  10.957
 5771TIP3    H241509   2.050   0.948  11.086
 5772TIP3   OH241510   3.600   0.941  11.623
 5772TIP3    H141511   3.625   0.854  11.654
 5772TIP3    H241512   3.672   0.967  11.566
 5773TIP3   OH241513   3.682   0.693  11.698
 5773TIP3    H141514   3.600   0.653  11.671
 5773TIP3    H241515   3.749   0.631  11.669
 5774TIP3   OH241516   3.489   0.383  10.025
 5774TIP3    H141517   3.572   0.340  10.047
 5774TIP3    H241518   3.425   0.311  10.024
 5775TIP3   OH241519   3.458   0.556  10.484
 5775TIP3    H141520   3.489   0.466  10.496
 5775TIP3    H241521   3.531   0.601  10.442
 5776TIP3   OH241522   3.528   0.576  11.038
 5776TIP3    H141523   3.621   0.597  11.026
 5776TIP3    H241524   3.513   0.586  11.132
 5777TIP3   OH241525   3.521   0.664  11.304
 5777TIP3    H141526   3.440   0.697  11.343
 5777TIP3    H241527   3.576   0.741  11.291
 5778TIP3   OH241528   1.949   0.496  11.649
 5778TIP3    H141529   2.038   0.473  11.677
 5778TIP3    H241530   1.899   0.415  11.657
 5779TIP3   OH241531   3.806   0.084  11.842
 5779TIP3    H141532   3.886   0.061  11.796
 5779TIP3    H241533   3.762   0.147  11.785
 5780TIP3   OH241534   3.542   0.299  10.510
 5780TIP3    H141535   3.558   0.254  10.593
 5780TIP3    H241536   3.474   0.246  10.468
 5781TIP3   OH241537   2.062   0.382  10.979
 5781TIP3    H141538   2.104   0.296  10.969
 5781TIP3    H241539   2.135   0.443  10.987
 5782TIP3   OH241540   1.901   0.648  11.045
 5782TIP3    H141541   1.963   0.640  10.973
 5782TIP3    H241542   1.948   0.699  11.111
 5783TIP3   OH241543   3.691   0.265  11.671
 5783TIP3    H141544   3.616   0.308  11.712
 5783TIP3    H241545   3.655   0.224  11.592
 5784TIP3   OH241546   3.733   0.285  10.115
 5784TIP3    H141547   3.798   0.229  10.073
 5784TIP3    H241548   3.784   0.342  10.173
 5785TIP3   OH241549   1.940   0.259  10.483
 5785TIP3    H141550   1.844   0.261  10.488
 5785TIP3    H241551   1.963   0.331  10.425
 5786TIP3   OH241552   3.420   1.743  10.676
 5786TIP3    H141553   3.478   1.725  10.602
 5786TIP3    H241554   3.479   1.763  10.748
 5787TIP3   OH241555   1.942   0.167  11.292
 5787TIP3    H141556   1.869   0.173  11.354
 5787TIP3    H241557   1.910   0.212  11.213
 5788TIP3   OH241558   2.145   1.461  11.694
 5788TIP3    H141559   2.055   1.469  11.662
 5788TIP3    H241560   2.136   1.413  11.777
 5789TIP3   OH241561   2.453   1.582  11.351
 5789TIP3    H141562   2.435   1.667  11.312
 5789TIP3    H241563   2.547   1.570  11.339
 5790TIP3   OH241564   2.861   1.692  11.606
 5790TIP3    H141565   2.865   1.670  11.699
 5790TIP3    H241566   2.951   1.716  11.583
 5791TIP3   OH241567   3.128   1.893  11.554
 5791TIP3    H141568   3.155   1.819  11.500
 5791TIP3    H241569   3.153   1.868  11.643
 5792TIP3   OH241570   3.617   0.128  11.442
 5792TIP3    H141571   3.539   0.172  11.407
 5792TIP3    H241572   3.591   0.037  11.451
 5793TIP3   OH241573   2.187   1.889  11.342
 5793TIP3    H141574   2.103   1.918  11.307
 5793TIP3    H241575   2.182   1.908  11.436
 5794TIP3   OH241576   2.431   1.829  11.238
 5794TIP3    H141577   2.344   1.852  11.270
 5794TIP3    H241578   2.438   1.875  11.154
 5795TIP3   OH241579   2.883   1.777  11.148
 5795TIP3    H141580   2.827   1.811  11.078
 5795TIP3    H241581   2.902   1.852  11.204
 5796TIP3   OH241582   3.097   1.713  11.318
 5796TIP3    H141583   3.032   1.704  11.249
 5796TIP3    H241584   3.174   1.751  11.275
 5797TIP3   OH241585   3.340   1.824  11.255
 5797TIP3    H141586   3.353   1.917  11.236
 5797TIP3    H241587   3.386   1.779  11.185
 5798TIP3   OH241588   2.144   1.714  11.027
 5798TIP3    H141589   2.133   1.663  11.107
 5798TIP3    H241590   2.222   1.677  10.986
 5799TIP3   OH241591   2.356   1.595  10.908
 5799TIP3    H141592   2.339   1.503  10.929
 5799TIP3    H241593   2.445   1.610  10.940
 5800TIP3   OH241594   2.613   1.611  11.018
 5800TIP3    H141595   2.621   1.520  10.989
 5800TIP3    H241596   2.638   1.608  11.111
 5801TIP3   OH241597   2.954   0.265  10.885
 5801TIP3    H141598   2.886   0.201  10.907
 5801TIP3    H241599   3.021   0.215  10.839
 5802TIP3   OH241600   3.430   0.108  10.903
 5802TIP3    H141601   3.503   0.141  10.851
 5802TIP3    H241602   3.354   0.158  10.874
 5803TIP3   OH241603   3.634   0.160  10.726
 5803TIP3    H141604   3.698   0.090  10.715
 5803TIP3    H241605   3.687   0.237  10.748
 5804TIP3   OH241606   2.128   0.137  10.653
 5804TIP3    H141607   2.057   0.160  10.593
 5804TIP3    H241608   2.138   0.042  10.642
 5805TIP3   OH241609   2.098   0.114  10.298
 5805TIP3    H141610   2.141   0.173  10.236
 5805TIP3    H241611   2.038   0.170  10.347
 5806TIP3   OH241612   2.626   0.106  10.657
 5806TIP3    H141613   2.702   0.133  10.606
 5806TIP3    H241614   2.653   0.117  10.748
 5807TIP3   OH241615   3.165   0.137  10.768
 5807TIP3    H141616   3.180   0.156  10.675
 5807TIP3    H241617   3.171   0.042  10.775
 5808TIP3   OH241618   3.352   0.151  10.384
 5808TIP3    H141619   3.263   0.186  10.395
 5808TIP3    H241620   3.341   0.056  10.385
 5809TIP3   OH241621   2.055   1.662  10.352
 5809TIP3    H141622   1.982   1.645  10.293
 5809TIP3    H241623   2.059   1.757  10.358
 5810TIP3   OH241624   2.262   0.236  10.114
 5810TIP3    H141625   2.300   0.158  10.072
 5810TIP3    H241626   2.333   0.270  10.168
 5811TIP3   OH241627   2.734   0.300  10.342
 5811TIP3    H141628   2.768   0.231  10.399
 5811TIP3    H241629   2.760   0.381  10.385
 5812TIP3   OH241630   2.916   1.780  10.159
 5812TIP3    H141631   3.009   1.801  10.164
 5812TIP3    H241632   2.907   1.724  10.082
 5813TIP3   OH241633   3.598   1.703  10.467
 5813TIP3    H141634   3.580   1.614  10.437
 5813TIP3    H241635   3.583   1.758  10.390
 5814TIP3   OH241636   2.136   0.107  11.664
 5814TIP3    H141637   2.118   0.023  11.622
 5814TIP3    H241638   2.228   0.102  11.689
 5815TIP3   OH241639   2.388   0.098  11.761
 5815TIP3    H141640   2.473   0.117  11.720
 5815TIP3    H241641   2.379   0.003  11.754
 5816TIP3   OH241642   2.273   1.803  10.132
 5816TIP3    H141643   2.193   1.797  10.184
 5816TIP3    H241644   2.304   1.712  10.126
 5817TIP3   OH241645   3.271   7.718  11.865
 5817TIP3    H141646   3.209   7.648  11.886
 5817TIP3    H241647   3.336   7.676  11.809
 5818TIP3   OH241648   3.486   1.591  11.685
 5818TIP3    H141649   3.436   1.585  11.604
 5818TIP3    H241650   3.490   1.685  11.704
 5819TIP3   OH241651   4.984   0.995  10.665
 5819TIP3    H141652   4.976   1.089  10.680
 5819TIP3    H241653   4.917   0.975  10.600
 5820TIP3   OH241654   4.853   0.907  11.029
 5820TIP3    H141655   4.871   0.868  11.115
 5820TIP3    H241656   4.805   0.838  10.982
 5821TIP3   OH241657   4.059   0.867  11.149
 5821TIP3    H141658   4.078   0.777  11.174
 5821TIP3    H241659   4.104   0.921  11.215
 5822TIP3   OH241660   5.209   1.208  10.862
 5822TIP3    H141661   5.183   1.131  10.912
 5822TIP3    H241662   5.239   1.271  10.927
 5823TIP3   OH241663   4.206   1.329  10.975
 5823TIP3    H141664   4.177   1.240  10.958
 5823TIP3    H241665   4.298   1.321  10.997
 5824TIP3   OH241666   3.856   0.664  10.552
 5824TIP3    H141667   3.830   0.743  10.598
 5824TIP3    H241668   3.792   0.655  10.481
 5825TIP3   OH241669   3.903   0.908  10.791
 5825TIP3    H141670   3.934   0.822  10.818
 5825TIP3    H241671   3.980   0.965  10.796
 5826TIP3   OH241672   4.954   1.726  10.875
 5826TIP3    H141673   5.002   1.659  10.825
 5826TIP3    H241674   4.926   1.681  10.954
 5827TIP3   OH241675   4.698   1.164  11.053
 5827TIP3    H141676   4.734   1.085  11.012
 5827TIP3    H241677   4.765   1.191  11.116
 5828TIP3   OH241678   5.582   0.300  11.097
 5828TIP3    H141679   5.574   0.370  11.162
 5828TIP3    H241680   5.648   0.331  11.035
 5829TIP3   OH241681   5.040   0.593  11.084
 5829TIP3    H141682   5.058   0.503  11.110
 5829TIP3    H241683   5.004   0.585  10.995
 5830TIP3   OH241684   4.358   0.401  10.784
 5830TIP3    H141685   4.369   0.489  10.748
 5830TIP3    H241686   4.314   0.352  10.714
 5831TIP3   OH241687   5.124   0.443  10.636
 5831TIP3    H141688   5.171   0.418  10.715
 5831TIP3    H241689   5.188   0.494  10.586
 5832TIP3   OH241690   4.007   0.664  10.865
 5832TIP3    H141691   4.075   0.631  10.924
 5832TIP3    H241692   4.029   0.628  10.779
 5833TIP3   OH241693   4.498   0.802  10.825
 5833TIP3    H141694   4.579   0.760  10.854
 5833TIP3    H241695   4.456   0.736  10.768
 5834TIP3   OH241696   5.594   0.458  11.327
 5834TIP3    H141697   5.536   0.533  11.316
 5834TIP3    H241698   5.587   0.435  11.420
 5835TIP3   OH241699   4.217   0.324  11.214
 5835TIP3    H141700   4.177   0.376  11.144
 5835TIP3    H241701   4.153   0.328  11.285
 5836TIP3   OH241702   4.944   1.263  10.546
 5836TIP3    H141703   4.928   1.260  10.452
 5836TIP3    H241704   4.895   1.339  10.576
 5837TIP3   OH241705   4.469   1.081  11.186
 5837TIP3    H141706   4.416   1.151  11.223
 5837TIP3    H241707   4.542   1.125  11.144
 5838TIP3   OH241708   5.266   0.407  10.867
 5838TIP3    H141709   5.210   0.370  10.935
 5838TIP3    H241710   5.336   0.451  10.915
 5839TIP3   OH241711   4.193   0.495  10.987
 5839TIP3    H141712   4.255   0.540  11.045
 5839TIP3    H241713   4.249   0.456  10.919
 5840TIP3   OH241714   4.319   1.293  11.298
 5840TIP3    H141715   4.323   1.388  11.286
 5840TIP3    H241716   4.232   1.276  11.333
 5841TIP3   OH241717   3.897   1.244  10.393
 5841TIP3    H141718   3.896   1.292  10.310
 5841TIP3    H241719   3.927   1.309  10.457
 5842TIP3   OH241720   5.272   1.409  11.054
 5842TIP3    H141721   5.181   1.410  11.082
 5842TIP3    H241722   5.291   1.499  11.029
 5843TIP3   OH241723   5.331   0.226  11.219
 5843TIP3    H141724   5.253   0.232  11.164
 5843TIP3    H241725   5.404   0.226  11.157
 5844TIP3   OH241726   4.614   0.101  10.916
 5844TIP3    H141727   4.617   0.010  10.943
 5844TIP3    H241728   4.542   0.139  10.967
 5845TIP3   OH241729   5.096   1.566  10.700
 5845TIP3    H141730   5.129   1.478  10.681
 5845TIP3    H241731   5.174   1.621  10.698
 5846TIP3   OH241732   5.212   1.327  10.614
 5846TIP3    H141733   5.135   1.286  10.575
 5846TIP3    H241734   5.224   1.281  10.697
 5847TIP3   OH241735   5.399   1.218  11.417
 5847TIP3    H141736   5.388   1.161  11.341
 5847TIP3    H241737   5.404   1.307  11.380
 5848TIP3   OH241738   4.848   0.936  10.427
 5848TIP3    H141739   4.780   1.000  10.407
 5848TIP3    H241740   4.909   0.941  10.354
 5849TIP3   OH241741   4.869   0.764  10.125
 5849TIP3    H141742   4.939   0.806  10.175
 5849TIP3    H241743   4.904   0.679  10.100
 5850TIP3   OH241744   5.577   0.890  11.254
 5850TIP3    H141745   5.501   0.948  11.247
 5850TIP3    H241746   5.630   0.910  11.177
 5851TIP3   OH241747   5.200   0.935  10.512
 5851TIP3    H141748   5.130   0.957  10.574
 5851TIP3    H241749   5.264   0.886  10.564
 5852TIP3   OH241750   5.167   0.748  11.436
 5852TIP3    H141751   5.166   0.815  11.504
 5852TIP3    H241752   5.101   0.777  11.373
 5853TIP3   OH241753   4.336   0.992  10.704
 5853TIP3    H141754   4.309   0.956  10.619
 5853TIP3    H241755   4.393   0.926  10.741
 5854TIP3   OH241756   4.494   1.346  10.962
 5854TIP3    H141757   4.490   1.342  10.866
 5854TIP3    H241758   4.566   1.287  10.985
 5855TIP3   OH241759   4.356   0.866  11.053
 5855TIP3    H141760   4.413   0.854  10.977
 5855TIP3    H241761   4.396   0.939  11.101
 5856TIP3   OH241762   5.021   1.417  11.151
 5856TIP3    H141763   5.004   1.487  11.214
 5856TIP3    H241764   4.975   1.340  11.188
 5857TIP3   OH241765   4.482   1.320  11.522
 5857TIP3    H141766   4.417   1.374  11.567
 5857TIP3    H241767   4.439   1.294  11.441
 5858TIP3   OH241768   5.087   0.874  10.270
 5858TIP3    H141769   5.124   0.899  10.355
 5858TIP3    H241770   5.148   0.910  10.206
 5859TIP3   OH241771   4.157   0.993  11.376
 5859TIP3    H141772   4.192   1.054  11.440
 5859TIP3    H241773   4.133   0.916  11.427
 5860TIP3   OH241774   4.824   1.517  10.587
 5860TIP3    H141775   4.887   1.552  10.650
 5860TIP3    H241776   4.793   1.594  10.538
 5861TIP3   OH241777   4.287   1.486  11.613
 5861TIP3    H141778   4.278   1.527  11.527
 5861TIP3    H241779   4.197   1.475  11.645
 5862TIP3   OH241780   5.481   0.095  10.262
 5862TIP3    H141781   5.401   0.129  10.301
 5862TIP3    H241782   5.520   0.170  10.218
 5863TIP3   OH241783   4.252   0.903  10.447
 5863TIP3    H141784   4.197   0.965  10.398
 5863TIP3    H241785   4.212   0.818  10.431
 5864TIP3   OH241786   5.559   1.474  10.115
 5864TIP3    H141787   5.582   1.567  10.115
 5864TIP3    H241788   5.643   1.429  10.121
 5865TIP3   OH241789   3.857   1.162  11.341
 5865TIP3    H141790   3.822   1.146  11.254
 5865TIP3    H241791   3.864   1.074  11.380
 5866TIP3   OH241792   3.858   1.421  11.012
 5866TIP3    H141793   3.947   1.385  11.012
 5866TIP3    H241794   3.853   1.471  11.094
 5867TIP3   OH241795   5.675   1.486  11.614
 5867TIP3    H141796   5.653   1.393  11.605
 5867TIP3    H241797   5.590   1.530  11.624
 5868TIP3   OH241798   4.727   1.437  11.491
 5868TIP3    H141799   4.735   1.518  11.540
 5868TIP3    H241800   4.641   1.403  11.513
 5869TIP3   OH241801   4.789   1.782  10.452
 5869TIP3    H141802   4.782   1.797  10.358
 5869TIP3    H241803   4.782   1.869  10.491
 5870TIP3   OH241804   4.146   1.678  10.661
 5870TIP3    H141805   4.175   1.647  10.747
 5870TIP3    H241806   4.095   1.605  10.625
 5871TIP3   OH241807   5.069   1.776  10.194
 5871TIP3    H141808   5.116   1.706  10.149
 5871TIP3    H241809   5.087   1.762  10.286
 5872TIP3   OH241810   5.062   1.733  10.467
 5872TIP3    H141811   4.967   1.734  10.470
 5872TIP3    H241812   5.088   1.668  10.533
 5873TIP3   OH241813   5.334   0.613  11.630
 5873TIP3    H141814   5.280   0.658  11.565
 5873TIP3    H241815   5.342   0.524  11.596
 5874TIP3   OH241816   4.072   1.300  11.441
 5874TIP3    H141817   4.100   1.246  11.514
 5874TIP3    H241818   4.001   1.250  11.400
 5875TIP3   OH241819   4.372   0.191  11.026
 5875TIP3    H141820   4.310   0.211  10.956
 5875TIP3    H241821   4.337   0.237  11.103
 5876TIP3   OH241822   4.767   0.165  11.396
 5876TIP3    H141823   4.807   0.078  11.399
 5876TIP3    H241824   4.674   0.149  11.380
 5877TIP3   OH241825   5.093   0.478  11.460
 5877TIP3    H141826   5.035   0.464  11.534
 5877TIP3    H241827   5.102   0.573  11.454
 5878TIP3   OH241828   5.262   0.981  10.088
 5878TIP3    H141829   5.217   1.024  10.015
 5878TIP3    H241830   5.288   1.053  10.145
 5879TIP3   OH241831   4.738   0.370  10.104
 5879TIP3    H141832   4.700   0.334  10.184
 5879TIP3    H241833   4.664   0.378  10.043
 5880TIP3   OH241834   4.353   0.621  11.173
 5880TIP3    H141835   4.277   0.620  11.230
 5880TIP3    H241836   4.357   0.710  11.139
 5881TIP3   OH241837   4.352   0.643  10.657
 5881TIP3    H141838   4.258   0.630  10.649
 5881TIP3    H241839   4.387   0.619  10.571
 5882TIP3   OH241840   4.916   0.678  10.520
 5882TIP3    H141841   4.892   0.768  10.495
 5882TIP3    H241842   4.983   0.653  10.456
 5883TIP3   OH241843   4.799   0.697  11.661
 5883TIP3    H141844   4.754   0.622  11.699
 5883TIP3    H241845   4.881   0.704  11.710
 5884TIP3   OH241846   4.973   0.611  10.815
 5884TIP3    H141847   4.967   0.689  10.760
 5884TIP3    H241848   5.005   0.543  10.756
 5885TIP3   OH241849   4.091   0.617  11.277
 5885TIP3    H141850   4.093   0.665  11.360
 5885TIP3    H241851   4.062   0.529  11.301
 5886TIP3   OH241852   4.440   0.409  10.010
 5886TIP3    H141853   4.410   0.388  10.098
 5886TIP3    H241854   4.360   0.417   9.959
 5887TIP3   OH241855   3.792   0.377  10.753
 5887TIP3    H141856   3.843   0.390  10.833
 5887TIP3    H241857   3.854   0.394  10.682
 5888TIP3   OH241858   3.882   0.448  10.285
 5888TIP3    H141859   3.959   0.486  10.243
 5888TIP3    H241860   3.825   0.523  10.305
 5889TIP3   OH241861   4.925   0.766  11.261
 5889TIP3    H141862   4.970   0.706  11.201
 5889TIP3    H241863   4.867   0.709  11.311
 5890TIP3   OH241864   4.645   0.387  10.735
 5890TIP3    H141865   4.556   0.382  10.770
 5890TIP3    H241866   4.702   0.365  10.809
 5891TIP3   OH241867   4.095   0.556  10.627
 5891TIP3    H141868   4.014   0.581  10.582
 5891TIP3    H241869   4.118   0.471  10.588
 5892TIP3   OH241870   4.441   0.561  10.415
 5892TIP3    H141871   4.537   0.560  10.424
 5892TIP3    H241872   4.425   0.617  10.338
 5893TIP3   OH241873   5.082   0.306  11.048
 5893TIP3    H141874   5.039   0.304  11.134
 5893TIP3    H241875   5.011   0.288  10.986
 5894TIP3   OH241876   4.346   0.690  10.196
 5894TIP3    H141877   4.268   0.668  10.144
 5894TIP3    H241878   4.414   0.708  10.132
 5895TIP3   OH241879   5.350   1.887  11.737
 5895TIP3    H141880   5.371   1.908  11.646
 5895TIP3    H241881   5.436   1.877  11.779
 5896TIP3   OH241882   4.141   1.132  11.650
 5896TIP3    H141883   4.207   1.137  11.719
 5896TIP3    H241884   4.081   1.063  11.679
 5897TIP3   OH241885   4.719   0.668  10.930
 5897TIP3    H141886   4.797   0.628  10.891
 5897TIP3    H241887   4.693   0.608  10.999
 5898TIP3   OH241888   4.211   0.308  10.564
 5898TIP3    H141889   4.149   0.241  10.595
 5898TIP3    H241890   4.266   0.261  10.501
 5899TIP3   OH241891   4.617   0.531  11.162
 5899TIP3    H141892   4.533   0.576  11.169
 5899TIP3    H241893   4.667   0.560  11.238
 5900TIP3   OH241894   4.652   1.135  10.357
 5900TIP3    H141895   4.586   1.078  10.318
 5900TIP3    H241896   4.621   1.151  10.446
 5901TIP3   OH241897   5.373   1.066  11.189
 5901TIP3    H141898   5.425   1.123  11.132
 5901TIP3    H241899   5.294   1.046  11.139
 5902TIP3   OH241900   4.999   0.370  10.214
 5902TIP3    H141901   4.919   0.380  10.163
 5902TIP3    H241902   5.028   0.460  10.231
 5903TIP3   OH241903   4.797   1.163  11.491
 5903TIP3    H141904   4.806   1.131  11.580
 5903TIP3    H241905   4.778   1.257  11.501
 5904TIP3   OH241906   5.111   0.604  10.323
 5904TIP3    H141907   5.193   0.583  10.367
 5904TIP3    H241908   5.120   0.696  10.298
 5905TIP3   OH241909   4.158   1.057  10.910
 5905TIP3    H141910   4.223   1.039  10.841
 5905TIP3    H241911   4.176   0.991  10.977
 5906TIP3   OH241912   4.877   1.277  10.273
 5906TIP3    H141913   4.842   1.366  10.273
 5906TIP3    H241914   4.801   1.221  10.290
 5907TIP3   OH241915   3.842   0.924  11.475
 5907TIP3    H141916   3.910   0.868  11.512
 5907TIP3    H241917   3.800   0.870  11.408
 5908TIP3   OH241918   4.578   0.863  11.656
 5908TIP3    H141919   4.518   0.815  11.599
 5908TIP3    H241920   4.661   0.817  11.647
 5909TIP3   OH241921   5.102   1.418  11.485
 5909TIP3    H141922   5.016   1.436  11.524
 5909TIP3    H241923   5.158   1.397  11.560
 5910TIP3   OH241924   5.583   0.654  10.324
 5910TIP3    H141925   5.521   0.632  10.255
 5910TIP3    H241926   5.612   0.743  10.302
 5911TIP3   OH241927   5.612   1.202  11.586
 5911TIP3    H141928   5.521   1.219  11.559
 5911TIP3    H241929   5.659   1.188  11.504
 5912TIP3   OH241930   5.427   1.470  10.359
 5912TIP3    H141931   5.370   1.396  10.381
 5912TIP3    H241932   5.457   1.451  10.270
 5913TIP3   OH241933   5.148   0.982  11.023
 5913TIP3    H141934   5.054   0.969  11.017
 5913TIP3    H241935   5.187   0.903  10.987
 5914TIP3   OH241936   4.419   1.400  10.690
 5914TIP3    H141937   4.438   1.486  10.653
 5914TIP3    H241938   4.325   1.389  10.678
 5915TIP3   OH241939   3.996   0.876  10.127
 5915TIP3    H141940   4.043   0.945  10.174
 5915TIP3    H241941   3.904   0.890  10.149
 5916TIP3   OH241942   4.530   1.165  10.597
 5916TIP3    H141943   4.506   1.251  10.632
 5916TIP3    H241944   4.470   1.104  10.641
 5917TIP3   OH241945   4.609   1.591  11.279
 5917TIP3    H141946   4.673   1.658  11.253
 5917TIP3    H241947   4.659   1.532  11.336
 5918TIP3   OH241948   4.411   1.667  10.581
 5918TIP3    H141949   4.318   1.678  10.599
 5918TIP3    H241950   4.451   1.749  10.611
 5919TIP3   OH241951   4.905   1.177  11.241
 5919TIP3    H141952   4.866   1.168  11.328
 5919TIP3    H241953   4.973   1.111  11.238
 5920TIP3   OH241954   5.141   1.288  10.156
 5920TIP3    H141955   5.194   1.244  10.222
 5920TIP3    H241956   5.051   1.282  10.188
 5921TIP3   OH241957   5.206   1.688  11.484
 5921TIP3    H141958   5.159   1.606  11.470
 5921TIP3    H241959   5.215   1.726  11.397
 5922TIP3   OH241960   5.634   1.740  10.157
 5922TIP3    H141961   5.704   1.804  10.170
 5922TIP3    H241962   5.554   1.786  10.185
 5923TIP3   OH241963   4.024   0.379  11.405
 5923TIP3    H141964   3.999   0.423  11.486
 5923TIP3    H241965   3.973   0.298  11.405
 5924TIP3   OH241966   5.288   1.136  10.334
 5924TIP3    H141967   5.247   1.084  10.404
 5924TIP3    H241968   5.381   1.136  10.356
 5925TIP3   OH241969   4.013   1.547  11.249
 5925TIP3    H141970   4.035   1.463  11.288
 5925TIP3    H241971   4.044   1.612  11.312
 5926TIP3   OH241972   4.454   1.345  10.237
 5926TIP3    H141973   4.521   1.295  10.284
 5926TIP3    H241974   4.468   1.435  10.266
 5927TIP3   OH241975   4.096   1.076  10.293
 5927TIP3    H141976   4.025   1.119  10.341
 5927TIP3    H241977   4.143   1.148  10.250
 5928TIP3   OH241978   4.953   0.326  11.281
 5928TIP3    H141979   5.000   0.372  11.351
 5928TIP3    H241980   4.886   0.275  11.326
 5929TIP3   OH241981   4.998   0.266  10.466
 5929TIP3    H141982   4.992   0.303  10.378
 5929TIP3    H241983   5.032   0.338  10.519
 5930TIP3   OH241984   4.746   1.516  10.270
 5930TIP3    H141985   4.659   1.538  10.303
 5930TIP3    H241986   4.784   1.600  10.246
 5931TIP3   OH241987   4.702   0.508  10.494
 5931TIP3    H141988   4.777   0.566  10.505
 5931TIP3    H241989   4.683   0.476  10.582
 5932TIP3   OH241990   4.773   0.585  11.405
 5932TIP3    H141991   4.772   0.632  11.488
 5932TIP3    H241992   4.791   0.494  11.429
 5933TIP3   OH241993   4.755   0.188  10.560
 5933TIP3    H141994   4.740   0.257  10.625
 5933TIP3    H241995   4.843   0.204  10.527
 5934TIP3   OH241996   4.489   1.603  10.325
 5934TIP3    H141997   4.491   1.688  10.279
 5934TIP3    H241998   4.463   1.625  10.414
 5935TIP3   OH241999   4.351   0.339  10.265
 5935TIP3    H142000   4.347   0.418  10.319
 5935TIP3    H242001   4.435   0.299  10.286
 5936TIP3   OH242002   5.345   0.378  11.467
 5936TIP3    H142003   5.251   0.396  11.471
 5936TIP3    H242004   5.360   0.356  11.375
 5937TIP3   OH242005   5.241   0.736  10.921
 5937TIP3    H142006   5.159   0.691  10.940
 5937TIP3    H242007   5.308   0.684  10.964
 5938TIP3   OH242008   4.194   1.300  10.150
 5938TIP3    H142009   4.270   1.337  10.195
 5938TIP3    H242010   4.231   1.238  10.087
 5939TIP3   OH242011   4.046   0.610  10.121
 5939TIP3    H142012   4.035   0.705  10.126
 5939TIP3    H242013   3.999   0.585  10.041
 5940TIP3   OH242014   5.355   1.677  11.031
 5940TIP3    H142015   5.342   1.751  10.972
 5940TIP3    H242016   5.449   1.673  11.046
 5941TIP3   OH242017   4.108   0.159  10.914
 5941TIP3    H142018   4.083   0.160  10.822
 5941TIP3    H242019   4.090   0.069  10.943
 5942TIP3   OH242020   3.972   1.473  10.551
 5942TIP3    H142021   3.903   1.495  10.614
 5942TIP3    H242022   3.960   1.535  10.479
 5943TIP3   OH242023   3.906   1.741  11.702
 5943TIP3    H142024   3.985   1.705  11.744
 5943TIP3    H242025   3.863   1.665  11.663
 5944TIP3   OH242026   4.789   1.567   9.983
 5944TIP3    H142027   4.726   1.502  10.014
 5944TIP3    H242028   4.873   1.521   9.986
 5945TIP3   OH242029   4.988   1.486  11.747
 5945TIP3    H142030   4.953   1.401  11.773
 5945TIP3    H242031   5.083   1.474  11.753
 5946TIP3   OH242032   5.186   1.554  10.076
 5946TIP3    H142033   5.174   1.463  10.102
 5946TIP3    H242034   5.273   1.557  10.036
 5947TIP3   OH242035   3.868   1.177  11.812
 5947TIP3    H142036   3.898   1.086  11.803
 5947TIP3    H242037   3.814   1.191  11.734
 5948TIP3   OH242038   4.366   1.117  10.044
 5948TIP3    H142039   4.386   1.055  10.114
 5948TIP3    H242040   4.438   1.180  10.045
 5949TIP3   OH242041   4.547   1.131  11.711
 5949TIP3    H142042   4.538   1.176  11.627
 5949TIP3    H242043   4.565   1.040  11.688
 5950TIP3   OH242044   5.140   1.127  11.479
 5950TIP3    H142045   5.232   1.156  11.476
 5950TIP3    H242046   5.090   1.208  11.470
 5951TIP3   OH242047   3.988   0.932  11.775
 5951TIP3    H142048   4.019   0.862  11.717
 5951TIP3    H242049   3.998   0.897  11.863
 5952TIP3   OH242050   4.460   0.966  10.257
 5952TIP3    H142051   4.400   0.929  10.322
 5952TIP3    H242052   4.497   0.890  10.212
 5953TIP3   OH242053   4.417   0.727  11.477
 5953TIP3    H142054   4.325   0.754  11.479
 5953TIP3    H242055   4.453   0.774  11.402
 5954TIP3   OH242056   4.593   0.780  10.088
 5954TIP3    H142057   4.600   0.769   9.994
 5954TIP3    H242058   4.683   0.778  10.120
 5955TIP3   OH242059   4.932   0.998  11.786
 5955TIP3    H142060   5.011   0.958  11.750
 5955TIP3    H242061   4.897   0.932  11.845
 5956TIP3   OH242062   5.483   0.971  19.998
 5956TIP3    H142063   5.562   0.954  19.947
 5956TIP3    H242064   5.484   1.065  20.014
 5957TIP3   OH242065   4.456   0.477  11.569
 5957TIP3    H142066   4.462   0.418  11.494
 5957TIP3    H242067   4.448   0.564  11.531
 5958TIP3   OH242068   4.468   0.346  11.320
 5958TIP3    H142069   4.522   0.397  11.259
 5958TIP3    H242070   4.379   0.357  11.287
 5959TIP3   OH242071   4.586   0.859  11.302
 5959TIP3    H142072   4.678   0.881  11.321
 5959TIP3    H242073   4.550   0.940  11.265
 5960TIP3   OH242074   5.044   0.646  11.831
 5960TIP3    H142075   5.051   0.550  11.830
 5960TIP3    H242076   5.125   0.676  11.789
 5961TIP3   OH242077   5.176   0.922  11.653
 5961TIP3    H142078   5.150   0.998  11.602
 5961TIP3    H242079   5.271   0.927  11.659
 5962TIP3   OH242080   4.272   0.564  11.760
 5962TIP3    H142081   4.214   0.623  11.714
 5962TIP3    H242082   4.336   0.537  11.693
 5963TIP3   OH242083   4.495   0.080  11.346
 5963TIP3    H142084   4.489   0.175  11.337
 5963TIP3    H242085   4.412   0.047  11.310
 5964TIP3   OH242086   4.669   0.474  11.747
 5964TIP3    H142087   4.645   0.444  11.835
 5964TIP3    H242088   4.589   0.463  11.696
 5965TIP3   OH242089   4.925   0.410  11.658
 5965TIP3    H142090   4.836   0.413  11.694
 5965TIP3    H242091   4.974   0.357  11.720
 5966TIP3   OH242092   5.114   0.323  11.854
 5966TIP3    H142093   5.102   0.228  11.843
 5966TIP3    H242094   5.078   0.341  11.941
 5967TIP3   OH242095   4.047   0.369  11.767
 5967TIP3    H142096   4.135   0.407  11.766
 5967TIP3    H242097   4.041   0.326  11.852
 5968TIP3   OH242098   4.501   0.070  11.631
 5968TIP3    H142099   4.505  -0.026  11.640
 5968TIP3    H242100   4.504   0.086  11.537
 5969TIP3   OH242101   4.594   0.157  11.873
 5969TIP3    H142102   4.579   0.128  11.783
 5969TIP3    H242103   4.531   0.227  11.887
 5970TIP3   OH242104   4.534   1.835  10.181
 5970TIP3    H142105   4.629   1.825  10.175
 5970TIP3    H242106   4.509   1.877  10.099
 5971TIP3   OH242107   3.923   1.337  10.130
 5971TIP3    H142108   4.018   1.343  10.139
 5971TIP3    H242109   3.910   1.273  10.059
 5972TIP3   OH242110   3.770   1.815  10.645
 5972TIP3    H142111   3.717   1.775  10.576
 5972TIP3    H242112   3.794   1.741  10.702
 5973TIP3   OH242113   3.863   1.618  10.809
 5973TIP3    H142114   3.829   1.541  10.855
 5973TIP3    H242115   3.920   1.660  10.872
 5974TIP3   OH242116   5.623   1.704  11.092
 5974TIP3    H142117   5.616   1.718  11.186
 5974TIP3    H242118   5.703   1.750  11.067
 5975TIP3   OH242119   5.555   1.690  11.365
 5975TIP3    H142120   5.503   1.618  11.329
 5975TIP3    H242121   5.573   1.663  11.456
 5976TIP3   OH242122   5.553   1.092  10.396
 5976TIP3    H142123   5.628   1.151  10.405
 5976TIP3    H242124   5.557   1.037  10.474
 5977TIP3   OH242125   5.582   0.918  10.606
 5977TIP3    H142126   5.503   0.877  10.641
 5977TIP3    H242127   5.637   0.933  10.682
 5978TIP3   OH242128   5.569   1.205  11.058
 5978TIP3    H142129   5.633   1.137  11.041
 5978TIP3    H242130   5.608   1.284  11.021
 5979TIP3   OH242131   5.392   1.472  11.299
 5979TIP3    H142132   5.308   1.485  11.342
 5979TIP3    H242133   5.370   1.443  11.211
 5980TIP3   OH242134   5.622   0.905  10.208
 5980TIP3    H142135   5.547   0.906  10.148
 5980TIP3    H242136   5.602   0.972  10.273
 5981TIP3   OH242137   5.411   0.629  10.118
 5981TIP3    H142138   5.358   0.688  10.064
 5981TIP3    H242139   5.396   0.542  10.081
 5982TIP3   OH242140   5.357   0.773  10.674
 5982TIP3    H142141   5.350   0.685  10.637
 5982TIP3    H242142   5.318   0.766  10.761
 5983TIP3   OH242143   3.840   0.991  11.049
 5983TIP3    H142144   3.842   0.963  10.958
 5983TIP3    H242145   3.922   0.956  11.086
 5984TIP3   OH242146   5.448   0.952  11.623
 5984TIP3    H142147   5.505   0.883  11.657
 5984TIP3    H242148   5.506   1.026  11.606
 5985TIP3   OH242149   5.564   0.724  11.721
 5985TIP3    H142150   5.483   0.687  11.687
 5985TIP3    H242151   5.632   0.662  11.694
 5986TIP3   OH242152   5.372   0.379  10.018
 5986TIP3    H142153   5.454   0.336  10.043
 5986TIP3    H242154   5.306   0.310  10.023
 5987TIP3   OH242155   5.344   0.556  10.484
 5987TIP3    H142156   5.374   0.467  10.498
 5987TIP3    H242157   5.418   0.601  10.442
 5988TIP3   OH242158   5.418   0.569  11.045
 5988TIP3    H142159   5.511   0.588  11.033
 5988TIP3    H242160   5.401   0.588  11.137
 5989TIP3   OH242161   5.415   0.668  11.305
 5989TIP3    H142162   5.334   0.699  11.346
 5989TIP3    H242163   5.468   0.747  11.293
 5990TIP3   OH242164   3.846   0.480  11.615
 5990TIP3    H142165   3.924   0.469  11.669
 5990TIP3    H242166   3.791   0.405  11.637
 5991TIP3   OH242167   5.681   0.097  11.819
 5991TIP3    H142168   5.770   0.099  11.785
 5991TIP3    H242169   5.635   0.167  11.772
 5992TIP3   OH242170   5.426   0.299  10.515
 5992TIP3    H142171   5.439   0.255  10.598
 5992TIP3    H242172   5.358   0.247  10.471
 5993TIP3   OH242173   3.944   0.368  10.982
 5993TIP3    H142174   3.989   0.284  10.975
 5993TIP3    H242175   4.014   0.432  10.989
 5994TIP3   OH242176   3.792   0.655  11.044
 5994TIP3    H142177   3.858   0.654  10.975
 5994TIP3    H242178   3.842   0.665  11.125
 5995TIP3   OH242179   5.573   0.305  11.671
 5995TIP3    H142180   5.499   0.333  11.725
 5995TIP3    H242181   5.533   0.256  11.599
 5996TIP3   OH242182   5.617   0.284  10.115
 5996TIP3    H142183   5.684   0.236  10.066
 5996TIP3    H242184   5.667   0.342  10.172
 5997TIP3   OH242185   3.828   0.260  10.478
 5997TIP3    H142186   3.734   0.264  10.492
 5997TIP3    H242187   3.847   0.333  10.419
 5998TIP3   OH242188   5.298   1.739  10.658
 5998TIP3    H142189   5.371   1.728  10.597
 5998TIP3    H242190   5.335   1.789  10.731
 5999TIP3   OH242191   3.842   0.173  11.293
 5999TIP3    H142192   3.772   0.169  11.357
 5999TIP3    H242193   3.803   0.214  11.216
 6000TIP3   OH242194   4.025   1.443  11.707
 6000TIP3    H142195   4.002   1.406  11.621
 6000TIP3    H242196   3.997   1.376  11.770
 6001TIP3   OH242197   4.337   1.574  11.340
 6001TIP3    H142198   4.318   1.661  11.307
 6001TIP3    H242199   4.432   1.567  11.337
 6002TIP3   OH242200   4.749   1.684  11.615
 6002TIP3    H142201   4.760   1.659  11.707
 6002TIP3    H242202   4.831   1.728  11.592
 6003TIP3   OH242203   4.976   1.833  11.562
 6003TIP3    H142204   5.050   1.782  11.530
 6003TIP3    H242205   5.003   1.862  11.650
 6004TIP3   OH242206   5.505   0.136  11.458
 6004TIP3    H142207   5.428   0.178  11.420
 6004TIP3    H242208   5.484   0.042  11.457
 6005TIP3   OH242209   4.064   1.884  11.334
 6005TIP3    H142210   3.980   1.916  11.302
 6005TIP3    H242211   4.070   1.916  11.424
 6006TIP3   OH242212   4.318   1.833  11.245
 6006TIP3    H142213   4.230   1.854  11.274
 6006TIP3    H242214   4.329   1.884  11.164
 6007TIP3   OH242215   4.773   1.794  11.160
 6007TIP3    H142216   4.725   1.835  11.088
 6007TIP3    H242217   4.791   1.866  11.221
 6008TIP3   OH242218   4.995   1.666  11.270
 6008TIP3    H142219   4.918   1.708  11.231
 6008TIP3    H242220   5.066   1.728  11.254
 6009TIP3   OH242221   5.231   1.813  11.240
 6009TIP3    H142222   5.251   1.904  11.221
 6009TIP3    H242223   5.275   1.764  11.170
 6010TIP3   OH242224   4.024   1.711  11.024
 6010TIP3    H142225   4.015   1.662  11.106
 6010TIP3    H242226   4.103   1.676  10.984
 6011TIP3   OH242227   4.239   1.593  10.905
 6011TIP3    H142228   4.224   1.501  10.926
 6011TIP3    H242229   4.327   1.612  10.939
 6012TIP3   OH242230   4.495   1.621  11.019
 6012TIP3    H142231   4.507   1.530  10.992
 6012TIP3    H242232   4.522   1.622  11.111
 6013TIP3   OH242233   4.845   0.259  10.885
 6013TIP3    H142234   4.777   0.194  10.904
 6013TIP3    H242235   4.912   0.209  10.838
 6014TIP3   OH242236   5.317   0.112  10.911
 6014TIP3    H142237   5.388   0.145  10.856
 6014TIP3    H242238   5.239   0.156  10.879
 6015TIP3   OH242239   5.519   0.158  10.729
 6015TIP3    H142240   5.583   0.089  10.712
 6015TIP3    H242241   5.572   0.235  10.750
 6016TIP3   OH242242   4.021   0.135  10.653
 6016TIP3    H142243   3.947   0.156  10.596
 6016TIP3    H242244   4.030   0.040  10.645
 6017TIP3   OH242245   3.967   0.110  10.291
 6017TIP3    H142246   4.013   0.176  10.239
 6017TIP3    H242247   3.917   0.160  10.355
 6018TIP3   OH242248   4.512   0.107  10.655
 6018TIP3    H142249   4.589   0.135  10.606
 6018TIP3    H242250   4.537   0.119  10.747
 6019TIP3   OH242251   5.057   0.133  10.764
 6019TIP3    H142252   5.069   0.153  10.671
 6019TIP3    H242253   5.061   0.038  10.769
 6020TIP3   OH242254   5.238   0.151  10.385
 6020TIP3    H142255   5.150   0.186  10.396
 6020TIP3    H242256   5.227   0.056  10.387
 6021TIP3   OH242257   3.935   1.658  10.356
 6021TIP3    H142258   3.863   1.636  10.296
 6021TIP3    H242259   3.939   1.753  10.355
 6022TIP3   OH242260   4.125   0.251  10.115
 6022TIP3    H142261   4.159   0.172  10.073
 6022TIP3    H242262   4.198   0.285  10.166
 6023TIP3   OH242263   4.616   0.293  10.342
 6023TIP3    H142264   4.652   0.224  10.398
 6023TIP3    H242265   4.640   0.375  10.385
 6024TIP3   OH242266   4.802   1.776  10.161
 6024TIP3    H142267   4.895   1.798  10.167
 6024TIP3    H242268   4.795   1.720  10.084
 6025TIP3   OH242269   5.496   1.709  10.465
 6025TIP3    H142270   5.473   1.622  10.434
 6025TIP3    H242271   5.479   1.767  10.391
 6026TIP3   OH242272   4.021   0.029  11.683
 6026TIP3    H142273   4.075  -0.049  11.679
 6026TIP3    H242274   4.081   0.099  11.709
 6027TIP3   OH242275   4.269   0.102  11.803
 6027TIP3    H142276   4.346   0.139  11.761
 6027TIP3    H242277   4.265   0.012  11.772
 6028TIP3   OH242278   4.149   1.784  10.129
 6028TIP3    H142279   4.078   1.758  10.189
 6028TIP3    H242280   4.197   1.703  10.112
 6029TIP3   OH242281   5.085   0.056  11.810
 6029TIP3    H142282   5.023  -0.013  11.835
 6029TIP3    H242283   5.154   0.011  11.762
 6030TIP3   OH242284   5.440   1.619  11.626
 6030TIP3    H142285   5.397   1.542  11.664
 6030TIP3    H242286   5.368   1.670  11.589
 6031TIP3   OH242287   6.860   0.983  10.665
 6031TIP3    H142288   6.849   1.076  10.684
 6031TIP3    H242289   6.796   0.965  10.596
 6032TIP3   OH242290   6.734   0.912  11.022
 6032TIP3    H142291   6.758   0.873  11.106
 6032TIP3    H242292   6.689   0.843  10.975
 6033TIP3   OH242293   5.954   0.870  11.177
 6033TIP3    H142294   5.964   0.782  11.212
 6033TIP3    H242295   6.018   0.923  11.226
 6034TIP3   OH242296   7.114   1.215  10.862
 6034TIP3    H142297   7.083   1.141  10.914
 6034TIP3    H242298   7.139   1.281  10.927
 6035TIP3   OH242299   6.084   1.334  10.968
 6035TIP3    H142300   6.054   1.245  10.952
 6035TIP3    H242301   6.176   1.325  10.991
 6036TIP3   OH242302   5.744   0.673  10.549
 6036TIP3    H142303   5.712   0.752  10.594
 6036TIP3    H242304   5.681   0.658  10.479
 6037TIP3   OH242305   5.792   0.915  10.791
 6037TIP3    H142306   5.824   0.829  10.819
 6037TIP3    H242307   5.870   0.969  10.783
 6038TIP3   OH242308   6.833   1.719  10.865
 6038TIP3    H142309   6.874   1.657  10.805
 6038TIP3    H242310   6.788   1.664  10.930
 6039TIP3   OH242311   6.578   1.173  11.053
 6039TIP3    H142312   6.616   1.097  11.009
 6039TIP3    H242313   6.645   1.201  11.115
 6040TIP3   OH242314   7.440   0.324  11.079
 6040TIP3    H142315   7.453   0.390  11.147
 6040TIP3    H242316   7.466   0.368  10.998
 6041TIP3   OH242317   6.919   0.590  11.073
 6041TIP3    H142318   6.947   0.500  11.088
 6041TIP3    H242319   6.902   0.595  10.979
 6042TIP3   OH242320   6.243   0.396  10.782
 6042TIP3    H142321   6.252   0.484  10.746
 6042TIP3    H242322   6.198   0.347  10.713
 6043TIP3   OH242323   7.012   0.453  10.631
 6043TIP3    H142324   7.054   0.419  10.710
 6043TIP3    H242325   7.083   0.492  10.581
 6044TIP3   OH242326   5.895   0.673  10.873
 6044TIP3    H142327   5.963   0.638  10.930
 6044TIP3    H242328   5.912   0.633  10.787
 6045TIP3   OH242329   6.384   0.796  10.828
 6045TIP3    H142330   6.466   0.753  10.855
 6045TIP3    H242331   6.341   0.732  10.772
 6046TIP3   OH242332   7.464   0.459  11.317
 6046TIP3    H142333   7.399   0.529  11.320
 6046TIP3    H242334   7.506   0.462  11.403
 6047TIP3   OH242335   6.118   0.331  11.207
 6047TIP3    H142336   6.086   0.386  11.135
 6047TIP3    H242337   6.048   0.332  11.272
 6048TIP3   OH242338   6.818   1.252  10.546
 6048TIP3    H142339   6.806   1.250  10.451
 6048TIP3    H242340   6.768   1.328  10.575
 6049TIP3   OH242341   6.354   1.085  11.187
 6049TIP3    H142342   6.298   1.157  11.217
 6049TIP3    H242343   6.427   1.128  11.143
 6050TIP3   OH242344   7.129   0.381  10.865
 6050TIP3    H142345   7.073   0.341  10.932
 6050TIP3    H242346   7.189   0.436  10.914
 6051TIP3   OH242347   6.081   0.497  10.985
 6051TIP3    H142348   6.145   0.547  11.037
 6051TIP3    H242349   6.133   0.456  10.916
 6052TIP3   OH242350   6.204   1.297  11.281
 6052TIP3    H142351   6.208   1.392  11.272
 6052TIP3    H242352   6.120   1.281  11.324
 6053TIP3   OH242353   5.786   1.243  10.398
 6053TIP3    H142354   5.779   1.291  10.316
 6053TIP3    H242355   5.809   1.309  10.463
 6054TIP3   OH242356   7.158   1.416  11.059
 6054TIP3    H142357   7.065   1.420  11.081
 6054TIP3    H242358   7.181   1.506  11.037
 6055TIP3   OH242359   7.206   0.198  11.221
 6055TIP3    H142360   7.123   0.221  11.180
 6055TIP3    H242361   7.271   0.210  11.152
 6056TIP3   OH242362   6.506   0.103  10.921
 6056TIP3    H142363   6.509   0.011  10.945
 6056TIP3    H242364   6.432   0.138  10.971
 6057TIP3   OH242365   6.968   1.564  10.675
 6057TIP3    H142366   7.008   1.479  10.658
 6057TIP3    H242367   7.042   1.624  10.686
 6058TIP3   OH242368   7.088   1.324  10.610
 6058TIP3    H142369   7.011   1.277  10.577
 6058TIP3    H242370   7.108   1.283  10.693
 6059TIP3   OH242371   7.252   1.224  11.433
 6059TIP3    H142372   7.244   1.165  11.358
 6059TIP3    H242373   7.268   1.310  11.395
 6060TIP3   OH242374   6.727   0.934  10.425
 6060TIP3    H142375   6.660   1.000  10.409
 6060TIP3    H242376   6.785   0.940  10.349
 6061TIP3   OH242377   6.749   0.762  10.122
 6061TIP3    H142378   6.820   0.807  10.168
 6061TIP3    H242379   6.788   0.679  10.094
 6062TIP3   OH242380   7.409   0.862  11.215
 6062TIP3    H142381   7.343   0.932  11.215
 6062TIP3    H242382   7.467   0.884  11.141
 6063TIP3   OH242383   7.078   0.946  10.503
 6063TIP3    H142384   7.008   0.962  10.566
 6063TIP3    H242385   7.142   0.894  10.552
 6064TIP3   OH242386   7.043   0.771  11.418
 6064TIP3    H142387   7.042   0.852  11.469
 6064TIP3    H242388   6.972   0.781  11.355
 6065TIP3   OH242389   6.230   0.995  10.704
 6065TIP3    H142390   6.196   0.961  10.622
 6065TIP3    H242391   6.286   0.925  10.739
 6066TIP3   OH242392   6.369   1.350  10.961
 6066TIP3    H142393   6.366   1.351  10.866
 6066TIP3    H242394   6.443   1.292  10.982
 6067TIP3   OH242395   6.239   0.880  11.047
 6067TIP3    H142396   6.295   0.862  10.972
 6067TIP3    H242397   6.283   0.951  11.094
 6068TIP3   OH242398   6.901   1.430  11.146
 6068TIP3    H142399   6.881   1.500  11.208
 6068TIP3    H242400   6.857   1.353  11.182
 6069TIP3   OH242401   6.375   1.316  11.500
 6069TIP3    H142402   6.313   1.369  11.550
 6069TIP3    H242403   6.328   1.295  11.419
 6070TIP3   OH242404   6.966   0.877  10.263
 6070TIP3    H142405   7.003   0.907  10.345
 6070TIP3    H242406   7.021   0.916  10.195
 6071TIP3   OH242407   6.049   0.931  11.456
 6071TIP3    H142408   6.057   1.001  11.521
 6071TIP3    H242409   5.956   0.911  11.455
 6072TIP3   OH242410   6.713   1.513  10.580
 6072TIP3    H142411   6.797   1.537  10.620
 6072TIP3    H242412   6.683   1.593  10.538
 6073TIP3   OH242413   6.184   1.484  11.603
 6073TIP3    H142414   6.174   1.520  11.515
 6073TIP3    H242415   6.094   1.471  11.633
 6074TIP3   OH242416   7.310   0.111  10.201
 6074TIP3    H142417   7.240   0.138  10.261
 6074TIP3    H242418   7.375   0.181  10.207
 6075TIP3   OH242419   6.123   0.909  10.457
 6075TIP3    H142420   6.079   0.974  10.403
 6075TIP3    H242421   6.067   0.831  10.450
 6076TIP3   OH242422   7.471   1.474  10.141
 6076TIP3    H142423   7.490   1.568  10.141
 6076TIP3    H242424   7.555   1.432  10.126
 6077TIP3   OH242425   5.753   1.138  11.357
 6077TIP3    H142426   5.714   1.134  11.269
 6077TIP3    H242427   5.765   1.046  11.381
 6078TIP3   OH242428   5.736   1.425  10.997
 6078TIP3    H142429   5.828   1.404  11.013
 6078TIP3    H242430   5.713   1.488  11.065
 6079TIP3   OH242431   7.532   1.498  11.595
 6079TIP3    H142432   7.535   1.402  11.594
 6079TIP3    H242433   7.447   1.518  11.634
 6080TIP3   OH242434   6.620   1.435  11.488
 6080TIP3    H142435   6.616   1.517  11.537
 6080TIP3    H242436   6.532   1.398  11.498
 6081TIP3   OH242437   6.690   1.784  10.445
 6081TIP3    H142438   6.669   1.801  10.354
 6081TIP3    H242439   6.667   1.865  10.491
 6082TIP3   OH242440   6.034   1.669  10.664
 6082TIP3    H142441   6.062   1.644  10.752
 6082TIP3    H242442   5.973   1.600  10.638
 6083TIP3   OH242443   6.955   1.774  10.165
 6083TIP3    H142444   6.994   1.701  10.117
 6083TIP3    H242445   6.974   1.755  10.257
 6084TIP3   OH242446   6.958   1.724  10.437
 6084TIP3    H142447   6.864   1.738  10.446
 6084TIP3    H242448   6.980   1.662  10.506
 6085TIP3   OH242449   7.161   0.623  11.646
 6085TIP3    H142450   7.161   0.682  11.571
 6085TIP3    H242451   7.215   0.549  11.619
 6086TIP3   OH242452   5.972   1.288  11.427
 6086TIP3    H142453   5.995   1.251  11.512
 6086TIP3    H242454   5.893   1.242  11.401
 6087TIP3   OH242455   6.262   0.188  11.022
 6087TIP3    H142456   6.203   0.209  10.949
 6087TIP3    H242457   6.226   0.237  11.096
 6088TIP3   OH242458   6.639   0.140  11.437
 6088TIP3    H142459   6.693   0.061  11.429
 6088TIP3    H242460   6.573   0.132  11.368
 6089TIP3   OH242461   6.983   0.491  11.442
 6089TIP3    H142462   6.931   0.471  11.520
 6089TIP3    H242463   6.998   0.585  11.447
 6090TIP3   OH242464   7.122   0.997  10.073
 6090TIP3    H142465   7.068   1.049  10.013
 6090TIP3    H242466   7.168   1.061  10.126
 6091TIP3   OH242467   6.629   0.366  10.115
 6091TIP3    H142468   6.587   0.336  10.195
 6091TIP3    H242469   6.557   0.377  10.053
 6092TIP3   OH242470   6.242   0.632  11.160
 6092TIP3    H142471   6.174   0.631  11.227
 6092TIP3    H242472   6.242   0.721  11.126
 6093TIP3   OH242473   6.235   0.640  10.661
 6093TIP3    H142474   6.140   0.630  10.655
 6093TIP3    H242475   6.267   0.620  10.573
 6094TIP3   OH242476   6.799   0.680  10.518
 6094TIP3    H142477   6.772   0.768  10.489
 6094TIP3    H242478   6.867   0.654  10.456
 6095TIP3   OH242479   6.693   0.693  11.647
 6095TIP3    H142480   6.647   0.619  11.686
 6095TIP3    H242481   6.778   0.695  11.690
 6096TIP3   OH242482   6.878   0.638  10.801
 6096TIP3    H142483   6.847   0.710  10.746
 6096TIP3    H242484   6.905   0.571  10.738
 6097TIP3   OH242485   6.005   0.628  11.313
 6097TIP3    H142486   6.032   0.665  11.397
 6097TIP3    H242487   5.961   0.546  11.335
 6098TIP3   OH242488   6.334   0.400  10.023
 6098TIP3    H142489   6.297   0.382  10.109
 6098TIP3    H242490   6.259   0.428   9.970
 6099TIP3   OH242491   5.677   0.375  10.751
 6099TIP3    H142492   5.732   0.389  10.828
 6099TIP3    H242493   5.738   0.380  10.677
 6100TIP3   OH242494   5.766   0.449  10.283
 6100TIP3    H142495   5.845   0.487  10.245
 6100TIP3    H242496   5.710   0.524  10.301
 6101TIP3   OH242497   6.820   0.771  11.247
 6101TIP3    H142498   6.860   0.709  11.187
 6101TIP3    H242499   6.757   0.720  11.296
 6102TIP3   OH242500   6.527   0.384  10.737
 6102TIP3    H142501   6.437   0.380  10.769
 6102TIP3    H242502   6.581   0.368  10.815
 6103TIP3   OH242503   5.975   0.558  10.636
 6103TIP3    H142504   5.895   0.585  10.590
 6103TIP3    H242505   5.997   0.473  10.596
 6104TIP3   OH242506   6.320   0.565  10.416
 6104TIP3    H142507   6.416   0.568  10.424
 6104TIP3    H242508   6.301   0.620  10.340
 6105TIP3   OH242509   6.947   0.307  11.075
 6105TIP3    H142510   6.904   0.310  11.160
 6105TIP3    H242511   6.876   0.293  11.013
 6106TIP3   OH242512   6.217   0.689  10.199
 6106TIP3    H142513   6.133   0.670  10.158
 6106TIP3    H242514   6.274   0.714  10.127
 6107TIP3   OH242515   7.258   1.848  11.737
 6107TIP3    H142516   7.283   1.889  11.654
 6107TIP3    H242517   7.334   1.861  11.794
 6108TIP3   OH242518   6.027   1.129  11.659
 6108TIP3    H142519   6.093   1.128  11.728
 6108TIP3    H242520   5.944   1.114  11.704
 6109TIP3   OH242521   6.610   0.662  10.927
 6109TIP3    H142522   6.689   0.622  10.891
 6109TIP3    H242523   6.584   0.605  10.999
 6110TIP3   OH242524   6.088   0.311  10.562
 6110TIP3    H142525   6.030   0.241  10.594
 6110TIP3    H242526   6.130   0.274  10.485
 6111TIP3   OH242527   6.502   0.535  11.158
 6111TIP3    H142528   6.417   0.579  11.161
 6111TIP3    H242529   6.550   0.570  11.233
 6112TIP3   OH242530   6.534   1.135  10.359
 6112TIP3    H142531   6.467   1.077  10.323
 6112TIP3    H242532   6.504   1.155  10.448
 6113TIP3   OH242533   7.226   1.070  11.208
 6113TIP3    H142534   7.286   1.122  11.155
 6113TIP3    H242535   7.152   1.052  11.150
 6114TIP3   OH242536   6.891   0.371  10.221
 6114TIP3    H142537   6.810   0.380  10.171
 6114TIP3    H242538   6.919   0.460  10.237
 6115TIP3   OH242539   6.669   1.144  11.482
 6115TIP3    H142540   6.686   1.106  11.568
 6115TIP3    H242541   6.646   1.235  11.500
 6116TIP3   OH242542   6.997   0.609  10.325
 6116TIP3    H142543   7.080   0.591  10.368
 6116TIP3    H242544   7.003   0.700  10.297
 6117TIP3   OH242545   6.054   1.058  10.910
 6117TIP3    H142546   6.115   1.047  10.838
 6117TIP3    H242547   6.082   0.993  10.975
 6118TIP3   OH242548   6.762   1.270  10.270
 6118TIP3    H142549   6.730   1.360  10.266
 6118TIP3    H242550   6.684   1.217  10.286
 6119TIP3   OH242551   5.774   0.877  11.456
 6119TIP3    H142552   5.765   0.818  11.530
 6119TIP3    H242553   5.701   0.855  11.398
 6120TIP3   OH242554   6.466   0.859  11.649
 6120TIP3    H142555   6.410   0.821  11.582
 6120TIP3    H242556   6.550   0.815  11.638
 6121TIP3   OH242557   6.899   1.400  11.481
 6121TIP3    H142558   6.805   1.408  11.463
 6121TIP3    H242559   6.909   1.431  11.571
 6122TIP3   OH242560   7.441   0.648  10.314
 6122TIP3    H142561   7.402   0.619  10.231
 6122TIP3    H242562   7.479   0.734  10.293
 6123TIP3   OH242563   7.487   1.215  11.571
 6123TIP3    H142564   7.395   1.231  11.548
 6123TIP3    H242565   7.528   1.190  11.489
 6124TIP3   OH242566   7.308   1.463  10.368
 6124TIP3    H142567   7.252   1.386  10.379
 6124TIP3    H242568   7.354   1.447  10.285
 6125TIP3   OH242569   7.029   0.995  11.022
 6125TIP3    H142570   6.935   0.982  11.014
 6125TIP3    H242571   7.068   0.918  10.981
 6126TIP3   OH242572   6.293   1.407  10.690
 6126TIP3    H142573   6.312   1.491  10.650
 6126TIP3    H242574   6.198   1.398  10.684
 6127TIP3   OH242575   5.885   0.874  10.127
 6127TIP3    H142576   5.932   0.945  10.170
 6127TIP3    H242577   5.793   0.889  10.149
 6128TIP3   OH242578   6.415   1.177  10.599
 6128TIP3    H142579   6.386   1.263  10.629
 6128TIP3    H242580   6.356   1.115  10.642
 6129TIP3   OH242581   6.494   1.596  11.284
 6129TIP3    H142582   6.552   1.667  11.259
 6129TIP3    H242583   6.548   1.539  11.339
 6130TIP3   OH242584   6.294   1.664  10.573
 6130TIP3    H142585   6.202   1.680  10.593
 6130TIP3    H242586   6.339   1.742  10.603
 6131TIP3   OH242587   6.788   1.187  11.238
 6131TIP3    H142588   6.746   1.168  11.322
 6131TIP3    H242589   6.859   1.124  11.231
 6132TIP3   OH242590   7.022   1.285  10.153
 6132TIP3    H142591   7.077   1.247  10.220
 6132TIP3    H242592   6.933   1.279  10.188
 6133TIP3   OH242593   7.101   1.613  11.447
 6133TIP3    H142594   7.020   1.563  11.437
 6133TIP3    H242595   7.092   1.686  11.386
 6134TIP3   OH242596   7.545   1.742  10.155
 6134TIP3    H142597   7.620   1.801  10.164
 6134TIP3    H242598   7.470   1.794  10.183
 6135TIP3   OH242599   5.909   0.370  11.381
 6135TIP3    H142600   5.824   0.353  11.342
 6135TIP3    H242601   5.915   0.308  11.453
 6136TIP3   OH242602   7.183   1.143  10.330
 6136TIP3    H142603   7.140   1.091  10.398
 6136TIP3    H242604   7.276   1.139  10.351
 6137TIP3   OH242605   5.894   1.549  11.240
 6137TIP3    H142606   5.929   1.469  11.279
 6137TIP3    H242607   5.886   1.610  11.314
 6138TIP3   OH242608   6.340   1.343  10.237
 6138TIP3    H142609   6.405   1.295  10.288
 6138TIP3    H242610   6.353   1.435  10.263
 6139TIP3   OH242611   5.983   1.080  10.287
 6139TIP3    H142612   5.913   1.123  10.336
 6139TIP3    H242613   6.028   1.151  10.242
 6140TIP3   OH242614   6.805   0.330  11.309
 6140TIP3    H142615   6.870   0.374  11.363
 6140TIP3    H242616   6.756   0.275  11.370
 6141TIP3   OH242617   6.872   0.276  10.475
 6141TIP3    H142618   6.867   0.311  10.386
 6141TIP3    H242619   6.908   0.348  10.527
 6142TIP3   OH242620   6.639   1.514  10.259
 6142TIP3    H142621   6.552   1.534  10.295
 6142TIP3    H242622   6.679   1.600  10.245
 6143TIP3   OH242623   6.581   0.514  10.499
 6143TIP3    H142624   6.657   0.571  10.508
 6143TIP3    H242625   6.565   0.481  10.587
 6144TIP3   OH242626   6.659   0.597  11.385
 6144TIP3    H142627   6.667   0.629  11.475
 6144TIP3    H242628   6.697   0.509  11.388
 6145TIP3   OH242629   6.629   0.188  10.564
 6145TIP3    H142630   6.610   0.256  10.628
 6145TIP3    H242631   6.718   0.206  10.534
 6146TIP3   OH242632   6.383   1.602  10.321
 6146TIP3    H142633   6.384   1.687  10.278
 6146TIP3    H242634   6.352   1.620  10.410
 6147TIP3   OH242635   6.227   0.337  10.275
 6147TIP3    H142636   6.224   0.420  10.324
 6147TIP3    H242637   6.313   0.301  10.297
 6148TIP3   OH242638   7.229   0.378  11.485
 6148TIP3    H142639   7.140   0.407  11.465
 6148TIP3    H242640   7.272   0.372  11.400
 6149TIP3   OH242641   7.115   0.758  10.899
 6149TIP3    H142642   7.029   0.720  10.878
 6149TIP3    H242643   7.157   0.693  10.956
 6150TIP3   OH242644   6.078   1.305  10.146
 6150TIP3    H142645   6.153   1.341  10.194
 6150TIP3    H242646   6.117   1.245  10.082
 6151TIP3   OH242647   5.940   0.610  10.121
 6151TIP3    H142648   5.923   0.704  10.125
 6151TIP3    H242649   5.891   0.580  10.044
 6152TIP3   OH242650   7.251   1.681  11.056
 6152TIP3    H142651   7.236   1.752  10.993
 6152TIP3    H242652   7.347   1.679  11.067
 6153TIP3   OH242653   5.997   0.156  10.914
 6153TIP3    H142654   5.970   0.157  10.822
 6153TIP3    H242655   5.977   0.068  10.945
 6154TIP3   OH242656   5.846   1.473  10.552
 6154TIP3    H142657   5.784   1.505  10.618
 6154TIP3    H242658   5.839   1.535  10.480
 6155TIP3   OH242659   5.811   1.744  11.677
 6155TIP3    H142660   5.892   1.699  11.704
 6155TIP3    H242661   5.755   1.673  11.646
 6156TIP3   OH242662   6.254   1.642  11.823
 6156TIP3    H142663   6.330   1.600  11.862
 6156TIP3    H242664   6.232   1.586  11.748
 6157TIP3   OH242665   6.673   1.578   9.976
 6157TIP3    H142666   6.614   1.516  10.018
 6157TIP3    H242667   6.758   1.536   9.978
 6158TIP3   OH242668   6.897   1.495  11.740
 6158TIP3    H142669   6.869   1.413  11.780
 6158TIP3    H242670   6.974   1.521  11.790
 6159TIP3   OH242671   7.056   1.544  10.050
 6159TIP3    H142672   7.046   1.456  10.084
 6159TIP3    H242673   7.146   1.547  10.017
 6160TIP3   OH242674   5.776   1.098  11.782
 6160TIP3    H142675   5.766   1.003  11.776
 6160TIP3    H242676   5.711   1.132  11.720
 6161TIP3   OH242677   6.256   1.119  10.049
 6161TIP3    H142678   6.274   1.057  10.119
 6161TIP3    H242679   6.322   1.187  10.060
 6162TIP3   OH242680   6.432   1.136  11.703
 6162TIP3    H142681   6.419   1.180  11.619
 6162TIP3    H242682   6.451   1.045  11.679
 6163TIP3   OH242683   7.002   1.128  11.497
 6163TIP3    H142684   7.091   1.159  11.483
 6163TIP3    H242685   6.947   1.206  11.487
 6164TIP3   OH242686   5.916   0.819  11.747
 6164TIP3    H142687   5.997   0.769  11.737
 6164TIP3    H242688   5.922   0.857  11.835
 6165TIP3   OH242689   6.346   0.960  10.261
 6165TIP3    H142690   6.283   0.917  10.319
 6165TIP3    H242691   6.386   0.889  10.211
 6166TIP3   OH242692   6.257   0.748  11.448
 6166TIP3    H142693   6.190   0.817  11.452
 6166TIP3    H242694   6.326   0.785  11.393
 6167TIP3   OH242695   6.474   0.780  10.088
 6167TIP3    H142696   6.478   0.776   9.993
 6167TIP3    H242697   6.565   0.776  10.117
 6168TIP3   OH242698   6.785   1.017  11.770
 6168TIP3    H142699   6.873   0.986  11.749
 6168TIP3    H242700   6.750   0.950  11.829
 6169TIP3   OH242701   7.339   1.003  19.967
 6169TIP3    H142702   7.368   0.915  19.944
 6169TIP3    H242703   7.418   1.056  19.961
 6170TIP3   OH242704   6.329   0.507  11.559
 6170TIP3    H142705   6.344   0.443  11.490
 6170TIP3    H242706   6.308   0.588  11.512
 6171TIP3   OH242707   6.364   0.351  11.326
 6171TIP3    H142708   6.420   0.399  11.264
 6171TIP3    H242709   6.277   0.355  11.287
 6172TIP3   OH242710   6.464   0.873  11.325
 6172TIP3    H142711   6.555   0.897  11.342
 6172TIP3    H242712   6.427   0.949  11.279
 6173TIP3   OH242713   6.926   0.637  11.805
 6173TIP3    H142714   6.934   0.542  11.814
 6173TIP3    H242715   7.008   0.665  11.766
 6174TIP3   OH242716   7.052   0.952  11.697
 6174TIP3    H142717   7.025   1.017  11.632
 6174TIP3    H242718   7.145   0.938  11.679
 6175TIP3   OH242719   6.147   0.576  11.762
 6175TIP3    H142720   6.073   0.517  11.749
 6175TIP3    H242721   6.206   0.557  11.690
 6176TIP3   OH242722   6.409   0.082  11.292
 6176TIP3    H142723   6.395   0.174  11.316
 6176TIP3    H242724   6.328   0.057  11.247
 6177TIP3   OH242725   6.552   0.472  11.726
 6177TIP3    H142726   6.518   0.439  11.809
 6177TIP3    H242727   6.475   0.477  11.669
 6178TIP3   OH242728   6.809   0.401  11.629
 6178TIP3    H142729   6.720   0.405  11.664
 6178TIP3    H242730   6.861   0.361  11.699
 6179TIP3   OH242731   6.980   0.330  11.839
 6179TIP3    H142732   6.983   0.237  11.818
 6179TIP3    H242733   6.953   0.334  11.930
 6180TIP3   OH242734   5.944   0.388  11.745
 6180TIP3    H142735   5.925   0.303  11.705
 6180TIP3    H242736   5.953   0.369  11.838
 6181TIP3   OH242737   6.413   0.082  11.623
 6181TIP3    H142738   6.409  -0.014  11.621
 6181TIP3    H242739   6.482   0.104  11.560
 6182TIP3   OH242740   6.493   0.179  11.863
 6182TIP3    H142741   6.478   0.137  11.778
 6182TIP3    H242742   6.423   0.244  11.870
 6183TIP3   OH242743   6.419   1.844  10.196
 6183TIP3    H142744   6.513   1.838  10.178
 6183TIP3    H242745   6.385   1.902  10.128
 6184TIP3   OH242746   5.803   1.338  10.135
 6184TIP3    H142747   5.898   1.348  10.142
 6184TIP3    H242748   5.792   1.276  10.063
 6185TIP3   OH242749   5.685   1.820  10.626
 6185TIP3    H142750   5.624   1.784  10.561
 6185TIP3    H242751   5.704   1.747  10.684
 6186TIP3   OH242752   5.754   1.617  10.795
 6186TIP3    H142753   5.717   1.543  10.842
 6186TIP3    H242754   5.803   1.665  10.862
 6187TIP3   OH242755   7.525   1.704  11.125
 6187TIP3    H142756   7.511   1.691  11.219
 6187TIP3    H242757   7.538   1.799  11.116
 6188TIP3   OH242758   7.446   1.674  11.395
 6188TIP3    H142759   7.390   1.604  11.361
 6188TIP3    H242760   7.497   1.633  11.465
 6189TIP3   OH242761   7.311   1.254  11.883
 6189TIP3    H142762   7.226   1.265  11.926
 6189TIP3    H242763   7.362   1.330  11.911
 6190TIP3   OH242764   7.452   1.095  10.389
 6190TIP3    H142765   7.522   1.159  10.403
 6190TIP3    H242766   7.460   1.035  10.463
 6191TIP3   OH242767   7.472   0.912  10.598
 6191TIP3    H142768   7.386   0.877  10.621
 6191TIP3    H242769   7.509   0.943  10.681
 6192TIP3   OH242770   7.441   1.182  11.087
 6192TIP3    H142771   7.493   1.120  11.035
 6192TIP3    H242772   7.470   1.268  11.058
 6193TIP3   OH242773   7.286   1.466  11.304
 6193TIP3    H142774   7.212   1.510  11.346
 6193TIP3    H242775   7.255   1.442  11.217
 6194TIP3   OH242776   7.506   0.895  10.206
 6194TIP3    H142777   7.451   0.912  10.130
 6194TIP3    H242778   7.489   0.969  10.265
 6195TIP3   OH242779   7.319   0.609  10.075
 6195TIP3    H142780   7.268   0.669  10.021
 6195TIP3    H242781   7.293   0.522  10.045
 6196TIP3   OH242782   7.241   0.781  10.656
 6196TIP3    H142783   7.239   0.690  10.624
 6196TIP3    H242784   7.204   0.776  10.744
 6197TIP3   OH242785   5.743   0.992  11.054
 6197TIP3    H142786   5.749   0.971  10.961
 6197TIP3    H242787   5.825   0.959  11.091
 6198TIP3   OH242788   7.317   0.955  11.629
 6198TIP3    H142789   7.373   0.879  11.615
 6198TIP3    H242790   7.363   1.027  11.586
 6199TIP3   OH242791   7.473   0.731  11.631
 6199TIP3    H142792   7.444   0.717  11.722
 6199TIP3    H242793   7.501   0.644  11.602
 6200TIP3   OH242794   7.247   0.355  10.011
 6200TIP3    H142795   7.321   0.303  10.044
 6200TIP3    H242796   7.170   0.301  10.029
 6201TIP3   OH242797   7.232   0.550  10.477
 6201TIP3    H142798   7.262   0.461  10.495
 6201TIP3    H242799   7.303   0.589  10.425
 6202TIP3   OH242800   7.246   0.561  11.038
 6202TIP3    H142801   7.338   0.577  11.019
 6202TIP3    H242802   7.239   0.571  11.133
 6203TIP3   OH242803   7.266   0.648  11.302
 6203TIP3    H142804   7.186   0.686  11.339
 6203TIP3    H242805   7.317   0.723  11.273
 6204TIP3   OH242806   5.731   0.526  11.638
 6204TIP3    H142807   5.817   0.496  11.666
 6204TIP3    H242808   5.674   0.449  11.648
 6205TIP3   OH242809   7.604   0.085  11.860
 6205TIP3    H142810   7.691   0.086  11.819
 6205TIP3    H242811   7.549   0.134  11.799
 6206TIP3   OH242812   7.289   0.286  10.527
 6206TIP3    H142813   7.305   0.229  10.602
 6206TIP3    H242814   7.220   0.241  10.478
 6207TIP3   OH242815   5.833   0.366  10.976
 6207TIP3    H142816   5.880   0.283  10.970
 6207TIP3    H242817   5.901   0.432  10.988
 6208TIP3   OH242818   5.680   0.648  11.050
 6208TIP3    H142819   5.747   0.653  10.982
 6208TIP3    H242820   5.721   0.685  11.127
 6209TIP3   OH242821   7.451   0.250  11.705
 6209TIP3    H142822   7.376   0.294  11.746
 6209TIP3    H242823   7.415   0.208  11.627
 6210TIP3   OH242824   7.515   0.294  10.151
 6210TIP3    H142825   7.577   0.228  10.118
 6210TIP3    H242826   7.562   0.377  10.143
 6211TIP3   OH242827   5.708   0.265  10.479
 6211TIP3    H142828   5.613   0.269  10.493
 6211TIP3    H242829   5.726   0.336  10.417
 6212TIP3   OH242830   7.170   1.739  10.674
 6212TIP3    H142831   7.236   1.732  10.605
 6212TIP3    H242832   7.214   1.789  10.743
 6213TIP3   OH242833   5.720   0.170  11.293
 6213TIP3    H142834   5.652   0.170  11.361
 6213TIP3    H242835   5.678   0.210  11.217
 6214TIP3   OH242836   5.930   1.467  11.711
 6214TIP3    H142837   5.845   1.465  11.665
 6214TIP3    H242838   5.914   1.420  11.793
 6215TIP3   OH242839   6.224   1.572  11.337
 6215TIP3    H142840   6.196   1.658  11.305
 6215TIP3    H242841   6.320   1.574  11.332
 6216TIP3   OH242842   6.613   1.688  11.607
 6216TIP3    H142843   6.623   1.667  11.700
 6216TIP3    H242844   6.691   1.740  11.586
 6217TIP3   OH242845   6.847   1.834  11.576
 6217TIP3    H142846   6.912   1.774  11.541
 6217TIP3    H242847   6.885   1.864  11.659
 6218TIP3   OH242848   7.357   0.115  11.485
 6218TIP3    H142849   7.279   0.157  11.449
 6218TIP3    H242850   7.341   0.021  11.472
 6219TIP3   OH242851   5.944   1.874  11.348
 6219TIP3    H142852   5.863   1.910  11.313
 6219TIP3    H242853   5.948   1.907  11.438
 6220TIP3   OH242854   6.196   1.832  11.247
 6220TIP3    H142855   6.107   1.849  11.276
 6220TIP3    H242856   6.205   1.881  11.165
 6221TIP3   OH242857   6.651   1.798  11.167
 6221TIP3    H142858   6.601   1.833  11.094
 6221TIP3    H242859   6.665   1.873  11.225
 6222TIP3   OH242860   6.872   1.675  11.279
 6222TIP3    H142861   6.793   1.711  11.240
 6222TIP3    H242862   6.941   1.738  11.258
 6223TIP3   OH242863   7.114   1.823  11.253
 6223TIP3    H142864   7.129   1.914  11.228
 6223TIP3    H242865   7.160   1.772  11.186
 6224TIP3   OH242866   5.905   1.716  11.019
 6224TIP3    H142867   5.896   1.667  11.100
 6224TIP3    H242868   5.987   1.684  10.980
 6225TIP3   OH242869   6.126   1.600  10.912
 6225TIP3    H142870   6.110   1.508  10.933
 6225TIP3    H242871   6.213   1.618  10.949
 6226TIP3   OH242872   6.381   1.620  11.028
 6226TIP3    H142873   6.388   1.529  11.000
 6226TIP3    H242874   6.409   1.620  11.119
 6227TIP3   OH242875   6.726   0.272  10.903
 6227TIP3    H142876   6.657   0.207  10.920
 6227TIP3    H242877   6.791   0.226  10.851
 6228TIP3   OH242878   7.184   0.095  10.925
 6228TIP3    H142879   7.246   0.124  10.859
 6228TIP3    H242880   7.100   0.132  10.897
 6229TIP3   OH242881   7.372   0.097  10.716
 6229TIP3    H142882   7.421   0.016  10.700
 6229TIP3    H242883   7.439   0.162  10.735
 6230TIP3   OH242884   5.907   0.129  10.654
 6230TIP3    H142885   5.834   0.147  10.595
 6230TIP3    H242886   5.921   0.035  10.648
 6231TIP3   OH242887   5.871   0.108  10.324
 6231TIP3    H142888   5.906   0.168  10.257
 6231TIP3    H242889   5.809   0.161  10.373
 6232TIP3   OH242890   6.389   0.105  10.666
 6232TIP3    H142891   6.463   0.132  10.612
 6232TIP3    H242892   6.418   0.120  10.756
 6233TIP3   OH242893   6.930   0.147  10.771
 6233TIP3    H142894   6.947   0.175  10.681
 6233TIP3    H242895   6.939   0.052  10.770
 6234TIP3   OH242896   7.104   0.153  10.382
 6234TIP3    H142897   7.018   0.191  10.395
 6234TIP3    H242898   7.091   0.059  10.392
 6235TIP3   OH242899   5.819   1.658  10.354
 6235TIP3    H142900   5.745   1.646  10.294
 6235TIP3    H242901   5.827   1.753  10.363
 6236TIP3   OH242902   6.003   0.237  10.120
 6236TIP3    H142903   6.039   0.160  10.076
 6236TIP3    H242904   6.077   0.274  10.168
 6237TIP3   OH242905   6.495   0.298  10.349
 6237TIP3    H142906   6.531   0.232  10.407
 6237TIP3    H242907   6.516   0.382  10.391
 6238TIP3   OH242908   6.685   1.786  10.156
 6238TIP3    H142909   6.778   1.806  10.156
 6238TIP3    H242910   6.672   1.730  10.079
 6239TIP3   OH242911   7.346   1.714  10.461
 6239TIP3    H142912   7.334   1.622  10.435
 6239TIP3    H242913   7.343   1.763  10.379
 6240TIP3   OH242914   5.914   0.120  11.665
 6240TIP3    H142915   5.903   0.036  11.620
 6240TIP3    H242916   5.999   0.113  11.709
 6241TIP3   OH242917   6.155   0.102  11.793
 6241TIP3    H142918   6.237   0.138  11.760
 6241TIP3    H242919   6.156   0.011  11.765
 6242TIP3   OH242920   6.043   1.796  10.133
 6242TIP3    H142921   5.961   1.793  10.183
 6242TIP3    H242922   6.078   1.708  10.138
 6243TIP3   OH242923   6.995   0.065  11.782
 6243TIP3    H142924   6.962  -0.017  11.820
 6243TIP3    H242925   7.068   0.038  11.727
 6244TIP3   OH242926   7.275   1.580  11.665
 6244TIP3    H142927   7.216   1.575  11.590
 6244TIP3    H242928   7.266   1.670  11.696
 6245TIP3   OH242929   7.546   0.637  10.566
 6245TIP3    H142930   7.525   0.728  10.589
 6245TIP3    H242931   7.511   0.626  10.478
 6246TIP3   OH242932   7.569   1.124  11.329
 6246TIP3    H142933   7.523   1.139  11.247
 6246TIP3    H242934   7.572   1.029  11.338
 6247TIP3   OH242935   7.553   1.427  11.025
 6247TIP3    H142936   7.648   1.420  11.016
 6247TIP3    H242937   7.539   1.505  11.078
 6248TIP3   OH242938   7.528   0.323  10.731
 6248TIP3    H142939   7.612   0.360  10.758
 6248TIP3    H242940   7.507   0.366  10.648
 6249TIP3   OH242941   7.596   0.856  11.419
 6249TIP3    H142942   7.560   0.815  11.498
 6249TIP3    H242943   7.536   0.830  11.349
 6250TIP3   OH242944   7.625   1.082  11.766
 6250TIP3    H142945   7.558   1.040  11.819
 6250TIP3    H242946   7.576   1.132  11.700
 6251TIP3   OH242947   7.508   1.826  10.644
 6251TIP3    H142948   7.456   1.789  10.573
 6251TIP3    H242949   7.516   1.755  10.708
 6252TIP3   OH242950   7.529   1.623  10.819
 6252TIP3    H142951   7.500   1.532  10.829
 6252TIP3    H242952   7.571   1.644  10.903
 6253TIP3   OH242953   7.588   0.954  11.022
 6253TIP3    H142954   7.622   0.897  10.953
 6253TIP3    H242955   7.665   1.001  11.053
 6254TIP3   OH242956   7.557   0.475  11.578
 6254TIP3    H142957   7.647   0.480  11.609
 6254TIP3    H242958   7.519   0.401  11.624
 6255TIP3   OH242959   7.510   0.606  10.991
 6255TIP3    H142960   7.571   0.586  10.921
 6255TIP3    H242961   7.563   0.647  11.059
 6256TIP3   OH242962   7.542   0.306  10.432
 6256TIP3    H142963   7.452   0.296  10.461
 6256TIP3    H242964   7.536   0.309  10.336
 6257TIP3   OH242965   7.532   0.161  11.276
 6257TIP3    H142966   7.476   0.171  11.353
 6257TIP3    H242967   7.496   0.223  11.212
 6258TIP3   OH242968   1.226   2.889  10.674
 6258TIP3    H142969   1.222   2.983  10.691
 6258TIP3    H242970   1.160   2.874  10.606
 6259TIP3   OH242971   1.076   2.772  11.044
 6259TIP3    H142972   1.106   2.716  11.116
 6259TIP3    H242973   1.035   2.710  10.982
 6260TIP3   OH242974   0.338   2.769  11.159
 6260TIP3    H142975   0.339   2.678  11.188
 6260TIP3    H242976   0.383   2.817  11.229
 6261TIP3   OH242977   1.427   3.093  10.861
 6261TIP3    H142978   1.402   3.018  10.915
 6261TIP3    H242979   1.459   3.158  10.924
 6262TIP3   OH242980   0.409   3.210  10.973
 6262TIP3    H142981   0.386   3.120  10.949
 6262TIP3    H242982   0.498   3.203  11.008
 6263TIP3   OH242983   0.133   2.583  10.550
 6263TIP3    H142984   0.116   2.658  10.607
 6263TIP3    H242985   0.052   2.532  10.554
 6264TIP3   OH242986   0.129   2.771  10.786
 6264TIP3    H142987   0.175   2.695  10.820
 6264TIP3    H242988   0.197   2.826  10.747
 6265TIP3   OH242989   1.185   3.627  10.882
 6265TIP3    H142990   1.221   3.554  10.832
 6265TIP3    H242991   1.142   3.585  10.957
 6266TIP3   OH242992   0.920   3.032  11.055
 6266TIP3    H142993   0.961   2.960  11.008
 6266TIP3    H242994   0.987   3.064  11.114
 6267TIP3   OH242995   1.799   2.168  11.123
 6267TIP3    H142996   1.805   2.233  11.193
 6267TIP3    H242997   1.862   2.197  11.058
 6268TIP3   OH242998   1.271   2.462  11.074
 6268TIP3    H142999   1.288   2.368  11.078
 6268TIP3    H243000   1.250   2.479  10.982
 6269TIP3   OH243001   0.596   2.266  10.784
 6269TIP3    H143002   0.609   2.350  10.740
 6269TIP3    H243003   0.540   2.216  10.724
 6270TIP3   OH243004   1.345   2.323  10.639
 6270TIP3    H143005   1.393   2.288  10.715
 6270TIP3    H243006   1.413   2.364  10.585
 6271TIP3   OH243007   0.275   2.547  10.858
 6271TIP3    H143008   0.332   2.492  10.911
 6271TIP3    H243009   0.283   2.512  10.769
 6272TIP3   OH243010   0.712   2.677  10.827
 6272TIP3    H143011   0.799   2.643  10.850
 6272TIP3    H243012   0.677   2.614  10.765
 6273TIP3   OH243013   1.806   2.330  11.349
 6273TIP3    H143014   1.758   2.410  11.326
 6273TIP3    H243015   1.859   2.355  11.425
 6274TIP3   OH243016   0.465   2.190  11.206
 6274TIP3    H143017   0.433   2.241  11.131
 6274TIP3    H243018   0.399   2.202  11.274
 6275TIP3   OH243019   1.161   3.146  10.547
 6275TIP3    H143020   1.152   3.145  10.451
 6275TIP3    H243021   1.115   3.225  10.574
 6276TIP3   OH243022   0.697   2.971  11.209
 6276TIP3    H143023   0.641   3.043  11.237
 6276TIP3    H243024   0.764   3.013  11.155
 6277TIP3   OH243025   1.499   2.268  10.857
 6277TIP3    H143026   1.479   2.190  10.907
 6277TIP3    H243027   1.557   2.319  10.914
 6278TIP3   OH243028   0.428   2.354  10.986
 6278TIP3    H143029   0.487   2.403  11.043
 6278TIP3    H243030   0.484   2.317  10.919
 6279TIP3   OH243031   0.556   3.192  11.290
 6279TIP3    H143032   0.567   3.287  11.286
 6279TIP3    H243033   0.466   3.180  11.321
 6280TIP3   OH243034   0.111   3.103  10.385
 6280TIP3    H143035   0.104   3.132  10.294
 6280TIP3    H243036   0.134   3.182  10.434
 6281TIP3   OH243037   1.503   3.295  11.052
 6281TIP3    H143038   1.410   3.299  11.077
 6281TIP3    H243039   1.525   3.385  11.028
 6282TIP3   OH243040   1.519   2.082  11.201
 6282TIP3    H143041   1.447   2.125  11.156
 6282TIP3    H243042   1.598   2.115  11.156
 6283TIP3   OH243043   0.824   1.885  10.951
 6283TIP3    H143044   0.791   1.795  10.957
 6283TIP3    H243045   0.751   1.939  10.981
 6284TIP3   OH243046   1.312   3.457  10.698
 6284TIP3    H143047   1.345   3.369  10.679
 6284TIP3    H243048   1.391   3.512  10.700
 6285TIP3   OH243049   1.440   3.225  10.619
 6285TIP3    H143050   1.391   3.171  10.557
 6285TIP3    H243051   1.442   3.173  10.699
 6286TIP3   OH243052   1.620   3.101  11.424
 6286TIP3    H143053   1.610   3.043  11.348
 6286TIP3    H243054   1.628   3.188  11.386
 6287TIP3   OH243055   1.084   2.833  10.439
 6287TIP3    H143056   1.014   2.896  10.421
 6287TIP3    H243057   1.139   2.836  10.361
 6288TIP3   OH243058   1.096   2.655  10.132
 6288TIP3    H143059   1.168   2.698  10.178
 6288TIP3    H243060   1.124   2.564  10.122
 6289TIP3   OH243061   1.797   2.773  11.245
 6289TIP3    H143062   1.721   2.830  11.242
 6289TIP3    H243063   1.852   2.802  11.172
 6290TIP3   OH243064   1.435   2.824  10.512
 6290TIP3    H143065   1.368   2.846  10.576
 6290TIP3    H243066   1.499   2.772  10.560
 6291TIP3   OH243067   1.413   2.639  11.437
 6291TIP3    H143068   1.408   2.715  11.494
 6291TIP3    H243069   1.352   2.658  11.365
 6292TIP3   OH243070   0.563   2.876  10.703
 6292TIP3    H143071   0.528   2.840  10.621
 6292TIP3    H243072   0.619   2.807  10.737
 6293TIP3   OH243073   0.707   3.211  10.960
 6293TIP3    H143074   0.699   3.216  10.865
 6293TIP3    H243075   0.781   3.151  10.975
 6294TIP3   OH243076   0.642   2.730  11.092
 6294TIP3    H143077   0.663   2.732  10.999
 6294TIP3    H243078   0.652   2.820  11.122
 6295TIP3   OH243079   1.248   3.310  11.142
 6295TIP3    H143080   1.231   3.384  11.200
 6295TIP3    H243081   1.193   3.240  11.176
 6296TIP3   OH243082   0.708   3.209  11.526
 6296TIP3    H143083   0.646   3.268  11.569
 6296TIP3    H243084   0.666   3.185  11.444
 6297TIP3   OH243085   1.318   2.764  10.271
 6297TIP3    H143086   1.356   2.791  10.355
 6297TIP3    H243087   1.378   2.799  10.206
 6298TIP3   OH243088   0.441   2.825  11.431
 6298TIP3    H143089   0.442   2.901  11.489
 6298TIP3    H243090   0.355   2.784  11.446
 6299TIP3   OH243091   1.060   3.407  10.584
 6299TIP3    H143092   1.136   3.435  10.635
 6299TIP3    H243093   1.028   3.486  10.541
 6300TIP3   OH243094   0.513   3.387  11.608
 6300TIP3    H143095   0.510   3.423  11.519
 6300TIP3    H243096   0.421   3.370  11.630
 6301TIP3   OH243097   1.683   1.910  10.282
 6301TIP3    H143098   1.596   1.928  10.317
 6301TIP3    H243099   1.713   1.994  10.248
 6302TIP3   OH243100   0.456   2.774  10.468
 6302TIP3    H143101   0.415   2.839  10.411
 6302TIP3    H243102   0.410   2.693  10.450
 6303TIP3   OH243103   1.793   3.364  10.120
 6303TIP3    H143104   1.815   3.457  10.120
 6303TIP3    H243105   1.877   3.319  10.125
 6304TIP3   OH243106   0.175   2.985  11.361
 6304TIP3    H143107   0.082   3.002  11.348
 6304TIP3    H243108   0.180   2.895  11.392
 6305TIP3   OH243109   0.149   3.332  11.000
 6305TIP3    H143110   0.225   3.276  10.982
 6305TIP3    H243111   0.168   3.372  11.084
 6306TIP3   OH243112   1.887   3.380  11.624
 6306TIP3    H143113   1.871   3.287  11.611
 6306TIP3    H243114   1.801   3.415  11.649
 6307TIP3   OH243115   0.960   3.318  11.493
 6307TIP3    H143116   0.964   3.402  11.538
 6307TIP3    H243117   0.871   3.287  11.509
 6308TIP3   OH243118   1.029   3.668  10.449
 6308TIP3    H143119   1.013   3.683  10.355
 6308TIP3    H243120   1.006   3.751  10.491
 6309TIP3   OH243121   0.406   3.550  10.668
 6309TIP3    H143122   0.443   3.527  10.753
 6309TIP3    H243123   0.312   3.535  10.678
 6310TIP3   OH243124   1.302   3.659  10.184
 6310TIP3    H143125   1.348   3.588  10.139
 6310TIP3    H243126   1.319   3.645  10.277
 6311TIP3   OH243127   1.300   3.619  10.458
 6311TIP3    H143128   1.204   3.627  10.460
 6311TIP3    H243129   1.321   3.554  10.525
 6312TIP3   OH243130   1.563   2.508  11.654
 6312TIP3    H143131   1.511   2.556  11.589
 6312TIP3    H243132   1.565   2.418  11.623
 6313TIP3   OH243133   0.309   3.216  11.405
 6313TIP3    H143134   0.321   3.213  11.500
 6313TIP3    H243135   0.261   3.136  11.385
 6314TIP3   OH243136   0.595   2.015  11.035
 6314TIP3    H143137   0.519   2.006  10.978
 6314TIP3    H243138   0.570   2.083  11.098
 6315TIP3   OH243139   1.049   1.966  11.372
 6315TIP3    H143140   1.094   1.923  11.444
 6315TIP3    H243141   0.956   1.955  11.391
 6316TIP3   OH243142   1.332   2.361  11.471
 6316TIP3    H143143   1.268   2.350  11.542
 6316TIP3    H243144   1.342   2.456  11.462
 6317TIP3   OH243145   1.493   2.873  10.089
 6317TIP3    H143146   1.444   2.906  10.013
 6317TIP3    H243147   1.524   2.952  10.133
 6318TIP3   OH243148   1.010   2.250  10.126
 6318TIP3    H143149   0.961   2.214  10.200
 6318TIP3    H243150   0.952   2.238  10.051
 6319TIP3   OH243151   0.577   2.485  11.173
 6319TIP3    H143152   0.504   2.496  11.234
 6319TIP3    H243153   0.596   2.574  11.142
 6320TIP3   OH243154   0.614   2.501  10.646
 6320TIP3    H143155   0.518   2.497  10.637
 6320TIP3    H243156   0.647   2.476  10.560
 6321TIP3   OH243157   1.130   2.577  10.543
 6321TIP3    H143158   1.107   2.665  10.512
 6321TIP3    H243159   1.195   2.546  10.479
 6322TIP3   OH243160   1.053   2.580  11.677
 6322TIP3    H143161   0.992   2.517  11.714
 6322TIP3    H243162   1.133   2.569  11.728
 6323TIP3   OH243163   1.229   2.517  10.806
 6323TIP3    H143164   1.198   2.581  10.742
 6323TIP3    H243165   1.256   2.442  10.753
 6324TIP3   OH243166   0.340   2.523  11.311
 6324TIP3    H143167   0.290   2.577  11.373
 6324TIP3    H243168   0.314   2.433  11.330
 6325TIP3   OH243169   0.673   2.218  10.040
 6325TIP3    H143170   0.641   2.211  10.130
 6325TIP3    H243171   0.594   2.217   9.986
 6326TIP3   OH243172   0.124   2.279  10.710
 6326TIP3    H143173   0.140   2.240  10.796
 6326TIP3    H243174   0.136   2.207  10.648
 6327TIP3   OH243175   0.117   2.331  10.260
 6327TIP3    H143176   0.196   2.371  10.223
 6327TIP3    H243177   0.058   2.405  10.276
 6328TIP3   OH243178   1.159   2.612  11.268
 6328TIP3    H143179   1.206   2.563  11.200
 6328TIP3    H243180   1.113   2.544  11.318
 6329TIP3   OH243181   0.883   2.246  10.747
 6329TIP3    H143182   0.791   2.243  10.773
 6329TIP3    H243183   0.929   2.200  10.817
 6330TIP3   OH243184   0.355   2.442  10.613
 6330TIP3    H143185   0.273   2.473  10.576
 6330TIP3    H243186   0.350   2.346  10.605
 6331TIP3   OH243187   0.679   2.416  10.397
 6331TIP3    H143188   0.774   2.425  10.404
 6331TIP3    H243189   0.654   2.478  10.329
 6332TIP3   OH243190   1.273   2.182  11.072
 6332TIP3    H143191   1.218   2.190  11.150
 6332TIP3    H243192   1.216   2.145  11.006
 6333TIP3   OH243193   0.585   2.576  10.201
 6333TIP3    H143194   0.505   2.545  10.160
 6333TIP3    H243195   0.644   2.595  10.128
 6334TIP3   OH243196   1.606   3.760  11.719
 6334TIP3    H143197   1.630   3.798  11.635
 6334TIP3    H243198   1.676   3.787  11.779
 6335TIP3   OH243199   0.411   3.014  11.637
 6335TIP3    H143200   0.474   3.013  11.709
 6335TIP3    H243201   0.325   3.014  11.679
 6336TIP3   OH243202   0.948   2.548  10.914
 6336TIP3    H143203   1.019   2.511  10.861
 6336TIP3    H243204   0.911   2.472  10.960
 6337TIP3   OH243205   0.422   2.168  10.587
 6337TIP3    H143206   0.379   2.087  10.614
 6337TIP3    H243207   0.441   2.156  10.494
 6338TIP3   OH243208   0.829   2.380  11.142
 6338TIP3    H143209   0.740   2.414  11.146
 6338TIP3    H243210   0.878   2.432  11.206
 6339TIP3   OH243211   0.884   3.024  10.362
 6339TIP3    H143212   0.820   2.964  10.324
 6339TIP3    H243213   0.850   3.044  10.449
 6340TIP3   OH243214   1.590   2.947  11.197
 6340TIP3    H143215   1.644   3.007  11.145
 6340TIP3    H243216   1.514   2.930  11.142
 6341TIP3   OH243217   1.275   2.264  10.211
 6341TIP3    H143218   1.189   2.261  10.168
 6341TIP3    H243219   1.282   2.354  10.244
 6342TIP3   OH243220   1.020   3.039  11.492
 6342TIP3    H143221   1.034   3.014  11.583
 6342TIP3    H243222   0.997   3.132  11.495
 6343TIP3   OH243223   1.327   2.499  10.353
 6343TIP3    H143224   1.412   2.476  10.389
 6343TIP3    H243225   1.338   2.588  10.320
 6344TIP3   OH243226   0.394   2.938  10.915
 6344TIP3    H143227   0.456   2.919  10.844
 6344TIP3    H243228   0.406   2.866  10.977
 6345TIP3   OH243229   1.113   3.158  10.269
 6345TIP3    H143230   1.079   3.247  10.264
 6345TIP3    H243231   1.035   3.104  10.287
 6346TIP3   OH243232   0.191   2.714  11.467
 6346TIP3    H143233   0.201   2.708  11.561
 6346TIP3    H243234   0.096   2.712  11.452
 6347TIP3   OH243235   0.796   2.745  11.642
 6347TIP3    H143236   0.713   2.717  11.604
 6347TIP3    H243237   0.797   2.706  11.730
 6348TIP3   OH243238   1.246   3.282  11.487
 6348TIP3    H143239   1.154   3.297  11.465
 6348TIP3    H243240   1.255   3.318  11.575
 6349TIP3   OH243241   1.826   2.528  10.316
 6349TIP3    H143242   1.758   2.505  10.252
 6349TIP3    H243243   1.850   2.618  10.294
 6350TIP3   OH243244   1.849   3.095  11.572
 6350TIP3    H143245   1.759   3.107  11.541
 6350TIP3    H243246   1.899   3.079  11.493
 6351TIP3   OH243247   1.669   3.351  10.367
 6351TIP3    H143248   1.603   3.283  10.382
 6351TIP3    H243249   1.697   3.338  10.277
 6352TIP3   OH243250   1.372   2.866  11.031
 6352TIP3    H143251   1.277   2.851  11.023
 6352TIP3    H243252   1.412   2.791  10.987
 6353TIP3   OH243253   0.633   3.291  10.687
 6353TIP3    H143254   0.664   3.374  10.650
 6353TIP3    H243255   0.538   3.293  10.672
 6354TIP3   OH243256   0.225   2.745  10.159
 6354TIP3    H143257   0.275   2.816  10.199
 6354TIP3    H243258   0.133   2.769  10.175
 6355TIP3   OH243259   0.750   3.059  10.597
 6355TIP3    H143260   0.719   3.145  10.627
 6355TIP3    H243261   0.688   2.997  10.635
 6356TIP3   OH243262   0.849   3.474  11.280
 6356TIP3    H143263   0.908   3.545  11.252
 6356TIP3    H243264   0.901   3.422  11.341
 6357TIP3   OH243265   0.662   3.550  10.571
 6357TIP3    H143266   0.569   3.562  10.591
 6357TIP3    H243267   0.703   3.631  10.601
 6358TIP3   OH243268   1.127   3.071  11.238
 6358TIP3    H143269   1.091   3.055  11.325
 6358TIP3    H243270   1.212   3.027  11.239
 6359TIP3   OH243271   1.376   3.169  10.155
 6359TIP3    H143272   1.425   3.132  10.228
 6359TIP3    H243273   1.284   3.164  10.183
 6360TIP3   OH243274   1.459   3.504  11.443
 6360TIP3    H143275   1.373   3.463  11.431
 6360TIP3    H243276   1.458   3.580  11.386
 6361TIP3   OH243277   1.868   3.630  10.163
 6361TIP3    H143278   1.937   3.694  10.177
 6361TIP3    H243279   1.788   3.674  10.190
 6362TIP3   OH243280   0.280   2.245  11.398
 6362TIP3    H143281   0.216   2.290  11.452
 6362TIP3    H243282   0.274   2.153  11.425
 6363TIP3   OH243283   1.519   3.039  10.352
 6363TIP3    H143284   1.481   2.975  10.412
 6363TIP3    H243285   1.613   3.032  10.366
 6364TIP3   OH243286   0.237   3.438  11.242
 6364TIP3    H143287   0.271   3.360  11.286
 6364TIP3    H243288   0.216   3.498  11.313
 6365TIP3   OH243289   0.689   3.230  10.225
 6365TIP3    H143290   0.753   3.183  10.279
 6365TIP3    H243291   0.699   3.321  10.252
 6366TIP3   OH243292   0.332   2.958  10.301
 6366TIP3    H143293   0.257   2.999  10.344
 6366TIP3    H243294   0.375   3.030  10.254
 6367TIP3   OH243295   1.141   2.218  11.312
 6367TIP3    H143296   1.214   2.236  11.372
 6367TIP3    H243297   1.111   2.131  11.338
 6368TIP3   OH243298   1.234   2.142  10.455
 6368TIP3    H143299   1.247   2.179  10.367
 6368TIP3    H243300   1.266   2.210  10.514
 6369TIP3   OH243301   0.985   3.399  10.257
 6369TIP3    H143302   0.897   3.418  10.290
 6369TIP3    H243303   1.025   3.485  10.245
 6370TIP3   OH243304   0.934   2.381  10.508
 6370TIP3    H143305   1.002   2.447  10.522
 6370TIP3    H243306   0.915   2.347  10.595
 6371TIP3   OH243307   1.015   2.439  11.425
 6371TIP3    H143308   1.032   2.414  11.516
 6371TIP3    H243309   1.037   2.360  11.375
 6372TIP3   OH243310   0.998   2.049  10.564
 6372TIP3    H143311   0.972   2.120  10.623
 6372TIP3    H243312   1.083   2.077  10.530
 6373TIP3   OH243313   0.729   3.488  10.314
 6373TIP3    H143314   0.732   3.573  10.271
 6373TIP3    H243315   0.706   3.507  10.405
 6374TIP3   OH243316   0.576   2.177  10.305
 6374TIP3    H143317   0.590   2.265  10.340
 6374TIP3    H243318   0.659   2.131  10.322
 6375TIP3   OH243319   1.585   2.266  11.518
 6375TIP3    H143320   1.493   2.275  11.493
 6375TIP3    H243321   1.632   2.268  11.435
 6376TIP3   OH243322   1.474   2.631  10.910
 6376TIP3    H143323   1.392   2.587  10.887
 6376TIP3    H243324   1.524   2.565  10.957
 6377TIP3   OH243325   0.421   3.176  10.144
 6377TIP3    H143326   0.493   3.225  10.185
 6377TIP3    H243327   0.465   3.114  10.086
 6378TIP3   OH243328   0.318   2.493  10.121
 6378TIP3    H143329   0.287   2.582  10.139
 6378TIP3    H243330   0.283   2.472  10.035
 6379TIP3   OH243331   1.584   3.566  11.049
 6379TIP3    H143332   1.573   3.636  10.985
 6379TIP3    H243333   1.679   3.560  11.063
 6380TIP3   OH243334   0.344   1.982  10.930
 6380TIP3    H143335   0.331   1.965  10.837
 6380TIP3    H243336   0.314   1.902  10.974
 6381TIP3   OH243337   0.185   3.350  10.491
 6381TIP3    H143338   0.135   3.400  10.556
 6381TIP3    H243339   0.243   3.416  10.451
 6382TIP3   OH243340   0.145   3.661  11.720
 6382TIP3    H143341   0.205   3.650  11.794
 6382TIP3    H243342   0.131   3.572  11.688
 6383TIP3   OH243343   0.605   3.533  11.827
 6383TIP3    H143344   0.689   3.493  11.850
 6383TIP3    H243345   0.577   3.485  11.748
 6384TIP3   OH243346   1.021   3.467   9.977
 6384TIP3    H143347   0.964   3.405  10.022
 6384TIP3    H243348   1.105   3.422   9.969
 6385TIP3   OH243349   1.237   3.377  11.746
 6385TIP3    H143350   1.218   3.294  11.788
 6385TIP3    H243351   1.316   3.409  11.790
 6386TIP3   OH243352   1.423   3.435  10.075
 6386TIP3    H143353   1.408   3.344  10.100
 6386TIP3    H243354   1.510   3.435  10.034
 6387TIP3   OH243355   0.201   3.019  11.826
 6387TIP3    H143356   0.228   2.946  11.881
 6387TIP3    H243357   0.115   2.994  11.792
 6388TIP3   OH243358   0.609   3.000  10.051
 6388TIP3    H143359   0.629   2.939  10.121
 6388TIP3    H243360   0.668   3.074  10.065
 6389TIP3   OH243361   0.789   3.026  11.715
 6389TIP3    H143362   0.763   3.082  11.642
 6389TIP3    H243363   0.801   2.940  11.676
 6390TIP3   OH243364   1.359   3.026  11.486
 6390TIP3    H143365   1.449   3.055  11.470
 6390TIP3    H243366   1.308   3.106  11.486
 6391TIP3   OH243367   0.253   2.691  11.732
 6391TIP3    H143368   0.332   2.637  11.728
 6391TIP3    H243369   0.256   2.731  11.819
 6392TIP3   OH243370   0.701   2.843  10.263
 6392TIP3    H143371   0.637   2.794  10.315
 6392TIP3    H243372   0.741   2.778  10.206
 6393TIP3   OH243373   0.648   2.645  11.422
 6393TIP3    H143374   0.569   2.697  11.435
 6393TIP3    H243375   0.677   2.667  11.333
 6394TIP3   OH243376   0.825   2.676  10.076
 6394TIP3    H143377   0.831   2.679   9.981
 6394TIP3    H243378   0.915   2.670  10.106
 6395TIP3   OH243379   1.136   2.887  11.769
 6395TIP3    H143380   1.222   2.860  11.738
 6395TIP3    H243381   1.111   2.822  11.834
 6396TIP3   OH243382   1.697   2.889  20.020
 6396TIP3    H143383   1.770   2.844  19.975
 6396TIP3    H243384   1.726   2.980  20.026
 6397TIP3   OH243385   0.676   2.396  11.542
 6397TIP3    H143386   0.683   2.324  11.479
 6397TIP3    H243387   0.662   2.474  11.488
 6398TIP3   OH243388   0.705   2.206  11.333
 6398TIP3    H143389   0.760   2.243  11.263
 6398TIP3    H243390   0.618   2.201  11.295
 6399TIP3   OH243391   0.886   2.785  11.298
 6399TIP3    H143392   0.943   2.804  11.223
 6399TIP3    H243393   0.813   2.846  11.289
 6400TIP3   OH243394   1.279   2.515  11.837
 6400TIP3    H143395   1.284   2.433  11.887
 6400TIP3    H243396   1.369   2.531  11.809
 6401TIP3   OH243397   1.415   2.831  11.665
 6401TIP3    H143398   1.387   2.904  11.610
 6401TIP3    H243399   1.510   2.828  11.653
 6402TIP3   OH243400   0.452   2.501  11.684
 6402TIP3    H143401   0.404   2.424  11.713
 6402TIP3    H243402   0.532   2.466  11.644
 6403TIP3   OH243403   0.773   1.942  11.382
 6403TIP3    H143404   0.749   2.034  11.369
 6403TIP3    H243405   0.706   1.892  11.335
 6404TIP3   OH243406   0.875   2.380  11.736
 6404TIP3    H143407   0.835   2.345  11.816
 6404TIP3    H243408   0.804   2.377  11.671
 6405TIP3   OH243409   1.136   2.292  11.651
 6405TIP3    H143410   1.053   2.293  11.699
 6405TIP3    H243411   1.193   2.237  11.704
 6406TIP3   OH243412   1.310   2.147  11.808
 6406TIP3    H143413   1.319   2.052  11.821
 6406TIP3    H243414   1.301   2.182  11.897
 6407TIP3   OH243415   0.338   2.262  11.756
 6407TIP3    H143416   0.328   2.179  11.709
 6407TIP3    H243417   0.318   2.241  11.847
 6408TIP3   OH243418   0.748   1.882  11.651
 6408TIP3    H143419   0.807   1.807  11.653
 6408TIP3    H243420   0.746   1.909  11.559
 6409TIP3   OH243421   0.825   2.080  11.829
 6409TIP3    H143422   0.798   2.009  11.771
 6409TIP3    H243423   0.748   2.137  11.833
 6410TIP3   OH243424   0.762   3.727  10.183
 6410TIP3    H143425   0.856   3.722  10.170
 6410TIP3    H243426   0.733   3.798  10.127
 6411TIP3   OH243427   0.145   3.174  10.121
 6411TIP3    H143428   0.238   3.195  10.129
 6411TIP3    H243429   0.139   3.124  10.039
 6412TIP3   OH243430   0.092   3.690  10.589
 6412TIP3    H143431   0.000   3.717  10.590
 6412TIP3    H243432   0.100   3.631  10.664
 6413TIP3   OH243433   0.162   3.528  10.799
 6413TIP3    H143434   0.134   3.447  10.841
 6413TIP3    H243435   0.192   3.583  10.871
 6414TIP3   OH243436   1.855   3.579  11.103
 6414TIP3    H143437   1.849   3.598  11.197
 6414TIP3    H243438   1.919   3.643  11.070
 6415TIP3   OH243439   1.789   3.563  11.377
 6415TIP3    H143440   1.742   3.488  11.342
 6415TIP3    H243441   1.833   3.530  11.455
 6416TIP3   OH243442   1.656   3.155  11.858
 6416TIP3    H143443   1.569   3.160  11.897
 6416TIP3    H243444   1.706   3.222  11.904
 6417TIP3   OH243445   1.785   2.976  10.394
 6417TIP3    H143446   1.859   3.036  10.400
 6417TIP3    H243447   1.794   2.919  10.471
 6418TIP3   OH243448   1.827   2.795  10.598
 6418TIP3    H143449   1.746   2.753  10.629
 6418TIP3    H243450   1.878   2.808  10.677
 6419TIP3   OH243451   1.807   3.087  11.096
 6419TIP3    H143452   1.863   3.022  11.054
 6419TIP3    H243453   1.831   3.170  11.056
 6420TIP3   OH243454   1.633   3.344  11.299
 6420TIP3    H143455   1.563   3.393  11.341
 6420TIP3    H243456   1.600   3.325  11.212
 6421TIP3   OH243457   1.852   2.783  10.210
 6421TIP3    H143458   1.780   2.786  10.147
 6421TIP3    H243459   1.831   2.852  10.274
 6422TIP3   OH243460   1.637   2.499  10.126
 6422TIP3    H143461   1.580   2.557  10.076
 6422TIP3    H243462   1.625   2.413  10.087
 6423TIP3   OH243463   1.597   2.655  10.664
 6423TIP3    H143464   1.588   2.564  10.635
 6423TIP3    H243465   1.561   2.655  10.753
 6424TIP3   OH243466   0.120   2.935  11.039
 6424TIP3    H143467   0.153   2.920  10.950
 6424TIP3    H243468   0.197   2.923  11.095
 6425TIP3   OH243469   1.687   2.836  11.610
 6425TIP3    H143470   1.743   2.759  11.600
 6425TIP3    H243471   1.737   2.907  11.571
 6426TIP3   OH243472   1.825   2.598  11.611
 6426TIP3    H143473   1.740   2.566  11.643
 6426TIP3    H243474   1.886   2.526  11.629
 6427TIP3   OH243475   1.596   2.254  10.019
 6427TIP3    H143476   1.663   2.198  10.058
 6427TIP3    H243477   1.516   2.201  10.021
 6428TIP3   OH243478   1.569   2.416  10.489
 6428TIP3    H143479   1.592   2.323  10.496
 6428TIP3    H243480   1.642   2.455  10.443
 6429TIP3   OH243481   1.636   2.440  11.036
 6429TIP3    H143482   1.729   2.454  11.022
 6429TIP3    H243483   1.621   2.461  11.128
 6430TIP3   OH243484   1.646   2.546  11.296
 6430TIP3    H143485   1.570   2.579  11.343
 6430TIP3    H243486   1.699   2.624  11.278
 6431TIP3   OH243487   0.115   2.317  11.602
 6431TIP3    H143488   0.185   2.345  11.661
 6431TIP3    H243489   0.107   2.223  11.617
 6432TIP3   OH243490   1.853   1.950  11.828
 6432TIP3    H143491   1.919   1.890  11.794
 6432TIP3    H243492   1.858   2.026  11.770
 6433TIP3   OH243493   1.640   2.148  10.504
 6433TIP3    H143494   1.665   2.111  10.589
 6433TIP3    H243495   1.574   2.087  10.470
 6434TIP3   OH243496   0.183   2.198  10.971
 6434TIP3    H143497   0.241   2.122  10.964
 6434TIP3    H243498   0.242   2.271  10.991
 6435TIP3   OH243499   0.105   2.512  11.072
 6435TIP3    H143500   0.155   2.518  10.991
 6435TIP3    H243501   0.124   2.594  11.118
 6436TIP3   OH243502   1.800   2.136  11.628
 6436TIP3    H143503   1.719   2.187  11.618
 6436TIP3    H243504   1.795   2.070  11.559
 6437TIP3   OH243505   1.814   2.131  10.147
 6437TIP3    H143506   1.871   2.084  10.086
 6437TIP3    H243507   1.871   2.196  10.188
 6438TIP3   OH243508   0.100   2.133  10.451
 6438TIP3    H143509   0.005   2.140  10.463
 6438TIP3    H243510   0.122   2.203  10.389
 6439TIP3   OH243511   1.529   3.613  10.666
 6439TIP3    H143512   1.601   3.605  10.603
 6439TIP3    H243513   1.565   3.666  10.737
 6440TIP3   OH243514   0.085   2.000  11.269
 6440TIP3    H143515  -0.009   1.980  11.274
 6440TIP3    H243516   0.093   2.058  11.193
 6441TIP3   OH243517   0.251   3.309  11.681
 6441TIP3    H143518   0.159   3.303  11.656
 6441TIP3    H243519   0.257   3.263  11.765
 6442TIP3   OH243520   0.580   3.462  11.340
 6442TIP3    H143521   0.551   3.545  11.303
 6442TIP3    H243522   0.676   3.465  11.334
 6443TIP3   OH243523   0.969   3.572  11.601
 6443TIP3    H143524   0.974   3.556  11.696
 6443TIP3    H243525   1.048   3.624  11.582
 6444TIP3   OH243526   1.197   3.723  11.568
 6444TIP3    H143527   1.272   3.681  11.526
 6444TIP3    H243528   1.230   3.751  11.653
 6445TIP3   OH243529   1.713   1.938  11.442
 6445TIP3    H143530   1.641   1.961  11.383
 6445TIP3    H243531   1.732   1.847  11.421
 6446TIP3   OH243532   0.315   3.768  11.359
 6446TIP3    H143533   0.234   3.802  11.321
 6446TIP3    H243534   0.316   3.801  11.449
 6447TIP3   OH243535   0.553   3.715  11.236
 6447TIP3    H143536   0.468   3.736  11.276
 6447TIP3    H243537   0.556   3.769  11.157
 6448TIP3   OH243538   1.007   3.674  11.154
 6448TIP3    H143539   0.950   3.710  11.086
 6448TIP3    H243540   1.023   3.747  11.214
 6449TIP3   OH243541   1.224   3.552  11.275
 6449TIP3    H143542   1.146   3.591  11.235
 6449TIP3    H243543   1.293   3.616  11.260
 6450TIP3   OH243544   1.456   3.706  11.253
 6450TIP3    H143545   1.466   3.799  11.233
 6450TIP3    H243546   1.499   3.661  11.181
 6451TIP3   OH243547   0.283   3.629  11.031
 6451TIP3    H143548   0.261   3.584  11.113
 6451TIP3    H243549   0.358   3.580  10.997
 6452TIP3   OH243550   0.477   3.475  10.918
 6452TIP3    H143551   0.453   3.384  10.935
 6452TIP3    H243552   0.565   3.483  10.956
 6453TIP3   OH243553   0.728   3.481  11.030
 6453TIP3    H143554   0.733   3.388  11.006
 6453TIP3    H243555   0.761   3.484  11.120
 6454TIP3   OH243556   1.041   2.067  10.895
 6454TIP3    H143557   0.976   2.000  10.915
 6454TIP3    H243558   1.110   2.019  10.848
 6455TIP3   OH243559   1.563   1.898  10.886
 6455TIP3    H143560   1.626   1.952  10.838
 6455TIP3    H243561   1.478   1.930  10.858
 6456TIP3   OH243562   1.744   2.020  10.724
 6456TIP3    H143563   1.806   1.956  10.691
 6456TIP3    H243564   1.797   2.097  10.743
 6457TIP3   OH243565   0.313   1.928  10.662
 6457TIP3    H143566   0.230   1.907  10.620
 6457TIP3    H243567   0.367   1.849  10.651
 6458TIP3   OH243568   0.113   1.969  10.222
 6458TIP3    H143569   0.188   2.010  10.178
 6458TIP3    H243570   0.110   2.010  10.308
 6459TIP3   OH243571   0.773   1.893  10.665
 6459TIP3    H143572   0.845   1.942  10.624
 6459TIP3    H243573   0.790   1.900  10.759
 6460TIP3   OH243574   1.306   1.955  10.790
 6460TIP3    H143575   1.319   1.938  10.696
 6460TIP3    H243576   1.264   1.875  10.823
 6461TIP3   OH243577   1.449   1.962  10.425
 6461TIP3    H143578   1.370   2.016  10.416
 6461TIP3    H243579   1.415   1.874  10.442
 6462TIP3   OH243580   0.210   3.595  10.284
 6462TIP3    H143581   0.131   3.543  10.301
 6462TIP3    H243582   0.179   3.685  10.276
 6463TIP3   OH243583   0.363   2.077  10.140
 6463TIP3    H143584   0.396   1.989  10.126
 6463TIP3    H243585   0.427   2.117  10.200
 6464TIP3   OH243586   0.863   2.162  10.348
 6464TIP3    H143587   0.899   2.095  10.405
 6464TIP3    H243588   0.879   2.245  10.393
 6465TIP3   OH243589   1.032   3.671  10.161
 6465TIP3    H143590   1.126   3.690  10.164
 6465TIP3    H243591   1.021   3.618  10.082
 6466TIP3   OH243592   1.728   3.595  10.471
 6466TIP3    H143593   1.708   3.507  10.440
 6466TIP3    H243594   1.708   3.652  10.397
 6467TIP3   OH243595   0.268   2.009  11.625
 6467TIP3    H143596   0.207   1.938  11.644
 6467TIP3    H243597   0.348   1.985  11.673
 6468TIP3   OH243598   0.479   1.933  11.788
 6468TIP3    H143599   0.566   1.905  11.759
 6468TIP3    H243600   0.443   1.857  11.833
 6469TIP3   OH243601   0.432   3.689  10.138
 6469TIP3    H143602   0.363   3.641  10.183
 6469TIP3    H243603   0.510   3.633  10.146
 6470TIP3   OH243604   1.368   1.855  11.792
 6470TIP3    H143605   1.378   1.768  11.831
 6470TIP3    H243606   1.454   1.875  11.757
 6471TIP3   OH243607   1.638   3.491  11.658
 6471TIP3    H143608   1.576   3.484  11.586
 6471TIP3    H243609   1.627   3.581  11.690
 6472TIP3   OH243610   3.109   2.884  10.681
 6472TIP3    H143611   3.119   2.973  10.713
 6472TIP3    H243612   3.040   2.890  10.615
 6473TIP3   OH243613   2.978   2.788  11.015
 6473TIP3    H143614   2.994   2.754  11.103
 6473TIP3    H243615   2.924   2.721  10.973
 6474TIP3   OH243616   2.186   2.738  11.156
 6474TIP3    H143617   2.193   2.665  11.217
 6474TIP3    H243618   2.277   2.757  11.130
 6475TIP3   OH243619   3.313   3.086  10.857
 6475TIP3    H143620   3.296   3.012  10.915
 6475TIP3    H243621   3.347   3.155  10.914
 6476TIP3   OH243622   2.321   3.218  10.976
 6476TIP3    H143623   2.289   3.130  10.953
 6476TIP3    H243624   2.415   3.206  10.992
 6477TIP3   OH243625   1.982   2.558  10.542
 6477TIP3    H143626   1.947   2.642  10.571
 6477TIP3    H243627   1.925   2.532  10.470
 6478TIP3   OH243628   2.023   2.790  10.797
 6478TIP3    H143629   2.054   2.702  10.818
 6478TIP3    H243630   2.104   2.841  10.786
 6479TIP3   OH243631   3.060   3.612  10.861
 6479TIP3    H143632   3.112   3.548  10.813
 6479TIP3    H243633   3.022   3.563  10.934
 6480TIP3   OH243634   2.805   3.037  11.057
 6480TIP3    H143635   2.850   2.974  11.001
 6480TIP3    H243636   2.871   3.067  11.118
 6481TIP3   OH243637   3.666   2.169  11.123
 6481TIP3    H143638   3.668   2.228  11.198
 6481TIP3    H243639   3.740   2.196  11.068
 6482TIP3   OH243640   3.136   2.467  11.084
 6482TIP3    H143641   3.147   2.372  11.081
 6482TIP3    H243642   3.119   2.492  10.992
 6483TIP3   OH243643   2.472   2.256  10.778
 6483TIP3    H143644   2.477   2.342  10.736
 6483TIP3    H243645   2.417   2.204  10.719
 6484TIP3   OH243646   3.227   2.321  10.654
 6484TIP3    H143647   3.274   2.279  10.726
 6484TIP3    H243648   3.296   2.360  10.600
 6485TIP3   OH243649   2.115   2.536  10.870
 6485TIP3    H143650   2.178   2.486  10.922
 6485TIP3    H243651   2.128   2.503  10.781
 6486TIP3   OH243652   2.591   2.662  10.841
 6486TIP3    H143653   2.678   2.627  10.857
 6486TIP3    H243654   2.551   2.602  10.779
 6487TIP3   OH243655   3.670   2.319  11.355
 6487TIP3    H143656   3.628   2.404  11.338
 6487TIP3    H243657   3.741   2.339  11.415
 6488TIP3   OH243658   2.342   2.195  11.209
 6488TIP3    H143659   2.307   2.246  11.137
 6488TIP3    H243660   2.273   2.194  11.275
 6489TIP3   OH243661   3.029   3.137  10.551
 6489TIP3    H143662   3.036   3.144  10.456
 6489TIP3    H243663   2.995   3.223  10.578
 6490TIP3   OH243664   2.585   2.951  11.202
 6490TIP3    H143665   2.532   3.023  11.235
 6490TIP3    H243666   2.655   2.993  11.152
 6491TIP3   OH243667   3.380   2.240  10.881
 6491TIP3    H143668   3.428   2.158  10.890
 6491TIP3    H243669   3.433   2.305  10.927
 6492TIP3   OH243670   2.303   2.352  10.981
 6492TIP3    H143671   2.364   2.408  11.028
 6492TIP3    H243672   2.355   2.313  10.911
 6493TIP3   OH243673   2.442   3.173  11.292
 6493TIP3    H143674   2.447   3.267  11.274
 6493TIP3    H243675   2.356   3.160  11.331
 6494TIP3   OH243676   2.019   3.125  10.393
 6494TIP3    H143677   2.013   3.172  10.310
 6494TIP3    H243678   2.042   3.193  10.457
 6495TIP3   OH243679   3.386   3.294  11.050
 6495TIP3    H143680   3.294   3.300  11.076
 6495TIP3    H243681   3.410   3.383  11.026
 6496TIP3   OH243682   3.391   2.089  11.193
 6496TIP3    H143683   3.328   2.140  11.142
 6496TIP3    H243684   3.477   2.115  11.159
 6497TIP3   OH243685   2.700   1.889  10.959
 6497TIP3    H143686   2.672   1.798  10.953
 6497TIP3    H243687   2.622   1.936  10.989
 6498TIP3   OH243688   3.211   3.453  10.699
 6498TIP3    H143689   3.242   3.366  10.675
 6498TIP3    H243690   3.289   3.508  10.699
 6499TIP3   OH243691   3.330   3.222  10.615
 6499TIP3    H143692   3.332   3.162  10.540
 6499TIP3    H243693   3.326   3.165  10.692
 6500TIP3   OH243694   3.498   3.104  11.424
 6500TIP3    H143695   3.494   3.045  11.348
 6500TIP3    H243696   3.511   3.191  11.386
 6501TIP3   OH243697   2.960   2.824  10.436
 6501TIP3    H143698   2.893   2.891  10.419
 6501TIP3    H243699   3.019   2.830  10.362
 6502TIP3   OH243700   2.985   2.656  10.130
 6502TIP3    H143701   3.055   2.702  10.176
 6502TIP3    H243702   3.021   2.570  10.110
 6503TIP3   OH243703   3.682   2.764  11.243
 6503TIP3    H143704   3.610   2.827  11.241
 6503TIP3    H243705   3.747   2.800  11.182
 6504TIP3   OH243706   3.317   2.828  10.515
 6504TIP3    H143707   3.248   2.847  10.579
 6504TIP3    H243708   3.382   2.778  10.564
 6505TIP3   OH243709   3.294   2.663  11.400
 6505TIP3    H143710   3.298   2.721  11.477
 6505TIP3    H243711   3.227   2.702  11.344
 6506TIP3   OH243712   2.453   2.865  10.695
 6506TIP3    H143713   2.424   2.831  10.611
 6506TIP3    H243714   2.507   2.795  10.732
 6507TIP3   OH243715   2.603   3.222  10.961
 6507TIP3    H143716   2.601   3.226  10.865
 6507TIP3    H243717   2.676   3.164  10.981
 6508TIP3   OH243718   2.447   2.766  11.054
 6508TIP3    H143719   2.500   2.743  10.978
 6508TIP3    H243720   2.498   2.833  11.100
 6509TIP3   OH243721   3.133   3.313  11.149
 6509TIP3    H143722   3.117   3.382  11.214
 6509TIP3    H243723   3.085   3.237  11.182
 6510TIP3   OH243724   2.602   3.211  11.515
 6510TIP3    H143725   2.540   3.268  11.561
 6510TIP3    H243726   2.557   3.187  11.435
 6511TIP3   OH243727   3.200   2.769  10.275
 6511TIP3    H143728   3.237   2.797  10.359
 6511TIP3    H243729   3.259   2.807  10.210
 6512TIP3   OH243730   2.266   2.789  11.486
 6512TIP3    H143731   2.271   2.867  11.541
 6512TIP3    H243732   2.173   2.779  11.466
 6513TIP3   OH243733   2.939   3.405  10.586
 6513TIP3    H143734   3.003   3.441  10.647
 6513TIP3    H243735   2.909   3.480  10.534
 6514TIP3   OH243736   2.407   3.382  11.605
 6514TIP3    H143737   2.400   3.415  11.516
 6514TIP3    H243738   2.316   3.362  11.630
 6515TIP3   OH243739   3.556   1.898  10.266
 6515TIP3    H143740   3.471   1.917  10.305
 6515TIP3    H243741   3.585   1.982  10.231
 6516TIP3   OH243742   2.366   2.770  10.445
 6516TIP3    H143743   2.315   2.838  10.401
 6516TIP3    H243744   2.331   2.687  10.410
 6517TIP3   OH243745   3.673   3.362  10.114
 6517TIP3    H143746   3.698   3.454  10.115
 6517TIP3    H243747   3.756   3.314  10.120
 6518TIP3   OH243748   1.976   3.032  11.337
 6518TIP3    H143749   1.927   3.051  11.257
 6518TIP3    H243750   1.998   2.939  11.331
 6519TIP3   OH243751   1.944   3.320  11.013
 6519TIP3    H143752   2.034   3.311  11.042
 6519TIP3    H243753   1.912   3.398  11.059
 6520TIP3   OH243754   3.766   3.370  11.607
 6520TIP3    H143755   3.749   3.277  11.597
 6520TIP3    H243756   3.684   3.406  11.642
 6521TIP3   OH243757   2.848   3.329  11.489
 6521TIP3    H143758   2.849   3.411  11.537
 6521TIP3    H243759   2.761   3.293  11.505
 6522TIP3   OH243760   2.911   3.667  10.450
 6522TIP3    H143761   2.896   3.682  10.357
 6522TIP3    H243762   2.890   3.750  10.493
 6523TIP3   OH243763   2.266   3.554  10.661
 6523TIP3    H143764   2.292   3.528  10.750
 6523TIP3    H243765   2.203   3.486  10.634
 6524TIP3   OH243766   3.182   3.648  10.193
 6524TIP3    H143767   3.236   3.582  10.150
 6524TIP3    H243768   3.200   3.637  10.286
 6525TIP3   OH243769   3.181   3.617  10.468
 6525TIP3    H143770   3.086   3.626  10.468
 6525TIP3    H243771   3.200   3.552  10.535
 6526TIP3   OH243772   3.398   2.478  11.682
 6526TIP3    H143773   3.461   2.548  11.666
 6526TIP3    H243774   3.452   2.404  11.710
 6527TIP3   OH243775   2.202   3.170  11.422
 6527TIP3    H143776   2.214   3.141  11.512
 6527TIP3    H243777   2.121   3.127  11.394
 6528TIP3   OH243778   2.459   2.010  11.031
 6528TIP3    H143779   2.380   1.996  10.979
 6528TIP3    H243780   2.435   2.078  11.094
 6529TIP3   OH243781   2.935   1.964  11.345
 6529TIP3    H143782   2.982   1.908  11.407
 6529TIP3    H243783   2.842   1.949  11.366
 6530TIP3   OH243784   3.241   2.398  11.477
 6530TIP3    H143785   3.271   2.422  11.564
 6530TIP3    H243786   3.251   2.477  11.424
 6531TIP3   OH243787   3.374   2.877  10.092
 6531TIP3    H143788   3.325   2.906  10.015
 6531TIP3    H243789   3.412   2.957  10.128
 6532TIP3   OH243790   2.886   2.264  10.121
 6532TIP3    H143791   2.842   2.227  10.197
 6532TIP3    H243792   2.818   2.269  10.054
 6533TIP3   OH243793   2.455   2.508  11.148
 6533TIP3    H143794   2.386   2.507  11.215
 6533TIP3    H243795   2.454   2.597  11.115
 6534TIP3   OH243796   2.466   2.501  10.658
 6534TIP3    H143797   2.371   2.494  10.648
 6534TIP3    H243798   2.501   2.485  10.570
 6535TIP3   OH243799   3.017   2.573  10.542
 6535TIP3    H143800   2.992   2.662  10.515
 6535TIP3    H243801   3.081   2.546  10.477
 6536TIP3   OH243802   2.895   2.592  11.662
 6536TIP3    H143803   2.851   2.519  11.707
 6536TIP3    H243804   2.971   2.611  11.717
 6537TIP3   OH243805   3.103   2.523  10.814
 6537TIP3    H143806   3.087   2.597  10.756
 6537TIP3    H243807   3.126   2.451  10.756
 6538TIP3   OH243808   2.241   2.507  11.324
 6538TIP3    H143809   2.211   2.562  11.396
 6538TIP3    H243810   2.207   2.420  11.345
 6539TIP3   OH243811   2.591   2.265  10.037
 6539TIP3    H143812   2.550   2.242  10.120
 6539TIP3    H243813   2.519   2.266   9.974
 6540TIP3   OH243814   1.914   2.227  10.746
 6540TIP3    H143815   1.971   2.232  10.823
 6540TIP3    H243816   1.975   2.214  10.673
 6541TIP3   OH243817   1.995   2.315  10.264
 6541TIP3    H143818   2.075   2.348  10.223
 6541TIP3    H243819   1.944   2.394  10.283
 6542TIP3   OH243820   3.042   2.660  11.251
 6542TIP3    H143821   3.088   2.598  11.194
 6542TIP3    H243822   2.999   2.604  11.317
 6543TIP3   OH243823   2.759   2.277  10.785
 6543TIP3    H143824   2.667   2.253  10.790
 6543TIP3    H243825   2.805   2.208  10.832
 6544TIP3   OH243826   2.203   2.424  10.631
 6544TIP3    H143827   2.127   2.459  10.586
 6544TIP3    H243828   2.212   2.335  10.598
 6545TIP3   OH243829   2.557   2.435  10.410
 6545TIP3    H143830   2.652   2.441  10.405
 6545TIP3    H243831   2.526   2.486  10.336
 6546TIP3   OH243832   3.141   2.195  11.043
 6546TIP3    H143833   3.059   2.155  11.013
 6546TIP3    H243834   3.201   2.183  10.970
 6547TIP3   OH243835   2.431   2.559  10.204
 6547TIP3    H143836   2.348   2.530  10.168
 6547TIP3    H243837   2.484   2.583  10.128
 6548TIP3   OH243838   3.485   3.763  11.715
 6548TIP3    H143839   3.504   3.794  11.626
 6548TIP3    H243840   3.560   3.793  11.767
 6549TIP3   OH243841   2.243   3.005  11.665
 6549TIP3    H143842   2.311   3.013  11.732
 6549TIP3    H243843   2.161   3.006  11.714
 6550TIP3   OH243844   2.834   2.518  10.907
 6550TIP3    H143845   2.926   2.522  10.879
 6550TIP3    H243846   2.801   2.437  10.868
 6551TIP3   OH243847   2.292   2.156  10.583
 6551TIP3    H143848   2.245   2.079  10.613
 6551TIP3    H243849   2.325   2.133  10.496
 6552TIP3   OH243850   2.702   2.411  11.206
 6552TIP3    H143851   2.621   2.440  11.165
 6552TIP3    H243852   2.769   2.427  11.140
 6553TIP3   OH243853   2.765   3.021  10.361
 6553TIP3    H143854   2.699   2.961  10.325
 6553TIP3    H243855   2.734   3.039  10.450
 6554TIP3   OH243856   3.481   2.949  11.198
 6554TIP3    H143857   3.535   3.006  11.143
 6554TIP3    H243858   3.404   2.930  11.143
 6555TIP3   OH243859   3.149   2.264  10.220
 6555TIP3    H143860   3.067   2.266  10.170
 6555TIP3    H243861   3.162   2.355  10.247
 6556TIP3   OH243862   2.902   3.043  11.483
 6556TIP3    H143863   2.921   3.011  11.572
 6556TIP3    H243864   2.882   3.136  11.495
 6557TIP3   OH243865   3.212   2.504  10.351
 6557TIP3    H143866   3.298   2.482  10.388
 6557TIP3    H243867   3.222   2.594  10.320
 6558TIP3   OH243868   2.284   2.946  10.897
 6558TIP3    H143869   2.339   2.935  10.820
 6558TIP3    H243870   2.319   2.884  10.961
 6559TIP3   OH243871   2.995   3.158  10.271
 6559TIP3    H143872   2.961   3.247  10.269
 6559TIP3    H243873   2.918   3.104  10.291
 6560TIP3   OH243874   1.998   2.742  11.436
 6560TIP3    H143875   1.963   2.703  11.516
 6560TIP3    H243876   1.925   2.740  11.375
 6561TIP3   OH243877   2.680   2.769  11.661
 6561TIP3    H143878   2.616   2.723  11.605
 6561TIP3    H243879   2.760   2.718  11.650
 6562TIP3   OH243880   3.129   3.290  11.484
 6562TIP3    H143881   3.037   3.305  11.465
 6562TIP3    H243882   3.141   3.321  11.574
 6563TIP3   OH243883   3.717   2.529  10.327
 6563TIP3    H143884   3.653   2.501  10.262
 6563TIP3    H243885   3.739   2.619  10.302
 6564TIP3   OH243886   3.729   3.085  11.567
 6564TIP3    H143887   3.640   3.096  11.536
 6564TIP3    H243888   3.781   3.070  11.488
 6565TIP3   OH243889   3.550   3.348  10.359
 6565TIP3    H143890   3.478   3.285  10.366
 6565TIP3    H243891   3.581   3.340  10.269
 6566TIP3   OH243892   3.263   2.865  11.027
 6566TIP3    H143893   3.169   2.853  11.012
 6566TIP3    H243894   3.304   2.789  10.986
 6567TIP3   OH243895   2.522   3.285  10.691
 6567TIP3    H143896   2.546   3.369  10.653
 6567TIP3    H243897   2.427   3.281  10.682
 6568TIP3   OH243898   2.117   2.748  10.137
 6568TIP3    H143899   2.164   2.820  10.180
 6568TIP3    H243900   2.025   2.765  10.157
 6569TIP3   OH243901   2.640   3.052  10.602
 6569TIP3    H143902   2.612   3.139  10.630
 6569TIP3    H243903   2.576   2.992  10.640
 6570TIP3   OH243904   2.727   3.478  11.277
 6570TIP3    H143905   2.786   3.549  11.251
 6570TIP3    H243906   2.778   3.423  11.336
 6571TIP3   OH243907   2.528   3.543  10.577
 6571TIP3    H143908   2.436   3.562  10.595
 6571TIP3    H243909   2.575   3.621  10.607
 6572TIP3   OH243910   3.016   3.067  11.236
 6572TIP3    H143911   2.980   3.056  11.323
 6572TIP3    H243912   3.098   3.018  11.237
 6573TIP3   OH243913   3.263   3.168  10.157
 6573TIP3    H143914   3.308   3.135  10.235
 6573TIP3    H243915   3.170   3.166  10.180
 6574TIP3   OH243916   3.348   3.507  11.450
 6574TIP3    H143917   3.263   3.465  11.436
 6574TIP3    H243918   3.348   3.580  11.388
 6575TIP3   OH243919   3.750   3.625  10.163
 6575TIP3    H143920   3.822   3.687  10.172
 6575TIP3    H243921   3.673   3.672  10.191
 6576TIP3   OH243922   2.168   2.248  11.430
 6576TIP3    H143923   2.093   2.288  11.475
 6576TIP3    H243924   2.178   2.163  11.473
 6577TIP3   OH243925   3.397   3.053  10.372
 6577TIP3    H143926   3.360   2.980  10.421
 6577TIP3    H243927   3.492   3.039  10.376
 6578TIP3   OH243928   2.129   3.438  11.244
 6578TIP3    H143929   2.166   3.360  11.286
 6578TIP3    H243930   2.127   3.504  11.314
 6579TIP3   OH243931   2.569   3.221  10.236
 6579TIP3    H143932   2.638   3.175  10.283
 6579TIP3    H243933   2.580   3.313  10.263
 6580TIP3   OH243934   2.218   2.954  10.298
 6580TIP3    H143935   2.147   2.998  10.344
 6580TIP3    H243936   2.262   3.024  10.249
 6581TIP3   OH243937   3.051   2.216  11.342
 6581TIP3    H143938   3.108   2.248  11.272
 6581TIP3    H243939   3.007   2.140  11.305
 6582TIP3   OH243940   3.120   2.137  10.459
 6582TIP3    H143941   3.128   2.175  10.372
 6582TIP3    H243942   3.149   2.206  10.518
 6583TIP3   OH243943   2.865   3.398  10.262
 6583TIP3    H143944   2.778   3.417  10.296
 6583TIP3    H243945   2.902   3.484  10.242
 6584TIP3   OH243946   2.825   2.375  10.526
 6584TIP3    H143947   2.892   2.443  10.530
 6584TIP3    H243948   2.801   2.359  10.617
 6585TIP3   OH243949   2.929   2.465  11.417
 6585TIP3    H143950   2.957   2.490  11.505
 6585TIP3    H243951   2.972   2.382  11.401
 6586TIP3   OH243952   2.881   2.048  10.563
 6586TIP3    H143953   2.862   2.125  10.616
 6586TIP3    H243954   2.967   2.065  10.525
 6587TIP3   OH243955   2.607   3.480  10.321
 6587TIP3    H143956   2.609   3.565  10.277
 6587TIP3    H243957   2.580   3.500  10.411
 6588TIP3   OH243958   2.473   2.193  10.286
 6588TIP3    H143959   2.476   2.277  10.332
 6588TIP3    H243960   2.559   2.153  10.303
 6589TIP3   OH243961   3.449   2.216  11.496
 6589TIP3    H143962   3.386   2.285  11.479
 6589TIP3    H243963   3.526   2.240  11.446
 6590TIP3   OH243964   3.357   2.626  10.908
 6590TIP3    H143965   3.274   2.580  10.897
 6590TIP3    H243966   3.411   2.565  10.959
 6591TIP3   OH243967   2.309   3.175  10.147
 6591TIP3    H143968   2.384   3.213  10.192
 6591TIP3    H243969   2.347   3.114  10.084
 6592TIP3   OH243970   2.173   2.486  10.109
 6592TIP3    H143971   2.153   2.579  10.118
 6592TIP3    H243972   2.130   2.460  10.027
 6593TIP3   OH243973   3.473   3.563  11.044
 6593TIP3    H143974   3.461   3.634  10.982
 6593TIP3    H243975   3.567   3.559  11.059
 6594TIP3   OH243976   2.202   1.971  10.940
 6594TIP3    H143977   2.188   1.958  10.846
 6594TIP3    H243978   2.174   1.888  10.979
 6595TIP3   OH243979   2.078   3.355  10.550
 6595TIP3    H143980   2.014   3.386  10.613
 6595TIP3    H243981   2.073   3.417  10.477
 6596TIP3   OH243982   2.022   3.651  11.693
 6596TIP3    H143983   2.081   3.632  11.766
 6596TIP3    H243984   1.986   3.565  11.668
 6597TIP3   OH243985   2.467   3.524  11.838
 6597TIP3    H143986   2.552   3.491  11.867
 6597TIP3    H243987   2.451   3.478  11.755
 6598TIP3   OH243988   2.901   3.461   9.975
 6598TIP3    H143989   2.835   3.399  10.005
 6598TIP3    H243990   2.984   3.413   9.982
 6599TIP3   OH243991   3.127   3.374  11.746
 6599TIP3    H143992   3.098   3.289  11.778
 6599TIP3    H243993   3.206   3.393  11.797
 6600TIP3   OH243994   3.324   3.437  10.084
 6600TIP3    H143995   3.308   3.344  10.102
 6600TIP3    H243996   3.413   3.439  10.048
 6601TIP3   OH243997   1.992   3.020  11.798
 6601TIP3    H143998   1.937   2.951  11.837
 6601TIP3    H243999   1.940   3.052  11.724
 6602TIP3   OH244000   2.486   2.989  10.048
 6602TIP3    H144001   2.507   2.932  10.121
 6602TIP3    H244002   2.554   3.056  10.049
 6603TIP3   OH244003   2.673   3.043  11.719
 6603TIP3    H144004   2.655   3.089  11.637
 6603TIP3    H244005   2.685   2.951  11.693
 6604TIP3   OH244006   3.243   3.029  11.496
 6604TIP3    H144007   3.333   3.057  11.477
 6604TIP3    H244008   3.191   3.109  11.492
 6605TIP3   OH244009   2.127   2.675  11.761
 6605TIP3    H144010   2.220   2.664  11.741
 6605TIP3    H244011   2.126   2.728  11.841
 6606TIP3   OH244012   2.581   2.840  10.263
 6606TIP3    H144013   2.519   2.796  10.321
 6606TIP3    H244014   2.622   2.769  10.213
 6607TIP3   OH244015   2.505   2.662  11.443
 6607TIP3    H144016   2.418   2.693  11.468
 6607TIP3    H244017   2.535   2.725  11.377
 6608TIP3   OH244018   2.710   2.663  10.095
 6608TIP3    H144019   2.710   2.655  10.000
 6608TIP3    H244020   2.803   2.664  10.119
 6609TIP3   OH244021   3.034   2.876  11.777
 6609TIP3    H144022   3.123   2.846  11.757
 6609TIP3    H244023   3.004   2.817  11.846
 6610TIP3   OH244024   3.579   2.873  19.994
 6610TIP3    H144025   3.652   2.823  19.957
 6610TIP3    H244026   3.608   2.964  19.993
 6611TIP3   OH244027   2.551   2.381  11.522
 6611TIP3    H144028   2.566   2.293  11.487
 6611TIP3    H244029   2.466   2.406  11.487
 6612TIP3   OH244030   2.586   2.186  11.330
 6612TIP3    H144031   2.639   2.247  11.279
 6612TIP3    H244032   2.501   2.185  11.287
 6613TIP3   OH244033   2.742   2.746  11.312
 6613TIP3    H144034   2.831   2.780  11.318
 6613TIP3    H244035   2.691   2.818  11.276
 6614TIP3   OH244036   3.149   2.536  11.835
 6614TIP3    H144037   3.171   2.452  11.876
 6614TIP3    H244038   3.231   2.566  11.797
 6615TIP3   OH244039   3.309   2.831  11.672
 6615TIP3    H144040   3.277   2.903  11.619
 6615TIP3    H244041   3.403   2.829  11.656
 6616TIP3   OH244042   2.372   2.474  11.765
 6616TIP3    H144043   2.299   2.412  11.762
 6616TIP3    H244044   2.431   2.445  11.696
 6617TIP3   OH244045   2.664   1.925  11.355
 6617TIP3    H144046   2.635   2.016  11.347
 6617TIP3    H244047   2.593   1.874  11.316
 6618TIP3   OH244048   2.759   2.374  11.748
 6618TIP3    H144049   2.780   2.337  11.834
 6618TIP3    H244050   2.669   2.344  11.731
 6619TIP3   OH244051   2.997   2.270  11.666
 6619TIP3    H144052   2.909   2.303  11.684
 6619TIP3    H244053   3.038   2.263  11.753
 6620TIP3   OH244054   3.217   2.127  11.779
 6620TIP3    H144055   3.215   2.035  11.802
 6620TIP3    H244056   3.195   2.173  11.861
 6621TIP3   OH244057   2.188   2.261  11.762
 6621TIP3    H144058   2.187   2.177  11.717
 6621TIP3    H244059   2.192   2.239  11.855
 6622TIP3   OH244060   2.662   1.889  11.627
 6622TIP3    H144061   2.717   1.811  11.632
 6622TIP3    H244062   2.652   1.905  11.533
 6623TIP3   OH244063   2.686   2.036  11.854
 6623TIP3    H144064   2.678   1.986  11.772
 6623TIP3    H244065   2.620   2.105  11.847
 6624TIP3   OH244066   2.646   3.719  10.191
 6624TIP3    H144067   2.741   3.714  10.176
 6624TIP3    H244068   2.614   3.776  10.121
 6625TIP3   OH244069   2.037   3.224  10.132
 6625TIP3    H144070   2.132   3.227  10.141
 6625TIP3    H244071   2.021   3.173  10.053
 6626TIP3   OH244072   1.920   3.705  10.628
 6626TIP3    H144073   1.858   3.670  10.565
 6626TIP3    H244074   1.939   3.631  10.687
 6627TIP3   OH244075   1.986   3.499  10.797
 6627TIP3    H144076   1.944   3.427  10.844
 6627TIP3    H244077   2.037   3.545  10.864
 6628TIP3   OH244078   3.742   3.582  11.104
 6628TIP3    H144079   3.747   3.609  11.195
 6628TIP3    H244080   3.815   3.627  11.062
 6629TIP3   OH244081   3.685   3.555  11.391
 6629TIP3    H144082   3.637   3.485  11.345
 6629TIP3    H244083   3.736   3.509  11.458
 6630TIP3   OH244084   3.532   3.155  11.874
 6630TIP3    H144085   3.448   3.162  11.920
 6630TIP3    H244086   3.586   3.224  11.912
 6631TIP3   OH244087   3.661   2.970  10.393
 6631TIP3    H144088   3.734   3.032  10.397
 6631TIP3    H244089   3.673   2.914  10.469
 6632TIP3   OH244090   3.712   2.794  10.601
 6632TIP3    H144091   3.631   2.755  10.634
 6632TIP3    H244092   3.762   2.816  10.679
 6633TIP3   OH244093   3.674   3.086  11.062
 6633TIP3    H144094   3.747   3.026  11.048
 6633TIP3    H244095   3.708   3.172  11.038
 6634TIP3   OH244096   3.520   3.347  11.297
 6634TIP3    H144097   3.450   3.396  11.339
 6634TIP3    H244098   3.487   3.326  11.210
 6635TIP3   OH244099   3.737   2.780  10.209
 6635TIP3    H144100   3.671   2.787  10.140
 6635TIP3    H244101   3.714   2.849  10.272
 6636TIP3   OH244102   3.535   2.480  10.135
 6636TIP3    H144103   3.477   2.540  10.088
 6636TIP3    H244104   3.525   2.397  10.089
 6637TIP3   OH244105   3.478   2.656  10.663
 6637TIP3    H144106   3.464   2.567  10.630
 6637TIP3    H244107   3.442   2.654  10.752
 6638TIP3   OH244108   1.969   2.867  11.054
 6638TIP3    H144109   1.975   2.851  10.959
 6638TIP3    H244110   2.053   2.836  11.089
 6639TIP3   OH244111   3.581   2.824  11.618
 6639TIP3    H144112   3.624   2.740  11.602
 6639TIP3    H244113   3.639   2.889  11.576
 6640TIP3   OH244114   3.686   2.570  11.616
 6640TIP3    H144115   3.673   2.569  11.711
 6640TIP3    H244116   3.752   2.503  11.599
 6641TIP3   OH244117   3.491   2.245  10.006
 6641TIP3    H144118   3.559   2.189  10.043
 6641TIP3    H244119   3.415   2.188   9.998
 6642TIP3   OH244120   3.451   2.418  10.495
 6642TIP3    H144121   3.473   2.325  10.492
 6642TIP3    H244122   3.522   2.461  10.448
 6643TIP3   OH244123   3.520   2.441  11.034
 6643TIP3    H144124   3.613   2.460  11.021
 6643TIP3    H244125   3.504   2.462  11.126
 6644TIP3   OH244126   3.525   2.546  11.294
 6644TIP3    H144127   3.448   2.585  11.335
 6644TIP3    H244128   3.585   2.619  11.278
 6645TIP3   OH244129   1.971   2.353  11.609
 6645TIP3    H144130   2.040   2.348  11.675
 6645TIP3    H244131   1.914   2.279  11.629
 6646TIP3   OH244132   3.738   1.912  11.839
 6646TIP3    H144133   3.797   1.847  11.800
 6646TIP3    H244134   3.745   1.988  11.781
 6647TIP3   OH244135   3.521   2.151  10.498
 6647TIP3    H144136   3.549   2.113  10.581
 6647TIP3    H244137   3.459   2.087  10.463
 6648TIP3   OH244138   2.062   2.207  10.980
 6648TIP3    H144139   2.102   2.120  10.978
 6648TIP3    H244140   2.135   2.268  10.985
 6649TIP3   OH244141   1.902   2.517  11.051
 6649TIP3    H144142   1.966   2.515  10.980
 6649TIP3    H244143   1.929   2.590  11.106
 6650TIP3   OH244144   3.693   2.134  11.679
 6650TIP3    H144145   3.626   2.168  11.737
 6650TIP3    H244146   3.645   2.100  11.604
 6651TIP3   OH244147   3.712   2.130  10.136
 6651TIP3    H144148   3.772   2.090  10.074
 6651TIP3    H244149   3.763   2.199  10.178
 6652TIP3   OH244150   1.939   2.127  10.457
 6652TIP3    H144151   1.844   2.134  10.468
 6652TIP3    H244152   1.961   2.197  10.396
 6653TIP3   OH244153   3.418   3.621  10.667
 6653TIP3    H144154   3.489   3.612  10.603
 6653TIP3    H244155   3.455   3.676  10.736
 6654TIP3   OH244156   1.938   1.984  11.278
 6654TIP3    H144157   1.869   1.971  11.343
 6654TIP3    H244158   1.900   2.043  11.213
 6655TIP3   OH244159   2.151   3.332  11.697
 6655TIP3    H144160   2.063   3.348  11.664
 6655TIP3    H244161   2.139   3.309  11.789
 6656TIP3   OH244162   2.457   3.454  11.334
 6656TIP3    H144163   2.427   3.539  11.303
 6656TIP3    H244164   2.552   3.457  11.327
 6657TIP3   OH244165   2.852   3.578  11.611
 6657TIP3    H144166   2.864   3.560  11.704
 6657TIP3    H244167   2.928   3.631  11.587
 6658TIP3   OH244168   3.078   3.729  11.559
 6658TIP3    H144169   3.140   3.680  11.504
 6658TIP3    H244170   3.126   3.744  11.641
 6659TIP3   OH244171   3.596   1.935  11.473
 6659TIP3    H144172   3.527   1.965  11.414
 6659TIP3    H244173   3.621   1.849  11.439
 6660TIP3   OH244174   2.171   3.760  11.344
 6660TIP3    H144175   2.089   3.793  11.309
 6660TIP3    H244176   2.178   3.800  11.431
 6661TIP3   OH244177   2.425   3.714  11.246
 6661TIP3    H144178   2.336   3.733  11.277
 6661TIP3    H244179   2.434   3.766  11.166
 6662TIP3   OH244180   2.891   3.678  11.164
 6662TIP3    H144181   2.839   3.711  11.090
 6662TIP3    H244182   2.907   3.755  11.218
 6663TIP3   OH244183   3.111   3.559  11.287
 6663TIP3    H144184   3.034   3.594  11.242
 6663TIP3    H244185   3.183   3.616  11.258
 6664TIP3   OH244186   3.349   3.701  11.250
 6664TIP3    H144187   3.360   3.793  11.228
 6664TIP3    H244188   3.391   3.654  11.178
 6665TIP3   OH244189   2.137   3.600  11.017
 6665TIP3    H144190   2.126   3.553  11.100
 6665TIP3    H244191   2.219   3.565  10.980
 6666TIP3   OH244192   2.356   3.481  10.910
 6666TIP3    H144193   2.340   3.389  10.933
 6666TIP3    H244194   2.443   3.500  10.944
 6667TIP3   OH244195   2.612   3.499  11.022
 6667TIP3    H144196   2.619   3.408  10.995
 6667TIP3    H244197   2.640   3.500  11.113
 6668TIP3   OH244198   2.914   2.072  10.901
 6668TIP3    H144199   2.851   2.004  10.926
 6668TIP3    H244200   2.985   2.024  10.857
 6669TIP3   OH244201   3.443   1.939  10.893
 6669TIP3    H144202   3.507   1.972  10.830
 6669TIP3    H244203   3.359   1.945  10.848
 6670TIP3   OH244204   3.633   2.040  10.721
 6670TIP3    H144205   3.683   1.961  10.697
 6670TIP3    H244206   3.700   2.107  10.735
 6671TIP3   OH244207   2.166   1.926  10.669
 6671TIP3    H144208   2.075   1.910  10.645
 6671TIP3    H244209   2.209   1.842  10.657
 6672TIP3   OH244210   2.046   1.934  10.278
 6672TIP3    H144211   2.107   1.994  10.234
 6672TIP3    H244212   2.006   1.987  10.347
 6673TIP3   OH244213   2.640   1.910  10.659
 6673TIP3    H144214   2.723   1.945  10.625
 6673TIP3    H244215   2.641   1.932  10.752
 6674TIP3   OH244216   3.179   1.959  10.787
 6674TIP3    H144217   3.196   1.937  10.696
 6674TIP3    H244218   3.144   1.878  10.825
 6675TIP3   OH244219   3.335   1.959  10.425
 6675TIP3    H144220   3.256   2.014  10.420
 6675TIP3    H244221   3.301   1.871  10.445
 6676TIP3   OH244222   2.055   3.544  10.356
 6676TIP3    H144223   1.981   3.534  10.296
 6676TIP3    H244224   2.066   3.638  10.365
 6677TIP3   OH244225   2.246   2.079  10.149
 6677TIP3    H144226   2.274   1.992  10.122
 6677TIP3    H244227   2.323   2.118  10.191
 6678TIP3   OH244228   2.749   2.178  10.349
 6678TIP3    H144229   2.781   2.103  10.399
 6678TIP3    H244230   2.773   2.254  10.402
 6679TIP3   OH244231   2.915   3.665  10.160
 6679TIP3    H144232   3.009   3.681  10.167
 6679TIP3    H244233   2.906   3.612  10.080
 6680TIP3   OH244234   3.610   3.590  10.470
 6680TIP3    H144235   3.590   3.502  10.436
 6680TIP3    H244236   3.593   3.648  10.395
 6681TIP3   OH244237   2.172   2.008  11.622
 6681TIP3    H144238   2.110   1.938  11.643
 6681TIP3    H244239   2.249   1.986  11.675
 6682TIP3   OH244240   2.362   1.929  11.808
 6682TIP3    H144241   2.449   1.893  11.790
 6682TIP3    H244242   2.313   1.857  11.846
 6683TIP3   OH244243   2.274   3.688  10.130
 6683TIP3    H144244   2.194   3.687  10.183
 6683TIP3    H244245   2.310   3.600  10.139
 6684TIP3   OH244246   3.225   1.857  11.810
 6684TIP3    H144247   3.214   1.817  11.897
 6684TIP3    H244248   3.319   1.848  11.792
 6685TIP3   OH244249   3.523   3.491  11.669
 6685TIP3    H144250   3.467   3.482  11.592
 6685TIP3    H244251   3.517   3.584  11.691
 6686TIP3   OH244252   4.992   2.886  10.667
 6686TIP3    H144253   4.993   2.974  10.704
 6686TIP3    H244254   4.923   2.888  10.601
 6687TIP3   OH244255   4.861   2.790  11.022
 6687TIP3    H144256   4.882   2.756  11.109
 6687TIP3    H244257   4.814   2.718  10.980
 6688TIP3   OH244258   4.065   2.714  11.155
 6688TIP3    H144259   4.074   2.646  11.221
 6688TIP3    H244260   4.155   2.743  11.138
 6689TIP3   OH244261   5.199   3.092  10.863
 6689TIP3    H144262   5.180   3.017  10.919
 6689TIP3    H244263   5.234   3.159  10.922
 6690TIP3   OH244264   4.199   3.214  10.973
 6690TIP3    H144265   4.167   3.125  10.955
 6690TIP3    H244266   4.292   3.203  10.992
 6691TIP3   OH244267   3.853   2.541  10.568
 6691TIP3    H144268   3.833   2.630  10.597
 6691TIP3    H244269   3.805   2.530  10.487
 6692TIP3   OH244270   3.913   2.797  10.805
 6692TIP3    H144271   3.944   2.708  10.825
 6692TIP3    H244272   3.991   2.852  10.811
 6693TIP3   OH244273   4.940   3.624  10.861
 6693TIP3    H144274   4.987   3.556  10.813
 6693TIP3    H244275   4.900   3.579  10.935
 6694TIP3   OH244276   4.689   3.038  11.052
 6694TIP3    H144277   4.733   2.965  11.010
 6694TIP3    H244278   4.754   3.073  11.114
 6695TIP3   OH244279   5.572   2.177  11.128
 6695TIP3    H144280   5.578   2.243  11.198
 6695TIP3    H244281   5.641   2.201  11.066
 6696TIP3   OH244282   5.042   2.470  11.078
 6696TIP3    H144283   5.062   2.377  11.090
 6696TIP3    H244284   5.017   2.477  10.986
 6697TIP3   OH244285   4.333   2.276  10.779
 6697TIP3    H144286   4.331   2.357  10.730
 6697TIP3    H244287   4.320   2.207  10.713
 6698TIP3   OH244288   5.118   2.321  10.649
 6698TIP3    H144289   5.165   2.286  10.724
 6698TIP3    H244290   5.186   2.362  10.595
 6699TIP3   OH244291   4.000   2.535  10.866
 6699TIP3    H144292   4.067   2.507  10.928
 6699TIP3    H244293   4.014   2.480  10.789
 6700TIP3   OH244294   4.488   2.666  10.833
 6700TIP3    H144295   4.577   2.646  10.863
 6700TIP3    H244296   4.457   2.584  10.795
 6701TIP3   OH244297   5.581   2.339  11.357
 6701TIP3    H144298   5.528   2.415  11.336
 6701TIP3    H244299   5.615   2.356  11.445
 6702TIP3   OH244300   4.222   2.195  11.216
 6702TIP3    H144301   4.189   2.259  11.153
 6702TIP3    H244302   4.159   2.198  11.288
 6703TIP3   OH244303   4.907   3.145  10.539
 6703TIP3    H144304   4.915   3.157  10.445
 6703TIP3    H244305   4.872   3.229  10.571
 6704TIP3   OH244306   4.457   2.964  11.182
 6704TIP3    H144307   4.410   3.039  11.219
 6704TIP3    H244308   4.534   3.002  11.140
 6705TIP3   OH244309   5.280   2.259  10.860
 6705TIP3    H144310   5.260   2.187  10.920
 6705TIP3    H244311   5.339   2.316  10.911
 6706TIP3   OH244312   4.185   2.364  10.995
 6706TIP3    H144313   4.245   2.416  11.048
 6706TIP3    H244314   4.240   2.325  10.927
 6707TIP3   OH244315   4.325   3.183  11.286
 6707TIP3    H144316   4.330   3.278  11.277
 6707TIP3    H244317   4.239   3.167  11.325
 6708TIP3   OH244318   3.896   3.117  10.395
 6708TIP3    H144319   3.892   3.164  10.312
 6708TIP3    H244320   3.917   3.185  10.460
 6709TIP3   OH244321   5.277   3.295  11.053
 6709TIP3    H144322   5.184   3.302  11.076
 6709TIP3    H244323   5.302   3.385  11.031
 6710TIP3   OH244324   5.300   2.077  11.194
 6710TIP3    H144325   5.228   2.127  11.156
 6710TIP3    H244326   5.379   2.116  11.156
 6711TIP3   OH244327   4.574   1.892  10.938
 6711TIP3    H144328   4.552   1.800  10.955
 6711TIP3    H244329   4.502   1.942  10.977
 6712TIP3   OH244330   5.085   3.457  10.694
 6712TIP3    H144331   5.117   3.369  10.675
 6712TIP3    H244332   5.163   3.512  10.699
 6713TIP3   OH244333   5.204   3.223  10.621
 6713TIP3    H144334   5.186   3.158  10.552
 6713TIP3    H244335   5.207   3.172  10.701
 6714TIP3   OH244336   5.387   3.104  11.430
 6714TIP3    H144337   5.381   3.047  11.353
 6714TIP3    H244338   5.399   3.191  11.393
 6715TIP3   OH244339   4.844   2.830  10.427
 6715TIP3    H144340   4.786   2.904  10.410
 6715TIP3    H244341   4.907   2.832  10.354
 6716TIP3   OH244342   4.869   2.632  10.128
 6716TIP3    H144343   4.937   2.679  10.176
 6716TIP3    H244344   4.910   2.549  10.104
 6717TIP3   OH244345   5.565   2.767  11.252
 6717TIP3    H144346   5.491   2.828  11.249
 6717TIP3    H244347   5.622   2.793  11.180
 6718TIP3   OH244348   5.202   2.824  10.505
 6718TIP3    H144349   5.134   2.844  10.569
 6718TIP3    H244350   5.267   2.773  10.554
 6719TIP3   OH244351   5.167   2.651  11.418
 6719TIP3    H144352   5.174   2.731  11.470
 6719TIP3    H244353   5.096   2.668  11.356
 6720TIP3   OH244354   4.346   2.869  10.701
 6720TIP3    H144355   4.325   2.835  10.615
 6720TIP3    H244356   4.406   2.804  10.739
 6721TIP3   OH244357   4.482   3.219  10.959
 6721TIP3    H144358   4.484   3.227  10.864
 6721TIP3    H244359   4.557   3.163  10.980
 6722TIP3   OH244360   4.332   2.762  11.051
 6722TIP3    H144361   4.391   2.741  10.978
 6722TIP3    H244362   4.378   2.830  11.100
 6723TIP3   OH244363   5.020   3.309  11.139
 6723TIP3    H144364   5.003   3.380  11.201
 6723TIP3    H244365   4.973   3.234  11.176
 6724TIP3   OH244366   4.486   3.207  11.513
 6724TIP3    H144367   4.426   3.264  11.560
 6724TIP3    H244368   4.439   3.185  11.432
 6725TIP3   OH244369   5.083   2.757  10.269
 6725TIP3    H144370   5.121   2.785  10.352
 6725TIP3    H244371   5.140   2.795  10.202
 6726TIP3   OH244372   4.183   2.803  11.455
 6726TIP3    H144373   4.191   2.876  11.517
 6726TIP3    H244374   4.088   2.791  11.445
 6727TIP3   OH244375   4.827   3.414  10.584
 6727TIP3    H144376   4.905   3.438  10.635
 6727TIP3    H244377   4.801   3.494  10.540
 6728TIP3   OH244378   4.296   3.385  11.601
 6728TIP3    H144379   4.295   3.422  11.512
 6728TIP3    H244380   4.204   3.374  11.623
 6729TIP3   OH244381   5.451   1.909  10.273
 6729TIP3    H144382   5.368   1.930  10.316
 6729TIP3    H244383   5.486   1.994  10.246
 6730TIP3   OH244384   4.258   2.755  10.451
 6730TIP3    H144385   4.209   2.831  10.418
 6730TIP3    H244386   4.250   2.689  10.383
 6731TIP3   OH244387   5.562   3.362  10.118
 6731TIP3    H144388   5.587   3.454  10.120
 6731TIP3    H244389   5.645   3.315  10.123
 6732TIP3   OH244390   3.869   3.015  11.341
 6732TIP3    H144391   3.855   3.005  11.247
 6732TIP3    H244392   3.887   2.926  11.372
 6733TIP3   OH244393   3.827   3.320  11.016
 6733TIP3    H144394   3.917   3.310  11.047
 6733TIP3    H244395   3.793   3.396  11.063
 6734TIP3   OH244396   5.650   3.384  11.611
 6734TIP3    H144397   5.649   3.289  11.608
 6734TIP3    H244398   5.561   3.409  11.636
 6735TIP3   OH244399   4.733   3.322  11.484
 6735TIP3    H144400   4.737   3.405  11.531
 6735TIP3    H244401   4.646   3.287  11.503
 6736TIP3   OH244402   4.801   3.669  10.446
 6736TIP3    H144403   4.788   3.686  10.353
 6736TIP3    H244404   4.780   3.752  10.489
 6737TIP3   OH244405   4.148   3.557  10.665
 6737TIP3    H144406   4.179   3.530  10.752
 6737TIP3    H244407   4.085   3.489  10.640
 6738TIP3   OH244408   5.074   3.645  10.184
 6738TIP3    H144409   5.128   3.579  10.141
 6738TIP3    H244410   5.093   3.636  10.277
 6739TIP3   OH244411   5.072   3.618  10.458
 6739TIP3    H144412   4.977   3.628  10.460
 6739TIP3    H244413   5.091   3.556  10.528
 6740TIP3   OH244414   5.330   2.511  11.647
 6740TIP3    H144415   5.269   2.548  11.583
 6740TIP3    H244416   5.332   2.417  11.626
 6741TIP3   OH244417   4.088   3.165  11.419
 6741TIP3    H144418   4.110   3.130  11.505
 6741TIP3    H244419   4.009   3.118  11.393
 6742TIP3   OH244420   4.340   2.015  11.036
 6742TIP3    H144421   4.258   2.003  10.988
 6742TIP3    H244422   4.320   2.083  11.100
 6743TIP3   OH244423   4.831   1.970  11.367
 6743TIP3    H144424   4.879   1.924  11.436
 6743TIP3    H244425   4.739   1.959  11.391
 6744TIP3   OH244426   5.111   2.375  11.451
 6744TIP3    H144427   5.049   2.364  11.522
 6744TIP3    H244428   5.114   2.470  11.436
 6745TIP3   OH244429   5.254   2.879  10.091
 6745TIP3    H144430   5.203   2.930  10.029
 6745TIP3    H244431   5.300   2.944  10.144
 6746TIP3   OH244432   4.776   2.251  10.128
 6746TIP3    H144433   4.733   2.211  10.204
 6746TIP3    H244434   4.706   2.258  10.062
 6747TIP3   OH244435   4.352   2.506  11.158
 6747TIP3    H144436   4.306   2.509  11.241
 6747TIP3    H244437   4.354   2.597  11.128
 6748TIP3   OH244438   4.305   2.514  10.636
 6748TIP3    H144439   4.291   2.607  10.616
 6748TIP3    H244440   4.354   2.481  10.561
 6749TIP3   OH244441   4.889   2.572  10.531
 6749TIP3    H144442   4.871   2.662  10.505
 6749TIP3    H244443   4.960   2.543  10.474
 6750TIP3   OH244444   4.803   2.585  11.646
 6750TIP3    H144445   4.757   2.510  11.686
 6750TIP3    H244446   4.886   2.590  11.695
 6751TIP3   OH244447   4.986   2.514  10.812
 6751TIP3    H144448   4.969   2.589  10.755
 6751TIP3    H244449   5.016   2.445  10.753
 6752TIP3   OH244450   4.122   2.501  11.334
 6752TIP3    H144451   4.157   2.541  11.414
 6752TIP3    H244452   4.095   2.413  11.361
 6753TIP3   OH244453   4.486   2.257  10.036
 6753TIP3    H144454   4.430   2.233  10.111
 6753TIP3    H244455   4.425   2.276   9.965
 6754TIP3   OH244456   3.827   2.238  10.735
 6754TIP3    H144457   3.858   2.238  10.825
 6754TIP3    H244458   3.806   2.329  10.716
 6755TIP3   OH244459   3.886   2.318  10.265
 6755TIP3    H144460   3.966   2.352  10.224
 6755TIP3    H244461   3.836   2.397  10.287
 6756TIP3   OH244462   4.939   2.652  11.251
 6756TIP3    H144463   4.979   2.587  11.194
 6756TIP3    H244464   4.871   2.604  11.298
 6757TIP3   OH244465   4.655   2.245  10.749
 6757TIP3    H144466   4.573   2.255  10.797
 6757TIP3    H244467   4.714   2.203  10.812
 6758TIP3   OH244468   4.064   2.376  10.621
 6758TIP3    H144469   3.998   2.438  10.591
 6758TIP3    H244470   4.146   2.426  10.620
 6759TIP3   OH244471   4.432   2.420  10.418
 6759TIP3    H144472   4.526   2.420  10.434
 6759TIP3    H244473   4.420   2.479  10.343
 6760TIP3   OH244474   5.052   2.189  11.078
 6760TIP3    H144475   4.995   2.198  11.155
 6760TIP3    H244476   4.995   2.151  11.011
 6761TIP3   OH244477   4.332   2.573  10.214
 6761TIP3    H144478   4.255   2.539  10.169
 6761TIP3    H244479   4.394   2.592  10.143
 6762TIP3   OH244480   5.390   3.754  11.724
 6762TIP3    H144481   5.415   3.790  11.639
 6762TIP3    H244482   5.459   3.781  11.784
 6763TIP3   OH244483   4.141   3.015  11.658
 6763TIP3    H144484   4.209   3.009  11.725
 6763TIP3    H244485   4.059   3.003  11.706
 6764TIP3   OH244486   4.724   2.549  10.932
 6764TIP3    H144487   4.804   2.516  10.891
 6764TIP3    H244488   4.704   2.486  11.001
 6765TIP3   OH244489   4.258   2.096  10.566
 6765TIP3    H144490   4.316   2.027  10.597
 6765TIP3    H244491   4.288   2.114  10.477
 6766TIP3   OH244492   4.611   2.398  11.162
 6766TIP3    H144493   4.529   2.446  11.167
 6766TIP3    H244494   4.663   2.431  11.236
 6767TIP3   OH244495   4.653   3.033  10.352
 6767TIP3    H144496   4.588   2.974  10.315
 6767TIP3    H244497   4.622   3.050  10.441
 6768TIP3   OH244498   5.366   2.951  11.202
 6768TIP3    H144499   5.421   3.008  11.147
 6768TIP3    H244500   5.289   2.934  11.148
 6769TIP3   OH244501   5.045   2.262  10.212
 6769TIP3    H144502   4.959   2.263  10.170
 6769TIP3    H244503   5.054   2.351  10.247
 6770TIP3   OH244504   4.778   3.032  11.476
 6770TIP3    H144505   4.804   3.001  11.562
 6770TIP3    H244506   4.762   3.126  11.487
 6771TIP3   OH244507   5.098   2.494  10.358
 6771TIP3    H144508   5.183   2.472  10.397
 6771TIP3    H244509   5.111   2.583  10.324
 6772TIP3   OH244510   4.158   2.931  10.895
 6772TIP3    H144511   4.220   2.929  10.822
 6772TIP3    H244512   4.200   2.879  10.963
 6773TIP3   OH244513   4.880   3.167  10.257
 6773TIP3    H144514   4.846   3.256  10.258
 6773TIP3    H244515   4.804   3.112  10.280
 6774TIP3   OH244516   3.902   2.769  11.460
 6774TIP3    H144517   3.921   2.740  11.549
 6774TIP3    H244518   3.829   2.713  11.432
 6775TIP3   OH244519   4.578   2.749  11.655
 6775TIP3    H144520   4.518   2.702  11.597
 6775TIP3    H244521   4.663   2.706  11.643
 6776TIP3   OH244522   5.013   3.275  11.480
 6776TIP3    H144523   4.921   3.294  11.461
 6776TIP3    H244524   5.028   3.312  11.567
 6777TIP3   OH244525   5.594   2.527  10.309
 6777TIP3    H144526   5.529   2.505  10.242
 6777TIP3    H244527   5.618   2.618  10.289
 6778TIP3   OH244528   5.617   3.095  11.576
 6778TIP3    H144529   5.527   3.110  11.547
 6778TIP3    H244530   5.666   3.081  11.495
 6779TIP3   OH244531   5.434   3.352  10.362
 6779TIP3    H144532   5.364   3.286  10.370
 6779TIP3    H244533   5.466   3.341  10.273
 6780TIP3   OH244534   5.149   2.868  11.028
 6780TIP3    H144535   5.056   2.852  11.018
 6780TIP3    H244536   5.191   2.791  10.989
 6781TIP3   OH244537   4.410   3.291  10.687
 6781TIP3    H144538   4.437   3.377  10.652
 6781TIP3    H244539   4.315   3.290  10.678
 6782TIP3   OH244540   4.006   2.745  10.147
 6782TIP3    H144541   4.052   2.818  10.188
 6782TIP3    H244542   3.913   2.763  10.163
 6783TIP3   OH244543   4.522   3.059  10.590
 6783TIP3    H144544   4.499   3.146  10.620
 6783TIP3    H244545   4.466   3.000  10.641
 6784TIP3   OH244546   4.614   3.479  11.276
 6784TIP3    H144547   4.673   3.550  11.252
 6784TIP3    H244548   4.666   3.424  11.335
 6785TIP3   OH244549   4.412   3.553  10.579
 6785TIP3    H144550   4.321   3.572  10.598
 6785TIP3    H244551   4.460   3.630  10.609
 6786TIP3   OH244552   4.901   3.068  11.231
 6786TIP3    H144553   4.863   3.052  11.317
 6786TIP3    H244554   4.979   3.012  11.228
 6787TIP3   OH244555   5.137   3.164  10.137
 6787TIP3    H144556   5.187   3.133  10.212
 6787TIP3    H244557   5.046   3.165  10.167
 6788TIP3   OH244558   5.229   3.502  11.440
 6788TIP3    H144559   5.143   3.463  11.423
 6788TIP3    H244560   5.234   3.577  11.381
 6789TIP3   OH244561   5.640   3.626  10.164
 6789TIP3    H144562   5.709   3.691  10.178
 6789TIP3    H244563   5.559   3.670  10.190
 6790TIP3   OH244564   4.045   2.239  11.430
 6790TIP3    H144565   3.981   2.286  11.483
 6790TIP3    H244566   4.052   2.153  11.473
 6791TIP3   OH244567   5.283   3.047  10.345
 6791TIP3    H144568   5.243   2.980  10.401
 6791TIP3    H244569   5.377   3.040  10.363
 6792TIP3   OH244570   4.013   3.439  11.245
 6792TIP3    H144571   4.054   3.360  11.282
 6792TIP3    H244572   4.021   3.505  11.314
 6793TIP3   OH244573   4.453   3.230  10.234
 6793TIP3    H144574   4.526   3.186  10.277
 6793TIP3    H244575   4.462   3.322  10.260
 6794TIP3   OH244576   4.107   2.952  10.308
 6794TIP3    H144577   4.033   2.994  10.352
 6794TIP3    H244578   4.150   3.023  10.261
 6795TIP3   OH244579   4.910   2.231  11.313
 6795TIP3    H144580   4.984   2.253  11.369
 6795TIP3    H244581   4.884   2.144  11.341
 6796TIP3   OH244582   5.012   2.139  10.459
 6796TIP3    H144583   5.027   2.177  10.372
 6796TIP3    H244584   5.045   2.205  10.520
 6797TIP3   OH244585   4.746   3.403  10.259
 6797TIP3    H144586   4.661   3.423  10.299
 6797TIP3    H244587   4.784   3.489  10.240
 6798TIP3   OH244588   4.688   2.384  10.511
 6798TIP3    H144589   4.759   2.448  10.517
 6798TIP3    H244590   4.685   2.345  10.598
 6799TIP3   OH244591   4.770   2.475  11.383
 6799TIP3    H144592   4.778   2.506  11.473
 6799TIP3    H244593   4.814   2.390  11.382
 6800TIP3   OH244594   4.771   2.044  10.557
 6800TIP3    H144595   4.751   2.105  10.628
 6800TIP3    H244596   4.858   2.070  10.527
 6801TIP3   OH244597   4.488   3.487  10.323
 6801TIP3    H144598   4.495   3.571  10.277
 6801TIP3    H244599   4.463   3.510  10.412
 6802TIP3   OH244600   4.356   2.180  10.298
 6802TIP3    H144601   4.362   2.268  10.336
 6802TIP3    H244602   4.446   2.146  10.302
 6803TIP3   OH244603   5.351   2.261  11.514
 6803TIP3    H144604   5.264   2.281  11.480
 6803TIP3    H244605   5.408   2.263  11.438
 6804TIP3   OH244606   5.249   2.628  10.912
 6804TIP3    H144607   5.165   2.583  10.912
 6804TIP3    H244608   5.308   2.569  10.959
 6805TIP3   OH244609   4.185   3.183  10.162
 6805TIP3    H144610   4.259   3.225  10.205
 6805TIP3    H244611   4.225   3.126  10.096
 6806TIP3   OH244612   4.071   2.484  10.118
 6806TIP3    H144613   4.049   2.576  10.130
 6806TIP3    H244614   4.037   2.463  10.031
 6807TIP3   OH244615   5.365   3.562  11.043
 6807TIP3    H144616   5.350   3.633  10.981
 6807TIP3    H244617   5.460   3.563  11.059
 6808TIP3   OH244618   4.081   1.971  10.942
 6808TIP3    H144619   4.063   1.949  10.850
 6808TIP3    H244620   4.060   1.891  10.990
 6809TIP3   OH244621   3.952   3.347  10.549
 6809TIP3    H144622   3.895   3.383  10.617
 6809TIP3    H244623   3.950   3.412  10.479
 6810TIP3   OH244624   3.923   3.649  11.720
 6810TIP3    H144625   3.991   3.633  11.785
 6810TIP3    H244626   3.908   3.564  11.679
 6811TIP3   OH244627   4.359   3.506  11.843
 6811TIP3    H144628   4.446   3.482  11.874
 6811TIP3    H244629   4.351   3.464  11.757
 6812TIP3   OH244630   4.795   3.450   9.974
 6812TIP3    H144631   4.731   3.394  10.018
 6812TIP3    H244632   4.879   3.407   9.990
 6813TIP3   OH244633   5.014   3.376  11.737
 6813TIP3    H144634   4.989   3.293  11.778
 6813TIP3    H244635   5.092   3.404  11.784
 6814TIP3   OH244636   5.212   3.430  10.076
 6814TIP3    H144637   5.189   3.338  10.088
 6814TIP3    H244638   5.303   3.429  10.047
 6815TIP3   OH244639   3.889   3.024  11.786
 6815TIP3    H144640   3.851   2.946  11.826
 6815TIP3    H244641   3.829   3.047  11.715
 6816TIP3   OH244642   4.361   3.009  10.045
 6816TIP3    H144643   4.391   2.949  10.113
 6816TIP3    H244644   4.423   3.081  10.048
 6817TIP3   OH244645   4.553   3.028  11.713
 6817TIP3    H144646   4.539   3.074  11.630
 6817TIP3    H244647   4.571   2.937  11.687
 6818TIP3   OH244648   5.131   3.020  11.491
 6818TIP3    H144649   5.221   3.049  11.477
 6818TIP3    H244650   5.078   3.099  11.485
 6819TIP3   OH244651   3.993   2.698  11.711
 6819TIP3    H144652   4.065   2.634  11.705
 6819TIP3    H244653   4.001   2.733  11.800
 6820TIP3   OH244654   4.474   2.852  10.246
 6820TIP3    H144655   4.424   2.801  10.310
 6820TIP3    H244656   4.520   2.786  10.195
 6821TIP3   OH244657   4.385   2.615  11.441
 6821TIP3    H144658   4.318   2.683  11.452
 6821TIP3    H244659   4.457   2.659  11.396
 6822TIP3   OH244660   4.597   2.664  10.086
 6822TIP3    H144661   4.605   2.681   9.992
 6822TIP3    H244662   4.687   2.649  10.115
 6823TIP3   OH244663   4.906   2.894  11.771
 6823TIP3    H144664   4.993   2.861  11.747
 6823TIP3    H244665   4.875   2.832  11.837
 6824TIP3   OH244666   5.525   2.865  19.973
 6824TIP3    H144667   5.450   2.819  19.936
 6824TIP3    H244668   5.486   2.932  20.029
 6825TIP3   OH244669   4.434   2.374  11.569
 6825TIP3    H144670   4.449   2.307  11.503
 6825TIP3    H244671   4.424   2.455  11.520
 6826TIP3   OH244672   4.471   2.208  11.333
 6826TIP3    H144673   4.527   2.254  11.270
 6826TIP3    H244674   4.385   2.207  11.292
 6827TIP3   OH244675   4.581   2.766  11.331
 6827TIP3    H144676   4.664   2.802  11.362
 6827TIP3    H244677   4.540   2.839  11.284
 6828TIP3   OH244678   5.038   2.537  11.822
 6828TIP3    H144679   5.056   2.443  11.829
 6828TIP3    H244680   5.124   2.577  11.813
 6829TIP3   OH244681   5.191   2.829  11.675
 6829TIP3    H144682   5.159   2.900  11.620
 6829TIP3    H244683   5.285   2.824  11.657
 6830TIP3   OH244684   4.185   2.490  11.681
 6830TIP3    H144685   4.146   2.415  11.727
 6830TIP3    H244686   4.275   2.463  11.663
 6831TIP3   OH244687   4.550   1.944  11.371
 6831TIP3    H144688   4.523   2.035  11.360
 6831TIP3    H244689   4.479   1.893  11.332
 6832TIP3   OH244690   4.672   2.360  11.729
 6832TIP3    H144691   4.665   2.310  11.810
 6832TIP3    H244692   4.585   2.356  11.691
 6833TIP3   OH244693   4.930   2.302  11.637
 6833TIP3    H144694   4.841   2.309  11.671
 6833TIP3    H244695   4.975   2.245  11.699
 6834TIP3   OH244696   5.083   2.168  11.825
 6834TIP3    H144697   5.080   2.072  11.820
 6834TIP3    H244698   5.061   2.188  11.916
 6835TIP3   OH244699   4.059   2.256  11.771
 6835TIP3    H144700   4.086   2.168  11.744
 6835TIP3    H244701   4.024   2.244  11.860
 6836TIP3   OH244702   4.569   1.891  11.642
 6836TIP3    H144703   4.624   1.813  11.638
 6836TIP3    H244704   4.555   1.914  11.550
 6837TIP3   OH244705   4.484   2.018  11.868
 6837TIP3    H144706   4.520   1.972  11.792
 6837TIP3    H244707   4.555   2.075  11.897
 6838TIP3   OH244708   4.539   3.722  10.188
 6838TIP3    H144709   4.633   3.713  10.172
 6838TIP3    H244710   4.512   3.796  10.134
 6839TIP3   OH244711   3.913   3.216  10.135
 6839TIP3    H144712   4.007   3.227  10.149
 6839TIP3    H244713   3.907   3.166  10.053
 6840TIP3   OH244714   3.800   3.700  10.629
 6840TIP3    H144715   3.740   3.664  10.564
 6840TIP3    H244716   3.820   3.625  10.686
 6841TIP3   OH244717   3.871   3.492  10.795
 6841TIP3    H144718   3.832   3.421  10.845
 6841TIP3    H244719   3.924   3.540  10.859
 6842TIP3   OH244720   5.630   3.601  11.099
 6842TIP3    H144721   5.628   3.633  11.190
 6842TIP3    H244722   5.718   3.625  11.068
 6843TIP3   OH244723   5.557   3.577  11.381
 6843TIP3    H144724   5.517   3.499  11.343
 6843TIP3    H244725   5.621   3.543  11.444
 6844TIP3   OH244726   5.421   3.131  11.875
 6844TIP3    H144727   5.339   3.145  11.922
 6844TIP3    H244728   5.475   3.207  11.898
 6845TIP3   OH244729   5.544   2.973  10.400
 6845TIP3    H144730   5.618   3.034  10.405
 6845TIP3    H244731   5.555   2.915  10.475
 6846TIP3   OH244732   5.598   2.788  10.598
 6846TIP3    H144733   5.518   2.748  10.632
 6846TIP3    H244734   5.650   2.806  10.676
 6847TIP3   OH244735   5.567   3.084  11.072
 6847TIP3    H144736   5.631   3.018  11.046
 6847TIP3    H244737   5.605   3.167  11.044
 6848TIP3   OH244738   5.412   3.345  11.301
 6848TIP3    H144739   5.341   3.394  11.343
 6848TIP3    H244740   5.378   3.325  11.214
 6849TIP3   OH244741   5.622   2.785  10.214
 6849TIP3    H144742   5.552   2.793  10.150
 6849TIP3    H244743   5.602   2.851  10.280
 6850TIP3   OH244744   5.415   2.498  10.109
 6850TIP3    H144745   5.359   2.555  10.056
 6850TIP3    H244746   5.403   2.411  10.072
 6851TIP3   OH244747   5.362   2.653  10.662
 6851TIP3    H144748   5.357   2.562  10.635
 6851TIP3    H244749   5.328   2.654  10.751
 6852TIP3   OH244750   3.865   2.880  11.069
 6852TIP3    H144751   3.866   2.864  10.974
 6852TIP3    H244752   3.942   2.834  11.101
 6853TIP3   OH244753   5.459   2.834  11.605
 6853TIP3    H144754   5.515   2.758  11.588
 6853TIP3    H244755   5.508   2.909  11.571
 6854TIP3   OH244756   5.588   2.590  11.593
 6854TIP3    H144757   5.498   2.564  11.615
 6854TIP3    H244758   5.641   2.514  11.615
 6855TIP3   OH244759   5.370   2.249  10.013
 6855TIP3    H144760   5.440   2.197  10.053
 6855TIP3    H244761   5.291   2.197  10.028
 6856TIP3   OH244762   5.338   2.412  10.492
 6856TIP3    H144763   5.363   2.320  10.500
 6856TIP3    H244764   5.412   2.454  10.447
 6857TIP3   OH244765   5.414   2.442  11.034
 6857TIP3    H144766   5.508   2.458  11.022
 6857TIP3    H244767   5.398   2.462  11.126
 6858TIP3   OH244768   5.405   2.544  11.295
 6858TIP3    H144769   5.324   2.579  11.331
 6858TIP3    H244770   5.461   2.621  11.282
 6859TIP3   OH244771   3.852   2.347  11.601
 6859TIP3    H144772   3.924   2.356  11.664
 6859TIP3    H244773   3.800   2.274  11.633
 6860TIP3   OH244774   5.619   1.894  11.819
 6860TIP3    H144775   5.682   1.843  11.769
 6860TIP3    H244776   5.612   1.978  11.772
 6861TIP3   OH244777   5.414   2.147  10.507
 6861TIP3    H144778   5.444   2.113  10.591
 6861TIP3    H244779   5.351   2.083  10.476
 6862TIP3   OH244780   3.947   2.212  10.975
 6862TIP3    H144781   3.989   2.126  10.982
 6862TIP3    H244782   4.017   2.274  10.994
 6863TIP3   OH244783   3.785   2.520  11.044
 6863TIP3    H144784   3.857   2.528  10.982
 6863TIP3    H244785   3.807   2.579  11.115
 6864TIP3   OH244786   5.554   2.120  11.672
 6864TIP3    H144787   5.478   2.167  11.705
 6864TIP3    H244788   5.523   2.078  11.592
 6865TIP3   OH244789   5.586   2.131  10.147
 6865TIP3    H144790   5.649   2.078  10.098
 6865TIP3    H244791   5.640   2.198  10.190
 6866TIP3   OH244792   3.845   2.125  10.451
 6866TIP3    H144793   3.751   2.123  10.467
 6866TIP3    H244794   3.858   2.193  10.385
 6867TIP3   OH244795   5.298   3.618  10.667
 6867TIP3    H144796   5.371   3.612  10.605
 6867TIP3    H244797   5.332   3.672  10.739
 6868TIP3   OH244798   3.814   1.986  11.283
 6868TIP3    H144799   3.759   1.983  11.361
 6868TIP3    H244800   3.763   2.037  11.220
 6869TIP3   OH244801   4.034   3.343  11.679
 6869TIP3    H144802   3.943   3.345  11.651
 6869TIP3    H244803   4.039   3.270  11.740
 6870TIP3   OH244804   4.344   3.458  11.333
 6870TIP3    H144805   4.317   3.543  11.300
 6870TIP3    H244806   4.440   3.459  11.327
 6871TIP3   OH244807   4.740   3.576  11.596
 6871TIP3    H144808   4.749   3.556  11.689
 6871TIP3    H244809   4.819   3.627  11.574
 6872TIP3   OH244810   4.970   3.723  11.551
 6872TIP3    H144811   5.037   3.676  11.503
 6872TIP3    H244812   5.011   3.745  11.635
 6873TIP3   OH244813   5.471   1.946  11.456
 6873TIP3    H144814   5.399   1.976  11.401
 6873TIP3    H244815   5.489   1.857  11.426
 6874TIP3   OH244816   4.059   3.759  11.343
 6874TIP3    H144817   3.978   3.794  11.307
 6874TIP3    H244818   4.067   3.801  11.429
 6875TIP3   OH244819   4.310   3.714  11.243
 6875TIP3    H144820   4.223   3.735  11.275
 6875TIP3    H244821   4.319   3.765  11.162
 6876TIP3   OH244822   4.777   3.679  11.156
 6876TIP3    H144823   4.720   3.714  11.088
 6876TIP3    H244824   4.796   3.753  11.213
 6877TIP3   OH244825   4.996   3.552  11.274
 6877TIP3    H144826   4.919   3.592  11.232
 6877TIP3    H244827   5.068   3.611  11.252
 6878TIP3   OH244828   5.232   3.697  11.244
 6878TIP3    H144829   5.249   3.790  11.228
 6878TIP3    H244830   5.280   3.651  11.176
 6879TIP3   OH244831   4.018   3.596  11.016
 6879TIP3    H144832   4.011   3.552  11.100
 6879TIP3    H244833   4.101   3.566  10.979
 6880TIP3   OH244834   4.238   3.479  10.911
 6880TIP3    H144835   4.222   3.387  10.934
 6880TIP3    H244836   4.325   3.498  10.946
 6881TIP3   OH244837   4.492   3.494  11.025
 6881TIP3    H144838   4.500   3.402  11.000
 6881TIP3    H244839   4.526   3.498  11.114
 6882TIP3   OH244840   4.812   2.070  10.891
 6882TIP3    H144841   4.750   2.000  10.912
 6882TIP3    H244842   4.889   2.023  10.858
 6883TIP3   OH244843   5.329   1.904  10.879
 6883TIP3    H144844   5.396   1.958  10.837
 6883TIP3    H244845   5.246   1.946  10.857
 6884TIP3   OH244846   5.521   2.020  10.725
 6884TIP3    H144847   5.582   1.954  10.691
 6884TIP3    H244848   5.576   2.095  10.745
 6885TIP3   OH244849   4.018   1.923  10.674
 6885TIP3    H144850   3.929   1.888  10.660
 6885TIP3    H244851   4.075   1.848  10.660
 6886TIP3   OH244852   3.923   1.922  10.274
 6886TIP3    H144853   3.989   1.972  10.227
 6886TIP3    H244854   3.888   1.984  10.339
 6887TIP3   OH244855   4.497   1.927  10.660
 6887TIP3    H144856   4.578   1.949  10.614
 6887TIP3    H244857   4.523   1.919  10.752
 6888TIP3   OH244858   5.061   1.961  10.790
 6888TIP3    H144859   5.085   1.944  10.699
 6888TIP3    H244860   5.031   1.876  10.822
 6889TIP3   OH244861   5.227   1.957  10.432
 6889TIP3    H144862   5.148   2.009  10.424
 6889TIP3    H244863   5.197   1.869  10.457
 6890TIP3   OH244864   3.934   3.541  10.360
 6890TIP3    H144865   3.861   3.533  10.298
 6890TIP3    H244866   3.949   3.635  10.367
 6891TIP3   OH244867   4.125   2.062  10.149
 6891TIP3    H144868   4.152   1.975  10.119
 6891TIP3    H244869   4.203   2.100  10.188
 6892TIP3   OH244870   4.629   2.165  10.352
 6892TIP3    H144871   4.673   2.099  10.405
 6892TIP3    H244872   4.650   2.248  10.396
 6893TIP3   OH244873   4.806   3.662  10.154
 6893TIP3    H144874   4.899   3.680  10.161
 6893TIP3    H244875   4.797   3.612  10.073
 6894TIP3   OH244876   5.495   3.594  10.471
 6894TIP3    H144877   5.474   3.506  10.439
 6894TIP3    H244878   5.476   3.651  10.397
 6895TIP3   OH244879   4.042   1.990  11.591
 6895TIP3    H144880   3.979   1.925  11.621
 6895TIP3    H244881   4.117   1.981  11.649
 6896TIP3   OH244882   4.223   1.958  11.789
 6896TIP3    H144883   4.315   1.977  11.810
 6896TIP3    H244884   4.208   1.871  11.827
 6897TIP3   OH244885   4.154   3.690  10.121
 6897TIP3    H144886   4.079   3.689  10.181
 6897TIP3    H244887   4.197   3.606  10.136
 6898TIP3   OH244888   5.086   1.892  11.810
 6898TIP3    H144889   5.078   1.846  11.893
 6898TIP3    H244890   5.179   1.882  11.786
 6899TIP3   OH244891   5.397   3.481  11.664
 6899TIP3    H144892   5.338   3.479  11.588
 6899TIP3    H244893   5.396   3.573  11.692
 6900TIP3   OH244894   6.865   2.886  10.670
 6900TIP3    H144895   6.852   2.981  10.679
 6900TIP3    H244896   6.801   2.859  10.605
 6901TIP3   OH244897   6.723   2.799  11.026
 6901TIP3    H144898   6.750   2.761  11.110
 6901TIP3    H244899   6.677   2.727  10.982
 6902TIP3   OH244900   5.958   2.740  11.162
 6902TIP3    H144901   5.967   2.660  11.214
 6902TIP3    H244902   6.048   2.771  11.150
 6903TIP3   OH244903   7.131   3.105  10.859
 6903TIP3    H144904   7.090   3.034  10.909
 6903TIP3    H244905   7.148   3.173  10.924
 6904TIP3   OH244906   6.078   3.214  10.967
 6904TIP3    H144907   6.051   3.125  10.945
 6904TIP3    H244908   6.168   3.205  11.000
 6905TIP3   OH244909   5.747   2.550  10.536
 6905TIP3    H144910   5.716   2.634  10.568
 6905TIP3    H244911   5.691   2.530  10.462
 6906TIP3   OH244912   5.795   2.798  10.801
 6906TIP3    H144913   5.828   2.710  10.820
 6906TIP3    H244914   5.873   2.853  10.803
 6907TIP3   OH244915   6.823   3.599  10.881
 6907TIP3    H144916   6.864   3.531  10.827
 6907TIP3    H244917   6.771   3.551  10.945
 6908TIP3   OH244918   6.579   3.046  11.053
 6908TIP3    H144919   6.616   2.965  11.016
 6908TIP3    H244920   6.646   3.077  11.113
 6909TIP3   OH244921   7.428   2.207  11.104
 6909TIP3    H144922   7.445   2.256  11.185
 6909TIP3    H244923   7.470   2.259  11.035
 6910TIP3   OH244924   6.918   2.481  11.085
 6910TIP3    H144925   6.941   2.389  11.093
 6910TIP3    H244926   6.902   2.493  10.991
 6911TIP3   OH244927   6.228   2.262  10.783
 6911TIP3    H144928   6.238   2.348  10.742
 6911TIP3    H244929   6.175   2.212  10.721
 6912TIP3   OH244930   6.996   2.331  10.641
 6912TIP3    H144931   7.040   2.287  10.713
 6912TIP3    H244932   7.067   2.373  10.592
 6913TIP3   OH244933   5.893   2.544  10.867
 6913TIP3    H144934   5.957   2.501  10.923
 6913TIP3    H244935   5.908   2.506  10.780
 6914TIP3   OH244936   6.368   2.667  10.833
 6914TIP3    H144937   6.453   2.630  10.857
 6914TIP3    H244938   6.329   2.602  10.775
 6915TIP3   OH244939   7.447   2.322  11.353
 6915TIP3    H144940   7.390   2.399  11.343
 6915TIP3    H244941   7.512   2.349  11.418
 6916TIP3   OH244942   6.117   2.199  11.209
 6916TIP3    H144943   6.090   2.257  11.137
 6916TIP3    H244944   6.047   2.207  11.274
 6917TIP3   OH244945   6.812   3.143  10.556
 6917TIP3    H144946   6.802   3.141  10.461
 6917TIP3    H244947   6.765   3.222  10.584
 6918TIP3   OH244948   6.346   2.968  11.177
 6918TIP3    H144949   6.292   3.040  11.212
 6918TIP3    H244950   6.418   3.012  11.132
 6919TIP3   OH244951   7.130   2.237  10.859
 6919TIP3    H144952   7.074   2.221  10.935
 6919TIP3    H244953   7.209   2.276  10.895
 6920TIP3   OH244954   6.075   2.364  10.989
 6920TIP3    H144955   6.138   2.418  11.037
 6920TIP3    H244956   6.126   2.323  10.920
 6921TIP3   OH244957   6.201   3.174  11.283
 6921TIP3    H144958   6.210   3.268  11.273
 6921TIP3    H244959   6.116   3.162  11.325
 6922TIP3   OH244960   5.778   3.121  10.398
 6922TIP3    H144961   5.775   3.168  10.314
 6922TIP3    H244962   5.801   3.187  10.463
 6923TIP3   OH244963   7.162   3.305  11.057
 6923TIP3    H144964   7.069   3.306  11.079
 6923TIP3    H244965   7.183   3.396  11.036
 6924TIP3   OH244966   7.180   2.096  11.197
 6924TIP3    H144967   7.104   2.142  11.161
 6924TIP3    H244968   7.255   2.138  11.156
 6925TIP3   OH244969   6.467   1.882  10.955
 6925TIP3    H144970   6.439   1.791  10.965
 6925TIP3    H244971   6.392   1.934  10.983
 6926TIP3   OH244972   6.962   3.448  10.691
 6926TIP3    H144973   7.001   3.363  10.671
 6926TIP3    H244974   7.037   3.508  10.697
 6927TIP3   OH244975   7.100   3.224  10.613
 6927TIP3    H144976   7.043   3.164  10.564
 6927TIP3    H244977   7.118   3.177  10.695
 6928TIP3   OH244978   7.258   3.098  11.424
 6928TIP3    H144979   7.252   3.046  11.344
 6928TIP3    H244980   7.267   3.188  11.392
 6929TIP3   OH244981   6.729   2.824  10.433
 6929TIP3    H144982   6.659   2.888  10.417
 6929TIP3    H244983   6.783   2.827  10.354
 6930TIP3   OH244984   6.753   2.657  10.119
 6930TIP3    H144985   6.825   2.695  10.169
 6930TIP3    H244986   6.785   2.570  10.094
 6931TIP3   OH244987   7.407   2.748  11.235
 6931TIP3    H144988   7.343   2.819  11.225
 6931TIP3    H244989   7.464   2.756  11.159
 6932TIP3   OH244990   7.081   2.844  10.508
 6932TIP3    H144991   7.010   2.862  10.570
 6932TIP3    H244992   7.143   2.789  10.556
 6933TIP3   OH244993   7.036   2.644  11.429
 6933TIP3    H144994   7.041   2.726  11.476
 6933TIP3    H244995   6.967   2.657  11.364
 6934TIP3   OH244996   6.228   2.867  10.694
 6934TIP3    H144997   6.200   2.831  10.610
 6934TIP3    H244998   6.281   2.798  10.733
 6935TIP3   OH244999   6.370   3.234  10.966
 6935TIP3    H145000   6.361   3.241  10.871
 6935TIP3    H245001   6.444   3.175  10.978
 6936TIP3   OH245002   6.224   2.761  11.050
 6936TIP3    H145003   6.278   2.738  10.974
 6936TIP3    H245004   6.272   2.832  11.093
 6937TIP3   OH245005   6.907   3.308  11.146
 6937TIP3    H145006   6.883   3.378  11.207
 6937TIP3    H245007   6.860   3.231  11.179
 6938TIP3   OH245008   6.370   3.212  11.502
 6938TIP3    H145009   6.309   3.270  11.548
 6938TIP3    H245010   6.324   3.189  11.421
 6939TIP3   OH245011   6.969   2.760  10.270
 6939TIP3    H145012   7.005   2.795  10.352
 6939TIP3    H245013   7.023   2.799  10.202
 6940TIP3   OH245014   6.045   2.790  11.474
 6940TIP3    H145015   6.050   2.868  11.530
 6940TIP3    H245016   5.952   2.783  11.452
 6941TIP3   OH245017   6.711   3.405  10.581
 6941TIP3    H145018   6.791   3.430  10.628
 6941TIP3    H245019   6.679   3.487  10.543
 6942TIP3   OH245020   6.182   3.373  11.619
 6942TIP3    H145021   6.150   3.448  11.569
 6942TIP3    H245022   6.104   3.333  11.655
 6943TIP3   OH245023   7.333   1.899  10.252
 6943TIP3    H145024   7.247   1.921  10.286
 6943TIP3    H245025   7.372   1.984  10.228
 6944TIP3   OH245026   6.138   2.774  10.441
 6944TIP3    H145027   6.083   2.840  10.399
 6944TIP3    H245028   6.098   2.690  10.418
 6945TIP3   OH245029   7.487   3.353  10.136
 6945TIP3    H145030   7.500   3.448  10.134
 6945TIP3    H245031   7.574   3.317  10.118
 6946TIP3   OH245032   5.744   3.023  11.344
 6946TIP3    H145033   5.711   3.021  11.254
 6946TIP3    H245034   5.763   2.931  11.364
 6947TIP3   OH245035   5.739   3.302  11.017
 6947TIP3    H145036   5.834   3.286  11.015
 6947TIP3    H245037   5.728   3.368  11.086
 6948TIP3   OH245038   7.534   3.376  11.598
 6948TIP3    H145039   7.529   3.281  11.601
 6948TIP3    H245040   7.454   3.406  11.641
 6949TIP3   OH245041   6.622   3.324  11.499
 6949TIP3    H145042   6.620   3.404  11.551
 6949TIP3    H245043   6.531   3.292  11.501
 6950TIP3   OH245044   6.688   3.671  10.447
 6950TIP3    H145045   6.663   3.688  10.356
 6950TIP3    H245046   6.664   3.751  10.494
 6951TIP3   OH245047   6.032   3.546  10.664
 6951TIP3    H145048   6.060   3.524  10.753
 6951TIP3    H245049   5.968   3.478  10.641
 6952TIP3   OH245050   6.956   3.660  10.174
 6952TIP3    H145051   6.989   3.584  10.125
 6952TIP3    H245052   6.969   3.637  10.266
 6953TIP3   OH245053   6.954   3.603  10.444
 6953TIP3    H145054   6.859   3.617  10.452
 6953TIP3    H245055   6.975   3.542  10.514
 6954TIP3   OH245056   7.198   2.521  11.648
 6954TIP3    H145057   7.140   2.557  11.580
 6954TIP3    H245058   7.211   2.430  11.622
 6955TIP3   OH245059   5.964   3.172  11.417
 6955TIP3    H145060   5.981   3.140  11.506
 6955TIP3    H245061   5.883   3.127  11.391
 6956TIP3   OH245062   6.232   2.009  11.037
 6956TIP3    H145063   6.152   2.000  10.984
 6956TIP3    H245064   6.213   2.081  11.097
 6957TIP3   OH245065   6.703   1.971  11.379
 6957TIP3    H145066   6.749   1.928  11.451
 6957TIP3    H245067   6.610   1.959  11.399
 6958TIP3   OH245068   6.983   2.360  11.460
 6958TIP3    H145069   6.924   2.342  11.532
 6958TIP3    H245070   6.980   2.455  11.449
 6959TIP3   OH245071   7.119   2.886  10.079
 6959TIP3    H145072   7.060   2.929  10.018
 6959TIP3    H245073   7.165   2.957  10.122
 6960TIP3   OH245074   6.661   2.264  10.115
 6960TIP3    H145075   6.619   2.229  10.194
 6960TIP3    H245076   6.591   2.269  10.051
 6961TIP3   OH245077   6.245   2.505  11.155
 6961TIP3    H145078   6.181   2.506  11.225
 6961TIP3    H245079   6.246   2.595  11.122
 6962TIP3   OH245080   6.228   2.506  10.660
 6962TIP3    H145081   6.133   2.497  10.651
 6962TIP3    H245082   6.263   2.485  10.573
 6963TIP3   OH245083   6.791   2.575  10.541
 6963TIP3    H145084   6.765   2.661  10.506
 6963TIP3    H245085   6.855   2.542  10.478
 6964TIP3   OH245086   6.685   2.577  11.654
 6964TIP3    H145087   6.639   2.502  11.690
 6964TIP3    H245088   6.768   2.579  11.701
 6965TIP3   OH245089   6.877   2.527  10.812
 6965TIP3    H145090   6.842   2.595  10.755
 6965TIP3    H245091   6.901   2.456  10.753
 6966TIP3   OH245092   6.019   2.514  11.317
 6966TIP3    H145093   6.032   2.563  11.398
 6966TIP3    H245094   5.983   2.430  11.346
 6967TIP3   OH245095   6.340   2.276  10.032
 6967TIP3    H145096   6.309   2.252  10.119
 6967TIP3    H245097   6.264   2.264   9.975
 6968TIP3   OH245098   5.695   2.223  10.751
 6968TIP3    H145099   5.739   2.233  10.835
 6968TIP3    H245100   5.765   2.235  10.686
 6969TIP3   OH245101   5.767   2.316  10.263
 6969TIP3    H145102   5.848   2.348  10.224
 6969TIP3    H245103   5.716   2.395  10.281
 6970TIP3   OH245104   6.816   2.664  11.254
 6970TIP3    H145105   6.855   2.602  11.193
 6970TIP3    H245106   6.750   2.613  11.301
 6971TIP3   OH245107   6.514   2.263  10.745
 6971TIP3    H145108   6.424   2.254  10.773
 6971TIP3    H245109   6.564   2.209  10.806
 6972TIP3   OH245110   5.968   2.421  10.631
 6972TIP3    H145111   5.892   2.454  10.584
 6972TIP3    H245112   5.982   2.333  10.596
 6973TIP3   OH245113   6.316   2.428  10.415
 6973TIP3    H145114   6.411   2.437  10.422
 6973TIP3    H245115   6.292   2.480  10.339
 6974TIP3   OH245116   6.943   2.198  11.069
 6974TIP3    H145117   6.885   2.203  11.144
 6974TIP3    H245118   6.896   2.143  11.006
 6975TIP3   OH245119   6.206   2.545  10.197
 6975TIP3    H145120   6.121   2.521  10.161
 6975TIP3    H245121   6.262   2.556  10.121
 6976TIP3   OH245122   7.279   3.748  11.737
 6976TIP3    H145123   7.296   3.787  11.652
 6976TIP3    H245124   7.361   3.759  11.786
 6977TIP3   OH245125   6.015   3.009  11.651
 6977TIP3    H145126   6.083   3.027  11.717
 6977TIP3    H245127   5.933   3.017  11.699
 6978TIP3   OH245128   6.605   2.551  10.935
 6978TIP3    H145129   6.682   2.513  10.892
 6978TIP3    H245130   6.578   2.486  11.000
 6979TIP3   OH245131   6.057   2.157  10.582
 6979TIP3    H145132   6.011   2.079  10.614
 6979TIP3    H245133   6.101   2.128  10.502
 6980TIP3   OH245134   6.504   2.401  11.162
 6980TIP3    H145135   6.419   2.445  11.163
 6980TIP3    H245136   6.552   2.439  11.235
 6981TIP3   OH245137   6.532   3.020  10.363
 6981TIP3    H145138   6.465   2.964  10.324
 6981TIP3    H245139   6.499   3.037  10.451
 6982TIP3   OH245140   7.245   2.962  11.186
 6982TIP3    H145141   7.308   3.006  11.129
 6982TIP3    H245142   7.168   2.949  11.131
 6983TIP3   OH245143   6.928   2.263  10.204
 6983TIP3    H145144   6.842   2.266  10.160
 6983TIP3    H245145   6.940   2.352  10.239
 6984TIP3   OH245146   6.687   3.048  11.491
 6984TIP3    H145147   6.675   3.008  11.577
 6984TIP3    H245148   6.662   3.140  11.504
 6985TIP3   OH245149   6.987   2.496  10.349
 6985TIP3    H145150   7.073   2.479  10.388
 6985TIP3    H245151   6.993   2.586  10.316
 6986TIP3   OH245152   6.047   2.935  10.891
 6986TIP3    H145153   6.107   2.927  10.818
 6986TIP3    H245154   6.082   2.875  10.958
 6987TIP3   OH245155   6.760   3.159  10.280
 6987TIP3    H145156   6.726   3.248  10.271
 6987TIP3    H245157   6.683   3.105  10.296
 6988TIP3   OH245158   5.767   2.761  11.447
 6988TIP3    H145159   5.742   2.721  11.531
 6988TIP3    H245160   5.695   2.740  11.388
 6989TIP3   OH245161   6.453   2.746  11.655
 6989TIP3    H145162   6.396   2.706  11.590
 6989TIP3    H245163   6.537   2.700  11.644
 6990TIP3   OH245164   6.909   3.290  11.479
 6990TIP3    H145165   6.816   3.298  11.458
 6990TIP3    H245166   6.915   3.316  11.572
 6991TIP3   OH245167   7.476   2.513  10.304
 6991TIP3    H145168   7.437   2.472  10.226
 6991TIP3    H245169   7.493   2.603  10.276
 6992TIP3   OH245170   7.489   3.096  11.573
 6992TIP3    H145171   7.399   3.114  11.547
 6992TIP3    H245172   7.533   3.072  11.491
 6993TIP3   OH245173   7.317   3.347  10.356
 6993TIP3    H145174   7.260   3.271  10.365
 6993TIP3    H245175   7.367   3.331  10.276
 6994TIP3   OH245176   7.032   2.891  11.016
 6994TIP3    H145177   6.937   2.882  11.006
 6994TIP3    H245178   7.067   2.811  10.976
 6995TIP3   OH245179   6.294   3.289  10.696
 6995TIP3    H145180   6.316   3.374  10.658
 6995TIP3    H245181   6.199   3.283  10.690
 6996TIP3   OH245182   5.884   2.747  10.133
 6996TIP3    H145183   5.933   2.818  10.176
 6996TIP3    H245184   5.793   2.763  10.157
 6997TIP3   OH245185   6.413   3.057  10.604
 6997TIP3    H145186   6.384   3.142  10.636
 6997TIP3    H245187   6.352   2.994  10.643
 6998TIP3   OH245188   6.496   3.492  11.297
 6998TIP3    H145189   6.553   3.556  11.255
 6998TIP3    H245190   6.554   3.438  11.350
 6999TIP3   OH245191   6.294   3.546  10.577
 6999TIP3    H145192   6.201   3.559  10.596
 6999TIP3    H245193   6.335   3.627  10.606
 7000TIP3   OH245194   6.790   3.067  11.238
 7000TIP3    H145195   6.752   3.057  11.326
 7000TIP3    H245196   6.857   2.999  11.234
 7001TIP3   OH245197   7.021   3.173  10.157
 7001TIP3    H145198   7.077   3.137  10.226
 7001TIP3    H245199   6.932   3.166  10.193
 7002TIP3   OH245200   7.104   3.502  11.455
 7002TIP3    H145201   7.027   3.446  11.444
 7002TIP3    H245202   7.092   3.571  11.389
 7003TIP3   OH245203   7.541   3.627  10.148
 7003TIP3    H145204   7.612   3.691  10.159
 7003TIP3    H245205   7.462   3.676  10.170
 7004TIP3   OH245206   5.916   2.259  11.395
 7004TIP3    H145207   5.822   2.276  11.390
 7004TIP3    H245208   5.925   2.190  11.460
 7005TIP3   OH245209   7.184   3.043  10.340
 7005TIP3    H145210   7.142   2.984  10.403
 7005TIP3    H245211   7.278   3.029  10.354
 7006TIP3   OH245212   5.902   3.444  11.261
 7006TIP3    H145213   5.934   3.358  11.289
 7006TIP3    H245214   5.922   3.502  11.335
 7007TIP3   OH245215   6.334   3.224  10.248
 7007TIP3    H145216   6.404   3.176  10.293
 7007TIP3    H245217   6.348   3.315  10.272
 7008TIP3   OH245218   5.979   2.952  10.299
 7008TIP3    H145219   5.907   2.994  10.347
 7008TIP3    H245220   6.024   3.025  10.256
 7009TIP3   OH245221   6.799   2.220  11.302
 7009TIP3    H145222   6.868   2.244  11.365
 7009TIP3    H245223   6.765   2.137  11.336
 7010TIP3   OH245224   6.886   2.148  10.454
 7010TIP3    H145225   6.898   2.185  10.366
 7010TIP3    H245226   6.917   2.216  10.513
 7011TIP3   OH245227   6.633   3.401  10.248
 7011TIP3    H145228   6.545   3.416  10.284
 7011TIP3    H245229   6.673   3.488  10.245
 7012TIP3   OH245230   6.581   2.395  10.511
 7012TIP3    H145231   6.653   2.455  10.527
 7012TIP3    H245232   6.561   2.358  10.597
 7013TIP3   OH245233   6.662   2.477  11.385
 7013TIP3    H145234   6.666   2.504  11.477
 7013TIP3    H245235   6.700   2.389  11.385
 7014TIP3   OH245236   6.651   2.043  10.560
 7014TIP3    H145237   6.638   2.095  10.639
 7014TIP3    H245238   6.734   2.074  10.524
 7015TIP3   OH245239   6.380   3.483  10.324
 7015TIP3    H145240   6.379   3.567  10.280
 7015TIP3    H245241   6.350   3.502  10.413
 7016TIP3   OH245242   6.251   2.188  10.285
 7016TIP3    H145243   6.248   2.270  10.334
 7016TIP3    H245244   6.339   2.154  10.302
 7017TIP3   OH245245   7.233   2.270  11.530
 7017TIP3    H145246   7.145   2.279  11.492
 7017TIP3    H245247   7.291   2.262  11.455
 7018TIP3   OH245248   7.116   2.648  10.902
 7018TIP3    H145249   7.031   2.611  10.880
 7018TIP3    H245250   7.158   2.581  10.957
 7019TIP3   OH245251   6.075   3.177  10.161
 7019TIP3    H145252   6.150   3.215  10.207
 7019TIP3    H245253   6.114   3.119  10.095
 7020TIP3   OH245254   5.944   2.485  10.105
 7020TIP3    H145255   5.925   2.578  10.116
 7020TIP3    H245256   5.899   2.461  10.024
 7021TIP3   OH245257   7.254   3.570  11.055
 7021TIP3    H145258   7.236   3.639  10.992
 7021TIP3    H245259   7.349   3.571  11.064
 7022TIP3   OH245260   5.972   1.977  10.942
 7022TIP3    H145261   5.960   1.965  10.848
 7022TIP3    H245262   5.942   1.895  10.981
 7023TIP3   OH245263   5.839   3.348  10.553
 7023TIP3    H145264   5.780   3.384  10.620
 7023TIP3    H245265   5.836   3.412  10.482
 7024TIP3   OH245266   5.761   3.626  11.685
 7024TIP3    H145267   5.839   3.626  11.630
 7024TIP3    H245268   5.719   3.542  11.667
 7025TIP3   OH245269   6.253   3.507  11.850
 7025TIP3    H145270   6.340   3.471  11.868
 7025TIP3    H245271   6.228   3.469  11.766
 7026TIP3   OH245272   6.696   3.459   9.978
 7026TIP3    H145273   6.655   3.403  10.044
 7026TIP3    H245274   6.785   3.426   9.971
 7027TIP3   OH245275   6.898   3.373  11.742
 7027TIP3    H145276   6.872   3.288  11.776
 7027TIP3    H245277   6.976   3.397  11.792
 7028TIP3   OH245278   7.043   3.429  10.049
 7028TIP3    H145279   7.039   3.341  10.086
 7028TIP3    H245280   7.129   3.435  10.009
 7029TIP3   OH245281   5.773   3.018  11.792
 7029TIP3    H145282   5.756   2.924  11.800
 7029TIP3    H245283   5.711   3.049  11.727
 7030TIP3   OH245284   6.244   2.998  10.041
 7030TIP3    H145285   6.266   2.940  10.114
 7030TIP3    H245286   6.317   3.060  10.036
 7031TIP3   OH245287   6.447   3.030  11.695
 7031TIP3    H145288   6.424   3.074  11.613
 7031TIP3    H245289   6.454   2.937  11.671
 7032TIP3   OH245290   7.007   2.995  11.488
 7032TIP3    H145291   7.093   3.036  11.472
 7032TIP3    H245292   6.945   3.068  11.483
 7033TIP3   OH245293   5.817   2.727  11.786
 7033TIP3    H145294   5.892   2.669  11.771
 7033TIP3    H245295   5.769   2.688  11.858
 7034TIP3   OH245296   6.342   2.849  10.255
 7034TIP3    H145297   6.283   2.807  10.317
 7034TIP3    H245298   6.382   2.777  10.207
 7035TIP3   OH245299   6.276   2.638  11.449
 7035TIP3    H145300   6.202   2.699  11.453
 7035TIP3    H245301   6.340   2.682  11.393
 7036TIP3   OH245302   6.478   2.673  10.090
 7036TIP3    H145303   6.477   2.670   9.994
 7036TIP3    H245304   6.571   2.671  10.113
 7037TIP3   OH245305   6.792   2.880  11.796
 7037TIP3    H145306   6.873   2.843  11.762
 7037TIP3    H245307   6.760   2.815  11.858
 7038TIP3   OH245308   7.328   2.846  19.920
 7038TIP3    H145309   7.387   2.780  19.957
 7038TIP3    H245310   7.382   2.924  19.908
 7039TIP3   OH245311   6.324   2.386  11.549
 7039TIP3    H145312   6.337   2.323  11.478
 7039TIP3    H245313   6.310   2.470  11.504
 7040TIP3   OH245314   6.365   2.212  11.327
 7040TIP3    H145315   6.422   2.256  11.264
 7040TIP3    H245316   6.279   2.211  11.285
 7041TIP3   OH245317   6.473   2.776  11.323
 7041TIP3    H145318   6.563   2.806  11.335
 7041TIP3    H245319   6.431   2.846  11.274
 7042TIP3   OH245320   6.935   2.520  11.808
 7042TIP3    H145321   6.953   2.426  11.810
 7042TIP3    H245322   7.020   2.560  11.787
 7043TIP3   OH245323   7.052   2.820  11.688
 7043TIP3    H145324   7.020   2.885  11.626
 7043TIP3    H245325   7.146   2.814  11.671
 7044TIP3   OH245326   6.154   2.433  11.770
 7044TIP3    H145327   6.076   2.381  11.751
 7044TIP3    H245328   6.206   2.428  11.690
 7045TIP3   OH245329   6.424   1.944  11.372
 7045TIP3    H145330   6.403   2.036  11.357
 7045TIP3    H245331   6.353   1.896  11.328
 7046TIP3   OH245332   6.542   2.353  11.720
 7046TIP3    H145333   6.503   2.322  11.801
 7046TIP3    H245334   6.469   2.360  11.659
 7047TIP3   OH245335   6.807   2.284  11.649
 7047TIP3    H145336   6.718   2.293  11.684
 7047TIP3    H245337   6.854   2.234  11.715
 7048TIP3   OH245338   6.980   2.166  11.834
 7048TIP3    H145339   6.974   2.071  11.828
 7048TIP3    H245340   6.959   2.186  11.925
 7049TIP3   OH245341   5.939   2.253  11.753
 7049TIP3    H145342   5.939   2.172  11.701
 7049TIP3    H245343   5.956   2.224  11.842
 7050TIP3   OH245344   6.405   1.884  11.639
 7050TIP3    H145345   6.454   1.802  11.642
 7050TIP3    H245346   6.406   1.909  11.546
 7051TIP3   OH245347   6.482   2.027  11.864
 7051TIP3    H145348   6.461   1.980  11.783
 7051TIP3    H245349   6.425   2.104  11.861
 7052TIP3   OH245350   6.416   3.721  10.192
 7052TIP3    H145351   6.509   3.718  10.172
 7052TIP3    H245352   6.378   3.777  10.124
 7053TIP3   OH245353   5.803   3.217  10.136
 7053TIP3    H145354   5.897   3.226  10.150
 7053TIP3    H245355   5.795   3.161  10.059
 7054TIP3   OH245356   5.690   3.700  10.628
 7054TIP3    H145357   5.626   3.666  10.565
 7054TIP3    H245358   5.706   3.627  10.687
 7055TIP3   OH245359   5.752   3.493  10.798
 7055TIP3    H145360   5.706   3.425  10.847
 7055TIP3    H245361   5.803   3.539  10.865
 7056TIP3   OH245362   7.531   3.585  11.114
 7056TIP3    H145363   7.520   3.567  11.207
 7056TIP3    H245364   7.543   3.680  11.108
 7057TIP3   OH245365   7.460   3.543  11.382
 7057TIP3    H145366   7.400   3.475  11.353
 7057TIP3    H245367   7.507   3.505  11.456
 7058TIP3   OH245368   7.307   3.161  11.869
 7058TIP3    H145369   7.228   3.175  11.920
 7058TIP3    H245370   7.366   3.232  11.895
 7059TIP3   OH245371   7.452   2.973  10.381
 7059TIP3    H145372   7.524   3.036  10.393
 7059TIP3    H245373   7.462   2.911  10.453
 7060TIP3   OH245374   7.476   2.789  10.587
 7060TIP3    H145375   7.389   2.757  10.612
 7060TIP3    H245376   7.516   2.818  10.668
 7061TIP3   OH245377   7.491   3.052  11.082
 7061TIP3    H145378   7.569   3.018  11.037
 7061TIP3    H245379   7.492   3.146  11.063
 7062TIP3   OH245380   7.282   3.346  11.307
 7062TIP3    H145381   7.211   3.394  11.350
 7062TIP3    H245382   7.249   3.329  11.219
 7063TIP3   OH245383   7.493   2.767  10.199
 7063TIP3    H145384   7.436   2.788  10.126
 7063TIP3    H245385   7.482   2.840  10.260
 7064TIP3   OH245386   7.363   2.440  10.069
 7064TIP3    H145387   7.329   2.503  10.006
 7064TIP3    H245388   7.318   2.358  10.048
 7065TIP3   OH245389   7.240   2.671  10.656
 7065TIP3    H145390   7.233   2.580  10.625
 7065TIP3    H245391   7.203   2.669  10.745
 7066TIP3   OH245392   5.739   2.867  11.063
 7066TIP3    H145393   5.745   2.850  10.969
 7066TIP3    H245394   5.822   2.835  11.098
 7067TIP3   OH245395   7.316   2.845  11.616
 7067TIP3    H145396   7.380   2.775  11.607
 7067TIP3    H245397   7.352   2.919  11.567
 7068TIP3   OH245398   7.456   2.611  11.625
 7068TIP3    H145399   7.364   2.584  11.631
 7068TIP3    H245400   7.504   2.541  11.668
 7069TIP3   OH245401   7.244   2.205  10.010
 7069TIP3    H145402   7.296   2.126  10.030
 7069TIP3    H245403   7.154   2.179  10.028
 7070TIP3   OH245404   7.226   2.429  10.492
 7070TIP3    H145405   7.237   2.334  10.497
 7070TIP3    H245406   7.308   2.461  10.453
 7071TIP3   OH245407   7.246   2.451  11.045
 7071TIP3    H145408   7.340   2.457  11.030
 7071TIP3    H245409   7.236   2.461  11.139
 7072TIP3   OH245410   7.268   2.527  11.317
 7072TIP3    H145411   7.185   2.560  11.352
 7072TIP3    H245412   7.316   2.605  11.291
 7073TIP3   OH245413   5.708   2.343  11.619
 7073TIP3    H145414   5.789   2.333  11.669
 7073TIP3    H245415   5.654   2.268  11.647
 7074TIP3   OH245416   7.536   1.906  11.819
 7074TIP3    H145417   7.605   1.860  11.771
 7074TIP3    H245418   7.515   1.982  11.765
 7075TIP3   OH245419   7.251   2.156  10.507
 7075TIP3    H145420   7.274   2.119  10.593
 7075TIP3    H245421   7.197   2.089  10.466
 7076TIP3   OH245422   5.832   2.213  10.989
 7076TIP3    H145423   5.877   2.128  10.986
 7076TIP3    H245424   5.903   2.276  10.998
 7077TIP3   OH245425   5.678   2.520  11.044
 7077TIP3    H145426   5.743   2.523  10.974
 7077TIP3    H245427   5.713   2.579  11.111
 7078TIP3   OH245428   7.444   2.116  11.672
 7078TIP3    H145429   7.370   2.157  11.716
 7078TIP3    H245430   7.407   2.081  11.591
 7079TIP3   OH245431   7.507   2.109  10.150
 7079TIP3    H145432   7.589   2.061  10.139
 7079TIP3    H245433   7.522   2.193  10.105
 7080TIP3   OH245434   5.708   2.115  10.442
 7080TIP3    H145435   5.617   2.132  10.467
 7080TIP3    H245436   5.733   2.191  10.391
 7081TIP3   OH245437   7.171   3.615  10.667
 7081TIP3    H145438   7.237   3.609  10.597
 7081TIP3    H245439   7.213   3.668  10.734
 7082TIP3   OH245440   5.703   1.988  11.286
 7082TIP3    H145441   5.634   1.977  11.352
 7082TIP3    H245442   5.663   2.045  11.220
 7083TIP3   OH245443   5.936   3.319  11.723
 7083TIP3    H145444   5.870   3.357  11.663
 7083TIP3    H245445   5.925   3.370  11.804
 7084TIP3   OH245446   6.226   3.441  11.304
 7084TIP3    H145447   6.174   3.512  11.342
 7084TIP3    H245448   6.316   3.470  11.315
 7085TIP3   OH245449   6.626   3.569  11.634
 7085TIP3    H145450   6.639   3.555  11.728
 7085TIP3    H245451   6.702   3.622  11.608
 7086TIP3   OH245452   6.857   3.715  11.578
 7086TIP3    H145453   6.916   3.654  11.534
 7086TIP3    H245454   6.905   3.744  11.655
 7087TIP3   OH245455   7.333   1.928  11.475
 7087TIP3    H145456   7.251   1.938  11.425
 7087TIP3    H245457   7.368   1.843  11.447
 7088TIP3   OH245458   5.959   3.786  11.263
 7088TIP3    H145459   5.868   3.817  11.263
 7088TIP3    H245460   5.967   3.734  11.343
 7089TIP3   OH245461   6.233   3.731  11.231
 7089TIP3    H145462   6.143   3.738  11.260
 7089TIP3    H245463   6.237   3.782  11.150
 7090TIP3   OH245464   6.656   3.679  11.162
 7090TIP3    H145465   6.602   3.712  11.090
 7090TIP3    H245466   6.674   3.755  11.216
 7091TIP3   OH245467   6.872   3.553  11.281
 7091TIP3    H145468   6.793   3.588  11.240
 7091TIP3    H245469   6.941   3.615  11.258
 7092TIP3   OH245470   7.112   3.702  11.254
 7092TIP3    H145471   7.124   3.794  11.231
 7092TIP3    H245472   7.159   3.654  11.186
 7093TIP3   OH245473   5.901   3.592  11.021
 7093TIP3    H145474   5.902   3.557  11.110
 7093TIP3    H245475   5.984   3.563  10.984
 7094TIP3   OH245476   6.124   3.481  10.911
 7094TIP3    H145477   6.109   3.389  10.935
 7094TIP3    H245478   6.210   3.502  10.947
 7095TIP3   OH245479   6.375   3.518  11.026
 7095TIP3    H145480   6.391   3.424  11.013
 7095TIP3    H245481   6.363   3.528  11.120
 7096TIP3   OH245482   6.665   2.067  10.864
 7096TIP3    H145483   6.611   1.998  10.903
 7096TIP3    H245484   6.752   2.030  10.858
 7097TIP3   OH245485   7.201   1.903  10.905
 7097TIP3    H145486   7.257   1.965  10.858
 7097TIP3    H245487   7.114   1.942  10.901
 7098TIP3   OH245488   7.362   2.038  10.731
 7098TIP3    H145489   7.419   1.968  10.701
 7098TIP3    H245490   7.420   2.114  10.739
 7099TIP3   OH245491   5.935   1.926  10.672
 7099TIP3    H145492   5.845   1.911  10.646
 7099TIP3    H245493   5.978   1.841  10.661
 7100TIP3   OH245494   5.814   1.930  10.265
 7100TIP3    H145495   5.880   1.988  10.227
 7100TIP3    H245496   5.774   1.982  10.335
 7101TIP3   OH245497   6.418   1.892  10.665
 7101TIP3    H145498   6.488   1.944  10.624
 7101TIP3    H245499   6.437   1.898  10.759
 7102TIP3   OH245500   6.926   1.971  10.837
 7102TIP3    H145501   6.960   1.973  10.747
 7102TIP3    H245502   6.899   1.881  10.850
 7103TIP3   OH245503   7.096   1.960  10.398
 7103TIP3    H145504   7.016   2.013  10.398
 7103TIP3    H245505   7.065   1.872  10.419
 7104TIP3   OH245506   5.824   3.539  10.359
 7104TIP3    H145507   5.751   3.533  10.297
 7104TIP3    H245508   5.836   3.633  10.372
 7105TIP3   OH245509   6.025   2.073  10.152
 7105TIP3    H145510   6.053   1.985  10.127
 7105TIP3    H245511   6.101   2.112  10.195
 7106TIP3   OH245512   6.528   2.180  10.347
 7106TIP3    H145513   6.559   2.111  10.405
 7106TIP3    H245514   6.544   2.261  10.394
 7107TIP3   OH245515   6.685   3.673  10.153
 7107TIP3    H145516   6.778   3.694  10.158
 7107TIP3    H245517   6.677   3.617  10.076
 7108TIP3   OH245518   7.350   3.598  10.453
 7108TIP3    H145519   7.340   3.507  10.426
 7108TIP3    H245520   7.342   3.648  10.372
 7109TIP3   OH245521   5.943   1.997  11.628
 7109TIP3    H145522   5.880   1.928  11.645
 7109TIP3    H245523   6.021   1.972  11.678
 7110TIP3   OH245524   6.160   1.903  11.785
 7110TIP3    H145525   6.238   1.919  11.732
 7110TIP3    H245526   6.173   1.815  11.820
 7111TIP3   OH245527   6.050   3.679  10.137
 7111TIP3    H145528   5.967   3.680  10.186
 7111TIP3    H245529   6.084   3.590  10.149
 7112TIP3   OH245530   6.993   1.889  11.810
 7112TIP3    H145531   6.979   1.840  11.890
 7112TIP3    H245532   7.083   1.871  11.786
 7113TIP3   OH245533   7.282   3.479  11.669
 7113TIP3    H145534   7.222   3.474  11.595
 7113TIP3    H245535   7.283   3.571  11.695
 7114TIP3   OH245536   7.549   2.516  10.561
 7114TIP3    H145537   7.524   2.608  10.571
 7114TIP3    H245538   7.530   2.496  10.469
 7115TIP3   OH245539   7.582   2.996  11.338
 7115TIP3    H145540   7.542   3.014  11.254
 7115TIP3    H245541   7.575   2.901  11.349
 7116TIP3   OH245542   7.554   3.312  11.025
 7116TIP3    H145543   7.649   3.310  11.012
 7116TIP3    H245544   7.537   3.395  11.070
 7117TIP3   OH245545   7.530   2.247  10.705
 7117TIP3    H145546   7.616   2.281  10.729
 7117TIP3    H245547   7.521   2.267  10.611
 7118TIP3   OH245548   7.601   2.723  11.424
 7118TIP3    H145549   7.564   2.686  11.505
 7118TIP3    H245550   7.533   2.710  11.358
 7119TIP3   OH245551   7.631   2.946  11.755
 7119TIP3    H145552   7.564   2.908  11.812
 7119TIP3    H245553   7.582   3.003  11.695
 7120TIP3   OH245554   7.505   3.714  10.641
 7120TIP3    H145555   7.455   3.676  10.568
 7120TIP3    H245556   7.513   3.642  10.704
 7121TIP3   OH245557   7.530   3.508  10.815
 7121TIP3    H145558   7.496   3.419  10.822
 7121TIP3    H245559   7.560   3.530  10.903
 7122TIP3   OH245560   7.595   2.762  11.033
 7122TIP3    H145561   7.616   2.749  10.940
 7122TIP3    H245562   7.663   2.821  11.064
 7123TIP3   OH245563   7.551   2.372  11.705
 7123TIP3    H145564   7.640   2.364  11.672
 7123TIP3    H245565   7.515   2.284  11.700
 7124TIP3   OH245566   7.516   2.491  11.033
 7124TIP3    H145567   7.607   2.465  11.042
 7124TIP3    H245568   7.518   2.587  11.035
 7125TIP3   OH245569   7.510   2.185  10.420
 7125TIP3    H145570   7.419   2.172  10.447
 7125TIP3    H245571   7.510   2.167  10.326
 7126TIP3   OH245572   7.494   1.975  11.237
 7126TIP3    H145573   7.439   1.982  11.316
 7126TIP3    H245574   7.465   2.048  11.181
 7127TIP3   OH245575   1.229   4.764  10.674
 7127TIP3    H145576   1.231   4.850  10.716
 7127TIP3    H245577   1.160   4.771  10.608
 7128TIP3   OH245578   1.092   4.679  11.032
 7128TIP3    H145579   1.111   4.644  11.119
 7128TIP3    H245580   1.044   4.609  10.988
 7129TIP3   OH245581   0.321   4.644  11.168
 7129TIP3    H145582   0.328   4.555  11.202
 7129TIP3    H245583   0.370   4.697  11.232
 7130TIP3   OH245584   1.421   4.976  10.855
 7130TIP3    H145585   1.406   4.899  10.910
 7130TIP3    H245586   1.456   5.042  10.915
 7131TIP3   OH245587   0.390   5.093  10.971
 7131TIP3    H145588   0.353   5.005  10.965
 7131TIP3    H245589   0.481   5.079  10.997
 7132TIP3   OH245590   0.136   4.430  10.461
 7132TIP3    H145591   0.155   4.524  10.471
 7132TIP3    H245592   0.051   4.418  10.504
 7133TIP3   OH245593   0.152   4.672  10.768
 7133TIP3    H145594   0.148   4.586  10.810
 7133TIP3    H245595   0.063   4.688  10.739
 7134TIP3   OH245596   1.183   5.494  10.883
 7134TIP3    H145597   1.221   5.425  10.828
 7134TIP3    H245598   1.149   5.448  10.959
 7135TIP3   OH245599   0.926   4.943  11.043
 7135TIP3    H145600   0.968   4.865  11.007
 7135TIP3    H245601   0.990   4.977  11.105
 7136TIP3   OH245602   1.799   4.055  11.121
 7136TIP3    H145603   1.801   4.120  11.191
 7136TIP3    H245604   1.868   4.083  11.061
 7137TIP3   OH245605   1.276   4.357  11.082
 7137TIP3    H145606   1.290   4.263  11.090
 7137TIP3    H245607   1.254   4.370  10.989
 7138TIP3   OH245608   0.592   4.159  10.785
 7138TIP3    H145609   0.601   4.245  10.744
 7138TIP3    H245610   0.541   4.108  10.722
 7139TIP3   OH245611   1.341   4.210  10.635
 7139TIP3    H145612   1.388   4.176  10.712
 7139TIP3    H245613   1.409   4.253  10.583
 7140TIP3   OH245614   0.314   4.449  10.826
 7140TIP3    H145615   0.360   4.391  10.888
 7140TIP3    H245616   0.295   4.393  10.751
 7141TIP3   OH245617   0.751   4.566  10.828
 7141TIP3    H145618   0.830   4.523  10.861
 7141TIP3    H245619   0.704   4.496  10.782
 7142TIP3   OH245620   1.799   4.219  11.343
 7142TIP3    H145621   1.750   4.299  11.328
 7142TIP3    H245622   1.850   4.236  11.422
 7143TIP3   OH245623   0.467   4.090  11.205
 7143TIP3    H145624   0.433   4.145  11.134
 7143TIP3    H245625   0.401   4.097  11.274
 7144TIP3   OH245626   1.134   5.017  10.541
 7144TIP3    H145627   1.143   5.028  10.446
 7144TIP3    H245628   1.100   5.101  10.571
 7145TIP3   OH245629   0.715   4.856  11.199
 7145TIP3    H145630   0.658   4.927  11.229
 7145TIP3    H245631   0.786   4.901  11.152
 7146TIP3   OH245632   1.497   4.156  10.854
 7146TIP3    H145633   1.462   4.088  10.910
 7146TIP3    H245634   1.556   4.206  10.910
 7147TIP3   OH245635   0.425   4.254  10.986
 7147TIP3    H145636   0.485   4.304  11.040
 7147TIP3    H245637   0.481   4.208  10.924
 7148TIP3   OH245638   0.558   5.070  11.276
 7148TIP3    H145639   0.568   5.165  11.274
 7148TIP3    H245640   0.470   5.056  11.310
 7149TIP3   OH245641   0.116   4.979  10.397
 7149TIP3    H145642   0.107   5.010  10.307
 7149TIP3    H245643   0.138   5.058  10.447
 7150TIP3   OH245644   1.498   5.181  11.048
 7150TIP3    H145645   1.406   5.186  11.072
 7150TIP3    H245646   1.522   5.272  11.028
 7151TIP3   OH245647   1.514   3.969  11.189
 7151TIP3    H145648   1.442   4.016  11.148
 7151TIP3    H245649   1.593   4.005  11.149
 7152TIP3   OH245650   0.817   3.776  10.955
 7152TIP3    H145651   0.784   3.686  10.958
 7152TIP3    H245652   0.744   3.830  10.986
 7153TIP3   OH245653   1.313   5.338  10.690
 7153TIP3    H145654   1.345   5.251  10.669
 7153TIP3    H245655   1.391   5.393  10.696
 7154TIP3   OH245656   1.431   5.105  10.612
 7154TIP3    H145657   1.412   5.040  10.544
 7154TIP3    H245658   1.432   5.055  10.693
 7155TIP3   OH245659   1.620   4.987  11.430
 7155TIP3    H145660   1.612   4.928  11.354
 7155TIP3    H245661   1.627   5.074  11.392
 7156TIP3   OH245662   1.081   4.714  10.432
 7156TIP3    H145663   1.019   4.784  10.412
 7156TIP3    H245664   1.144   4.716  10.361
 7157TIP3   OH245665   1.101   4.542  10.129
 7157TIP3    H145666   1.171   4.587  10.176
 7157TIP3    H245667   1.129   4.450  10.125
 7158TIP3   OH245668   1.802   4.656  11.252
 7158TIP3    H145669   1.728   4.717  11.247
 7158TIP3    H245670   1.859   4.682  11.180
 7159TIP3   OH245671   1.438   4.711  10.509
 7159TIP3    H145672   1.370   4.728  10.573
 7159TIP3    H245673   1.503   4.658  10.556
 7160TIP3   OH245674   1.407   4.538  11.423
 7160TIP3    H145675   1.405   4.617  11.477
 7160TIP3    H245676   1.335   4.549  11.360
 7161TIP3   OH245677   0.601   4.736  10.679
 7161TIP3    H145678   0.637   4.743  10.591
 7161TIP3    H245679   0.665   4.683  10.727
 7162TIP3   OH245680   0.676   5.066  10.948
 7162TIP3    H145681   0.685   5.099  10.858
 7162TIP3    H245682   0.762   5.031  10.970
 7163TIP3   OH245683   0.611   4.649  11.053
 7163TIP3    H145684   0.676   4.632  10.985
 7163TIP3    H245685   0.653   4.714  11.110
 7164TIP3   OH245686   1.242   5.201  11.135
 7164TIP3    H145687   1.230   5.271  11.199
 7164TIP3    H245688   1.199   5.125  11.174
 7165TIP3   OH245689   0.703   5.095  11.519
 7165TIP3    H145690   0.641   5.150  11.567
 7165TIP3    H245691   0.657   5.072  11.438
 7166TIP3   OH245692   1.317   4.653  10.272
 7166TIP3    H145693   1.357   4.678  10.355
 7166TIP3    H245694   1.376   4.688  10.205
 7167TIP3   OH245695   0.438   4.710  11.423
 7167TIP3    H145696   0.448   4.785  11.481
 7167TIP3    H245697   0.351   4.676  11.442
 7168TIP3   OH245698   1.059   5.287  10.579
 7168TIP3    H145699   1.137   5.312  10.629
 7168TIP3    H245700   1.029   5.369  10.540
 7169TIP3   OH245701   0.507   5.268  11.611
 7169TIP3    H145702   0.493   5.303  11.523
 7169TIP3    H245703   0.419   5.245  11.642
 7170TIP3   OH245704   1.681   3.795  10.277
 7170TIP3    H145705   1.596   3.815  10.316
 7170TIP3    H245706   1.715   3.880  10.248
 7171TIP3   OH245707   0.367   4.635  10.497
 7171TIP3    H145708   0.364   4.706  10.434
 7171TIP3    H245709   0.380   4.556  10.445
 7172TIP3   OH245710   1.786   5.250  10.111
 7172TIP3    H145711   1.807   5.343  10.112
 7172TIP3    H245712   1.871   5.206  10.115
 7173TIP3   OH245713   0.169   4.873  11.344
 7173TIP3    H145714   0.074   4.889  11.339
 7173TIP3    H245715   0.177   4.786  11.382
 7174TIP3   OH245716   0.135   5.223  11.008
 7174TIP3    H145717   0.213   5.174  10.984
 7174TIP3    H245718   0.157   5.262  11.093
 7175TIP3   OH245719   1.889   5.265  11.621
 7175TIP3    H145720   1.874   5.172  11.607
 7175TIP3    H245721   1.804   5.299  11.647
 7176TIP3   OH245722   0.953   5.209  11.490
 7176TIP3    H145723   0.959   5.292  11.536
 7176TIP3    H245724   0.866   5.175  11.513
 7177TIP3   OH245725   1.026   5.549  10.448
 7177TIP3    H145726   1.011   5.569  10.355
 7177TIP3    H245727   1.004   5.629  10.494
 7178TIP3   OH245728   0.403   5.433  10.668
 7178TIP3    H145729   0.441   5.411  10.752
 7178TIP3    H245730   0.309   5.422  10.680
 7179TIP3   OH245731   1.298   5.543  10.186
 7179TIP3    H145732   1.346   5.472  10.144
 7179TIP3    H245733   1.316   5.531  10.279
 7180TIP3   OH245734   1.298   5.508  10.460
 7180TIP3    H145735   1.203   5.515  10.463
 7180TIP3    H245736   1.320   5.445  10.528
 7181TIP3   OH245737   1.563   4.391  11.644
 7181TIP3    H145738   1.507   4.437  11.581
 7181TIP3    H245739   1.558   4.299  11.618
 7182TIP3   OH245740   0.318   5.089  11.405
 7182TIP3    H145741   0.355   5.057  11.487
 7182TIP3    H245742   0.260   5.018  11.376
 7183TIP3   OH245743   0.585   3.904  11.037
 7183TIP3    H145744   0.506   3.898  10.983
 7183TIP3    H245745   0.566   3.973  11.100
 7184TIP3   OH245746   1.059   3.849  11.362
 7184TIP3    H145747   1.100   3.810  11.440
 7184TIP3    H245748   0.965   3.843  11.379
 7185TIP3   OH245749   1.317   4.247  11.480
 7185TIP3    H145750   1.258   4.227  11.552
 7185TIP3    H245751   1.309   4.342  11.467
 7186TIP3   OH245752   1.491   4.758  10.088
 7186TIP3    H145753   1.444   4.793  10.012
 7186TIP3    H245754   1.527   4.836  10.131
 7187TIP3   OH245755   0.995   4.144  10.123
 7187TIP3    H145756   0.952   4.111  10.202
 7187TIP3    H245757   0.927   4.141  10.055
 7188TIP3   OH245758   0.584   4.396  11.154
 7188TIP3    H145759   0.525   4.400  11.229
 7188TIP3    H245760   0.593   4.488  11.126
 7189TIP3   OH245761   0.590   4.410  10.666
 7189TIP3    H145762   0.498   4.388  10.647
 7189TIP3    H245763   0.636   4.392  10.584
 7190TIP3   OH245764   1.129   4.458  10.536
 7190TIP3    H145765   1.108   4.547  10.509
 7190TIP3    H245766   1.195   4.428  10.473
 7191TIP3   OH245767   1.023   4.460  11.652
 7191TIP3    H145768   0.971   4.390  11.691
 7191TIP3    H245769   1.103   4.463  11.705
 7192TIP3   OH245770   1.224   4.402  10.813
 7192TIP3    H145771   1.197   4.476  10.758
 7192TIP3    H245772   1.245   4.333  10.751
 7193TIP3   OH245773   0.343   4.398  11.302
 7193TIP3    H145774   0.326   4.446  11.383
 7193TIP3    H245775   0.315   4.308  11.322
 7194TIP3   OH245776   0.711   4.132  10.034
 7194TIP3    H145777   0.666   4.111  10.115
 7194TIP3    H245778   0.642   4.158   9.974
 7195TIP3   OH245779   0.125   4.186  10.734
 7195TIP3    H145780   0.127   4.146  10.821
 7195TIP3    H245781   0.135   4.112  10.674
 7196TIP3   OH245782   0.111   4.225  10.251
 7196TIP3    H145783   0.196   4.250  10.216
 7196TIP3    H245784   0.083   4.300  10.303
 7197TIP3   OH245785   1.175   4.536  11.259
 7197TIP3    H145786   1.214   4.473  11.199
 7197TIP3    H245787   1.106   4.486  11.304
 7198TIP3   OH245788   0.879   4.131  10.750
 7198TIP3    H145789   0.789   4.133  10.782
 7198TIP3    H245790   0.929   4.092  10.822
 7199TIP3   OH245791   0.350   4.318  10.587
 7199TIP3    H145792   0.269   4.335  10.539
 7199TIP3    H245793   0.358   4.222  10.586
 7200TIP3   OH245794   0.678   4.335  10.422
 7200TIP3    H145795   0.772   4.324  10.428
 7200TIP3    H245796   0.664   4.375  10.336
 7201TIP3   OH245797   1.271   4.077  11.069
 7201TIP3    H145798   1.221   4.085  11.151
 7201TIP3    H245799   1.208   4.043  11.006
 7202TIP3   OH245800   0.596   4.443  10.188
 7202TIP3    H145801   0.513   4.417  10.149
 7202TIP3    H245802   0.652   4.463  10.113
 7203TIP3   OH245803   1.613   5.646  11.715
 7203TIP3    H145804   1.638   5.682  11.630
 7203TIP3    H245805   1.682   5.676  11.774
 7204TIP3   OH245806   0.409   4.918  11.610
 7204TIP3    H145807   0.478   4.926  11.677
 7204TIP3    H245808   0.329   4.907  11.661
 7205TIP3   OH245809   0.964   4.436  10.939
 7205TIP3    H145810   1.042   4.395  10.902
 7205TIP3    H245811   0.935   4.375  11.007
 7206TIP3   OH245812   0.425   4.051  10.585
 7206TIP3    H145813   0.384   3.973  10.622
 7206TIP3    H245814   0.441   4.029  10.494
 7207TIP3   OH245815   0.845   4.295  11.157
 7207TIP3    H145816   0.759   4.339  11.161
 7207TIP3    H245817   0.892   4.329  11.233
 7208TIP3   OH245818   0.881   4.906  10.345
 7208TIP3    H145819   0.818   4.840  10.317
 7208TIP3    H245820   0.853   4.931  10.433
 7209TIP3   OH245821   1.602   4.840  11.198
 7209TIP3    H145822   1.655   4.896  11.142
 7209TIP3    H245823   1.524   4.820  11.146
 7210TIP3   OH245824   1.262   4.149  10.208
 7210TIP3    H145825   1.177   4.151  10.165
 7210TIP3    H245826   1.275   4.239  10.240
 7211TIP3   OH245827   1.000   4.927  11.473
 7211TIP3    H145828   0.998   4.888  11.561
 7211TIP3    H245829   0.980   5.019  11.487
 7212TIP3   OH245830   1.327   4.385  10.344
 7212TIP3    H145831   1.411   4.361  10.383
 7212TIP3    H245832   1.339   4.476  10.316
 7213TIP3   OH245833   0.426   4.804  10.914
 7213TIP3    H145834   0.504   4.856  10.896
 7213TIP3    H245835   0.450   4.747  10.987
 7214TIP3   OH245836   1.112   5.045  10.261
 7214TIP3    H145837   1.077   5.134  10.258
 7214TIP3    H245838   1.036   4.989  10.275
 7215TIP3   OH245839   0.185   4.612  11.461
 7215TIP3    H145840   0.190   4.596  11.556
 7215TIP3    H245841   0.091   4.607  11.441
 7216TIP3   OH245842   0.805   4.642  11.653
 7216TIP3    H145843   0.735   4.591  11.613
 7216TIP3    H245844   0.884   4.589  11.641
 7217TIP3   OH245845   1.245   5.172  11.483
 7217TIP3    H145846   1.152   5.181  11.462
 7217TIP3    H245847   1.253   5.201  11.574
 7218TIP3   OH245848   1.809   4.407  10.325
 7218TIP3    H145849   1.748   4.386  10.255
 7218TIP3    H245850   1.839   4.495  10.305
 7219TIP3   OH245851   1.854   4.984  11.570
 7219TIP3    H145852   1.762   4.991  11.541
 7219TIP3    H245853   1.902   4.964  11.490
 7220TIP3   OH245854   1.671   5.233  10.363
 7220TIP3    H145855   1.605   5.165  10.379
 7220TIP3    H245856   1.695   5.222  10.271
 7221TIP3   OH245857   1.379   4.753  11.023
 7221TIP3    H145858   1.285   4.736  11.021
 7221TIP3    H245859   1.419   4.675  10.984
 7222TIP3   OH245860   0.637   5.175  10.691
 7222TIP3    H145861   0.667   5.258  10.654
 7222TIP3    H245862   0.541   5.179  10.684
 7223TIP3   OH245863   0.228   4.634  10.162
 7223TIP3    H145864   0.275   4.708  10.201
 7223TIP3    H245865   0.136   4.662  10.163
 7224TIP3   OH245866   0.766   4.955  10.587
 7224TIP3    H145867   0.734   5.042  10.611
 7224TIP3    H245868   0.744   4.900  10.662
 7225TIP3   OH245869   0.844   5.355  11.273
 7225TIP3    H145870   0.905   5.425  11.251
 7225TIP3    H245871   0.892   5.302  11.337
 7226TIP3   OH245872   0.661   5.427  10.574
 7226TIP3    H145873   0.568   5.442  10.592
 7226TIP3    H245874   0.704   5.507  10.605
 7227TIP3   OH245875   1.130   4.964  11.235
 7227TIP3    H145876   1.086   4.949  11.318
 7227TIP3    H245877   1.203   4.903  11.235
 7228TIP3   OH245878   1.375   5.054  10.152
 7228TIP3    H145879   1.423   5.016  10.225
 7228TIP3    H245880   1.283   5.048  10.178
 7229TIP3   OH245881   1.459   5.382  11.442
 7229TIP3    H145882   1.374   5.338  11.437
 7229TIP3    H245883   1.452   5.457  11.383
 7230TIP3   OH245884   1.866   5.513  10.157
 7230TIP3    H145885   1.936   5.577  10.167
 7230TIP3    H245886   1.787   5.560  10.186
 7231TIP3   OH245887   0.260   4.135  11.382
 7231TIP3    H145888   0.207   4.178  11.449
 7231TIP3    H245889   0.241   4.041  11.392
 7232TIP3   OH245890   1.519   4.926  10.352
 7232TIP3    H145891   1.482   4.858  10.409
 7232TIP3    H245892   1.614   4.917  10.363
 7233TIP3   OH245893   0.234   5.320  11.249
 7233TIP3    H145894   0.275   5.246  11.293
 7233TIP3    H245895   0.207   5.378  11.321
 7234TIP3   OH245896   0.689   5.112  10.223
 7234TIP3    H145897   0.760   5.067  10.269
 7234TIP3    H245898   0.697   5.203  10.249
 7235TIP3   OH245899   0.338   4.840  10.313
 7235TIP3    H145900   0.262   4.883  10.352
 7235TIP3    H245901   0.382   4.909  10.263
 7236TIP3   OH245902   1.144   4.107  11.311
 7236TIP3    H145903   1.211   4.131  11.376
 7236TIP3    H245904   1.116   4.019  11.337
 7237TIP3   OH245905   1.234   4.024  10.452
 7237TIP3    H145906   1.244   4.062  10.365
 7237TIP3    H245907   1.265   4.093  10.511
 7238TIP3   OH245908   0.979   5.284  10.251
 7238TIP3    H145909   0.892   5.303  10.285
 7238TIP3    H245910   1.024   5.368  10.253
 7239TIP3   OH245911   0.930   4.269  10.515
 7239TIP3    H145912   1.001   4.332  10.527
 7239TIP3    H245913   0.916   4.233  10.603
 7240TIP3   OH245914   1.007   4.355  11.385
 7240TIP3    H145915   1.006   4.380  11.477
 7240TIP3    H245916   1.042   4.266  11.384
 7241TIP3   OH245917   0.995   3.933  10.558
 7241TIP3    H145918   0.976   4.001  10.623
 7241TIP3    H245919   1.080   3.957  10.522
 7242TIP3   OH245920   0.725   5.369  10.315
 7242TIP3    H145921   0.728   5.455  10.273
 7242TIP3    H245922   0.703   5.388  10.406
 7243TIP3   OH245923   0.583   4.084  10.282
 7243TIP3    H145924   0.573   4.168  10.327
 7243TIP3    H245925   0.670   4.053  10.308
 7244TIP3   OH245926   1.569   4.141  11.500
 7244TIP3    H145927   1.477   4.160  11.483
 7244TIP3    H245928   1.611   4.151  11.414
 7245TIP3   OH245929   1.476   4.514  10.904
 7245TIP3    H145930   1.393   4.470  10.890
 7245TIP3    H245931   1.528   4.452  10.955
 7246TIP3   OH245932   0.420   5.057  10.148
 7246TIP3    H145933   0.493   5.107  10.185
 7246TIP3    H245934   0.462   4.994  10.090
 7247TIP3   OH245935   0.328   4.384  10.116
 7247TIP3    H145936   0.294   4.471  10.136
 7247TIP3    H245937   0.278   4.358  10.038
 7248TIP3   OH245938   1.583   5.451  11.044
 7248TIP3    H145939   1.572   5.523  10.981
 7248TIP3    H245940   1.678   5.445  11.057
 7249TIP3   OH245941   0.331   3.881  10.936
 7249TIP3    H145942   0.324   3.862  10.843
 7249TIP3    H245943   0.305   3.800  10.979
 7250TIP3   OH245944   0.191   5.223  10.508
 7250TIP3    H145945   0.136   5.280  10.561
 7250TIP3    H245946   0.252   5.282  10.465
 7251TIP3   OH245947   0.146   5.535  11.714
 7251TIP3    H145948   0.203   5.532  11.791
 7251TIP3    H245949   0.133   5.443  11.690
 7252TIP3   OH245950   0.599   5.425  11.824
 7252TIP3    H145951   0.675   5.380  11.861
 7252TIP3    H245952   0.573   5.371  11.750
 7253TIP3   OH245953   1.023   5.350   9.980
 7253TIP3    H145954   0.982   5.294  10.046
 7253TIP3    H245955   1.107   5.307   9.962
 7254TIP3   OH245956   1.240   5.258  11.744
 7254TIP3    H145957   1.217   5.177  11.788
 7254TIP3    H245958   1.318   5.289  11.789
 7255TIP3   OH245959   1.424   5.321  10.079
 7255TIP3    H145960   1.408   5.229  10.101
 7255TIP3    H245961   1.511   5.321  10.038
 7256TIP3   OH245962   0.198   4.930  11.797
 7256TIP3    H145963   0.232   4.868  11.861
 7256TIP3    H245964   0.113   4.893  11.771
 7257TIP3   OH245965   0.604   4.875  10.060
 7257TIP3    H145966   0.627   4.812  10.128
 7257TIP3    H245967   0.665   4.948  10.072
 7258TIP3   OH245968   0.800   4.920  11.713
 7258TIP3    H145969   0.764   4.962  11.635
 7258TIP3    H245970   0.802   4.827  11.692
 7259TIP3   OH245971   1.360   4.907  11.491
 7259TIP3    H145972   1.449   4.940  11.476
 7259TIP3    H245973   1.304   4.984  11.489
 7260TIP3   OH245974   0.198   4.569  11.729
 7260TIP3    H145975   0.285   4.584  11.765
 7260TIP3    H245976   0.140   4.623  11.783
 7261TIP3   OH245977   0.705   4.705  10.260
 7261TIP3    H145978   0.641   4.639  10.287
 7261TIP3    H245979   0.759   4.661  10.194
 7262TIP3   OH245980   0.635   4.512  11.435
 7262TIP3    H145981   0.568   4.581  11.435
 7262TIP3    H245982   0.709   4.550  11.387
 7263TIP3   OH245983   0.835   4.562  10.064
 7263TIP3    H145984   0.843   4.558   9.969
 7263TIP3    H245985   0.925   4.557  10.097
 7264TIP3   OH245986   1.142   4.783  11.771
 7264TIP3    H145987   1.223   4.744  11.739
 7264TIP3    H245988   1.109   4.720  11.836
 7265TIP3   OH245989   1.707   4.754  19.996
 7265TIP3    H145990   1.784   4.717  19.952
 7265TIP3    H245991   1.731   4.845  20.013
 7266TIP3   OH245992   0.679   4.257  11.530
 7266TIP3    H145993   0.695   4.198  11.457
 7266TIP3    H245994   0.664   4.342  11.489
 7267TIP3   OH245995   0.719   4.089  11.307
 7267TIP3    H145996   0.771   4.142  11.246
 7267TIP3    H245997   0.630   4.094  11.273
 7268TIP3   OH245998   0.842   4.638  11.310
 7268TIP3    H145999   0.923   4.666  11.353
 7268TIP3    H246000   0.802   4.720  11.280
 7269TIP3   OH246001   1.268   4.413  11.817
 7269TIP3    H146002   1.278   4.318  11.826
 7269TIP3    H246003   1.357   4.446  11.807
 7270TIP3   OH246004   1.426   4.716  11.672
 7270TIP3    H146005   1.393   4.787  11.617
 7270TIP3    H246006   1.520   4.713  11.654
 7271TIP3   OH246007   0.519   4.309  11.750
 7271TIP3    H146008   0.440   4.255  11.747
 7271TIP3    H246009   0.564   4.289  11.668
 7272TIP3   OH246010   0.784   3.825  11.350
 7272TIP3    H146011   0.761   3.917  11.337
 7272TIP3    H246012   0.711   3.776  11.313
 7273TIP3   OH246013   0.874   4.244  11.727
 7273TIP3    H146014   0.830   4.218  11.808
 7273TIP3    H246015   0.804   4.245  11.661
 7274TIP3   OH246016   1.138   4.169  11.666
 7274TIP3    H146017   1.049   4.181  11.700
 7274TIP3    H246018   1.181   4.115  11.733
 7275TIP3   OH246019   1.338   4.048  11.836
 7275TIP3    H146020   1.326   3.953  11.829
 7275TIP3    H246021   1.312   4.069  11.926
 7276TIP3   OH246022   0.311   4.122  11.758
 7276TIP3    H146023   0.321   4.036  11.716
 7276TIP3    H246024   0.316   4.103  11.852
 7277TIP3   OH246025   0.783   3.782  11.623
 7277TIP3    H146026   0.835   3.701  11.621
 7277TIP3    H246027   0.773   3.806  11.531
 7278TIP3   OH246028   0.826   3.917  11.858
 7278TIP3    H146029   0.812   3.878  11.772
 7278TIP3    H246030   0.767   3.992  11.861
 7279TIP3   OH246031   0.758   5.608  10.184
 7279TIP3    H146032   0.853   5.605  10.173
 7279TIP3    H246033   0.727   5.671  10.119
 7280TIP3   OH246034   0.143   5.055  10.135
 7280TIP3    H146035   0.237   5.075  10.140
 7280TIP3    H246036   0.129   5.029  10.044
 7281TIP3   OH246037   0.092   5.556  10.574
 7281TIP3    H146038   0.003   5.591  10.578
 7281TIP3    H246039   0.104   5.511  10.658
 7282TIP3   OH246040   0.161   5.420  10.801
 7282TIP3    H146041   0.115   5.345  10.839
 7282TIP3    H246042   0.195   5.468  10.876
 7283TIP3   OH246043   1.854   5.466  11.097
 7283TIP3    H146044   1.845   5.482  11.191
 7283TIP3    H246045   1.932   5.517  11.072
 7284TIP3   OH246046   1.788   5.444  11.369
 7284TIP3    H146047   1.741   5.367  11.336
 7284TIP3    H246048   1.825   5.416  11.453
 7285TIP3   OH246049   1.651   5.027  11.867
 7285TIP3    H146050   1.565   5.034  11.910
 7285TIP3    H246051   1.701   5.100  11.902
 7286TIP3   OH246052   1.785   4.857  10.391
 7286TIP3    H146053   1.859   4.917  10.396
 7286TIP3    H246054   1.795   4.800  10.468
 7287TIP3   OH246055   1.831   4.679  10.598
 7287TIP3    H146056   1.751   4.638  10.631
 7287TIP3    H246057   1.883   4.695  10.676
 7288TIP3   OH246058   1.795   4.971  11.057
 7288TIP3    H146059   1.861   4.904  11.040
 7288TIP3    H246060   1.835   5.053  11.025
 7289TIP3   OH246061   1.633   5.225  11.295
 7289TIP3    H146062   1.562   5.273  11.338
 7289TIP3    H246063   1.598   5.203  11.209
 7290TIP3   OH246064   1.849   4.659  10.211
 7290TIP3    H146065   1.774   4.654  10.151
 7290TIP3    H246066   1.827   4.729  10.271
 7291TIP3   OH246067   1.640   4.389  10.116
 7291TIP3    H146068   1.576   4.443  10.070
 7291TIP3    H246069   1.631   4.302  10.076
 7292TIP3   OH246070   1.598   4.539  10.659
 7292TIP3    H146071   1.589   4.449  10.629
 7292TIP3    H246072   1.563   4.539  10.748
 7293TIP3   OH246073   0.137   4.809  11.029
 7293TIP3    H146074   0.181   4.794  10.945
 7293TIP3    H246075   0.199   4.777  11.094
 7294TIP3   OH246076   1.698   4.720  11.615
 7294TIP3    H146077   1.749   4.640  11.603
 7294TIP3    H246078   1.750   4.789  11.574
 7295TIP3   OH246079   1.823   4.478  11.607
 7295TIP3    H146080   1.737   4.442  11.628
 7295TIP3    H246081   1.884   4.406  11.620
 7296TIP3   OH246082   1.604   4.141  10.012
 7296TIP3    H146083   1.672   4.087  10.052
 7296TIP3    H246084   1.525   4.085  10.014
 7297TIP3   OH246085   1.567   4.303  10.483
 7297TIP3    H146086   1.590   4.210  10.493
 7297TIP3    H246087   1.643   4.342  10.441
 7298TIP3   OH246088   1.634   4.327  11.036
 7298TIP3    H146089   1.728   4.343  11.023
 7298TIP3    H246090   1.619   4.351  11.128
 7299TIP3   OH246091   1.639   4.436  11.297
 7299TIP3    H146092   1.560   4.471  11.337
 7299TIP3    H246093   1.695   4.512  11.284
 7300TIP3   OH246094   0.123   4.233  11.599
 7300TIP3    H146095   0.163   4.311  11.637
 7300TIP3    H246096   0.160   4.160  11.648
 7301TIP3   OH246097   1.862   3.840  11.815
 7301TIP3    H146098   1.915   3.774  11.771
 7301TIP3    H246099   1.853   3.910  11.751
 7302TIP3   OH246100   1.640   4.036  10.504
 7302TIP3    H146101   1.668   4.000  10.588
 7302TIP3    H246102   1.575   3.974  10.471
 7303TIP3   OH246103   0.165   4.090  10.994
 7303TIP3    H146104   0.226   4.018  10.982
 7303TIP3    H246105   0.221   4.165  11.017
 7304TIP3   OH246106   0.115   4.416  11.028
 7304TIP3    H146107   0.185   4.417  10.962
 7304TIP3    H246108   0.154   4.458  11.104
 7305TIP3   OH246109   1.785   4.052  11.658
 7305TIP3    H146110   1.727   4.083  11.728
 7305TIP3    H246111   1.728   4.044  11.581
 7306TIP3   OH246112   1.818   4.017  10.143
 7306TIP3    H146113   1.880   3.969  10.089
 7306TIP3    H246114   1.872   4.083  10.188
 7307TIP3   OH246115   0.103   4.032  10.451
 7307TIP3    H146116   0.008   4.031  10.463
 7307TIP3    H246117   0.119   4.098  10.384
 7308TIP3   OH246118   1.526   5.500  10.664
 7308TIP3    H146119   1.600   5.494  10.604
 7308TIP3    H246120   1.558   5.554  10.736
 7309TIP3   OH246121   0.090   3.891  11.267
 7309TIP3    H146122  -0.001   3.861  11.270
 7309TIP3    H246123   0.090   3.956  11.197
 7310TIP3   OH246124   0.250   5.188  11.685
 7310TIP3    H146125   0.179   5.171  11.624
 7310TIP3    H246126   0.251   5.113  11.744
 7311TIP3   OH246127   0.574   5.340  11.330
 7311TIP3    H146128   0.547   5.427  11.301
 7311TIP3    H246129   0.670   5.342  11.330
 7312TIP3   OH246130   0.972   5.464  11.597
 7312TIP3    H146131   0.978   5.442  11.690
 7312TIP3    H246132   1.052   5.514  11.579
 7313TIP3   OH246133   1.201   5.614  11.559
 7313TIP3    H146134   1.273   5.573  11.511
 7313TIP3    H246135   1.238   5.633  11.646
 7314TIP3   OH246136   1.696   3.819  11.454
 7314TIP3    H146137   1.626   3.848  11.395
 7314TIP3    H246138   1.718   3.731  11.423
 7315TIP3   OH246139   0.310   5.650  11.358
 7315TIP3    H146140   0.227   5.684  11.324
 7315TIP3    H246141   0.310   5.677  11.450
 7316TIP3   OH246142   0.550   5.599  11.240
 7316TIP3    H146143   0.464   5.620  11.277
 7316TIP3    H246144   0.556   5.652  11.161
 7317TIP3   OH246145   1.003   5.560  11.160
 7317TIP3    H146146   0.953   5.596  11.087
 7317TIP3    H246147   1.017   5.634  11.219
 7318TIP3   OH246148   1.223   5.439  11.275
 7318TIP3    H146149   1.144   5.479  11.237
 7318TIP3    H246150   1.293   5.502  11.257
 7319TIP3   OH246151   1.456   5.588  11.249
 7319TIP3    H146152   1.473   5.680  11.231
 7319TIP3    H246153   1.500   5.540  11.179
 7320TIP3   OH246154   0.284   5.509  11.035
 7320TIP3    H146155   0.262   5.470  11.119
 7320TIP3    H246156   0.359   5.458  11.003
 7321TIP3   OH246157   0.475   5.354  10.916
 7321TIP3    H146158   0.449   5.265  10.938
 7321TIP3    H246159   0.562   5.364  10.955
 7322TIP3   OH246160   0.728   5.373  11.022
 7322TIP3    H146161   0.751   5.283  10.998
 7322TIP3    H246162   0.754   5.380  11.114
 7323TIP3   OH246163   1.039   3.957  10.902
 7323TIP3    H146164   0.971   3.894  10.927
 7323TIP3    H246165   1.109   3.904  10.865
 7324TIP3   OH246166   1.568   3.782  10.883
 7324TIP3    H146167   1.633   3.837  10.838
 7324TIP3    H246168   1.484   3.823  10.862
 7325TIP3   OH246169   1.749   3.903  10.719
 7325TIP3    H146170   1.812   3.839  10.686
 7325TIP3    H246171   1.802   3.980  10.739
 7326TIP3   OH246172   0.320   3.815  10.670
 7326TIP3    H146173   0.235   3.795  10.630
 7326TIP3    H246174   0.371   3.735  10.659
 7327TIP3   OH246175   0.104   3.854  10.227
 7327TIP3    H146176   0.180   3.891  10.182
 7327TIP3    H246177   0.103   3.897  10.313
 7328TIP3   OH246178   0.770   3.787  10.665
 7328TIP3    H146179   0.840   3.839  10.624
 7328TIP3    H246180   0.785   3.798  10.759
 7329TIP3   OH246181   1.310   3.850  10.794
 7329TIP3    H146182   1.319   3.834  10.700
 7329TIP3    H246183   1.271   3.770  10.828
 7330TIP3   OH246184   1.451   3.848  10.424
 7330TIP3    H146185   1.373   3.903  10.418
 7330TIP3    H246186   1.418   3.761  10.443
 7331TIP3   OH246187   0.208   5.486  10.287
 7331TIP3    H146188   0.149   5.468  10.360
 7331TIP3    H246189   0.178   5.570  10.252
 7332TIP3   OH246190   0.355   3.953  10.142
 7332TIP3    H146191   0.387   3.864  10.126
 7332TIP3    H246192   0.429   3.996  10.185
 7333TIP3   OH246193   0.854   4.061  10.351
 7333TIP3    H146194   0.889   3.988  10.402
 7333TIP3    H246195   0.878   4.139  10.401
 7334TIP3   OH246196   1.029   5.559  10.160
 7334TIP3    H146197   1.123   5.577  10.165
 7334TIP3    H246198   1.019   5.504  10.082
 7335TIP3   OH246199   1.725   5.477  10.469
 7335TIP3    H146200   1.706   5.389  10.437
 7335TIP3    H246201   1.704   5.534  10.395
 7336TIP3   OH246202   0.292   3.874  11.618
 7336TIP3    H146203   0.226   3.812  11.648
 7336TIP3    H246204   0.369   3.855  11.671
 7337TIP3   OH246205   0.491   3.813  11.797
 7337TIP3    H146206   0.581   3.791  11.774
 7337TIP3    H246207   0.457   3.734  11.838
 7338TIP3   OH246208   0.435   5.575  10.138
 7338TIP3    H146209   0.364   5.527  10.181
 7338TIP3    H246210   0.512   5.520  10.149
 7339TIP3   OH246211   1.338   3.770  11.802
 7339TIP3    H146212   1.330   3.722  11.885
 7339TIP3    H246213   1.430   3.761  11.779
 7340TIP3   OH246214   1.641   5.376  11.656
 7340TIP3    H146215   1.577   5.367  11.586
 7340TIP3    H246216   1.630   5.466  11.687
 7341TIP3   OH246217   3.114   4.770  10.672
 7341TIP3    H146218   3.114   4.858  10.709
 7341TIP3    H246219   3.042   4.770  10.610
 7342TIP3   OH246220   2.966   4.675  11.025
 7342TIP3    H146221   2.988   4.640  11.111
 7342TIP3    H246222   2.920   4.604  10.981
 7343TIP3   OH246223   2.185   4.635  11.174
 7343TIP3    H146224   2.195   4.545  11.206
 7343TIP3    H246225   2.256   4.683  11.216
 7344TIP3   OH246226   3.311   4.977  10.859
 7344TIP3    H146227   3.294   4.900  10.913
 7344TIP3    H246228   3.348   5.041  10.920
 7345TIP3   OH246229   2.312   5.098  10.965
 7345TIP3    H146230   2.282   5.009  10.948
 7345TIP3    H246231   2.404   5.087  10.991
 7346TIP3   OH246232   1.974   4.434  10.546
 7346TIP3    H146233   1.945   4.521  10.575
 7346TIP3    H246234   1.909   4.408  10.480
 7347TIP3   OH246235   2.030   4.683  10.799
 7347TIP3    H146236   2.059   4.594  10.820
 7347TIP3    H246237   2.110   4.735  10.802
 7348TIP3   OH246238   3.057   5.509  10.850
 7348TIP3    H146239   3.104   5.440  10.803
 7348TIP3    H246240   3.025   5.466  10.930
 7349TIP3   OH246241   2.805   4.927  11.051
 7349TIP3    H146242   2.844   4.850  11.010
 7349TIP3    H246243   2.872   4.958  11.112
 7350TIP3   OH246244   3.685   4.059  11.132
 7350TIP3    H146245   3.687   4.124  11.202
 7350TIP3    H246246   3.755   4.086  11.073
 7351TIP3   OH246247   3.151   4.364  11.088
 7351TIP3    H146248   3.174   4.272  11.101
 7351TIP3    H246249   3.127   4.371  10.996
 7352TIP3   OH246250   2.465   4.144  10.782
 7352TIP3    H146251   2.475   4.230  10.742
 7352TIP3    H246252   2.411   4.095  10.720
 7353TIP3   OH246253   3.230   4.204  10.641
 7353TIP3    H146254   3.282   4.161  10.709
 7353TIP3    H246255   3.295   4.250  10.587
 7354TIP3   OH246256   2.120   4.427  10.869
 7354TIP3    H146257   2.184   4.383  10.924
 7354TIP3    H246258   2.135   4.391  10.781
 7355TIP3   OH246259   2.604   4.549  10.827
 7355TIP3    H146260   2.687   4.510  10.853
 7355TIP3    H246261   2.563   4.483  10.770
 7356TIP3   OH246262   3.678   4.215  11.366
 7356TIP3    H146263   3.633   4.297  11.343
 7356TIP3    H246264   3.734   4.239  11.440
 7357TIP3   OH246265   2.338   4.083  11.212
 7357TIP3    H146266   2.306   4.139  11.141
 7357TIP3    H246267   2.273   4.091  11.281
 7358TIP3   OH246268   3.010   5.021  10.538
 7358TIP3    H146269   3.032   5.034  10.446
 7358TIP3    H246270   2.978   5.106  10.568
 7359TIP3   OH246271   2.571   4.851  11.179
 7359TIP3    H146272   2.522   4.925  11.214
 7359TIP3    H246273   2.647   4.891  11.135
 7360TIP3   OH246274   3.390   4.118  10.845
 7360TIP3    H146275   3.335   4.084  10.916
 7360TIP3    H246276   3.463   4.161  10.890
 7361TIP3   OH246277   2.302   4.243  10.986
 7361TIP3    H146278   2.364   4.296  11.036
 7361TIP3    H246279   2.355   4.202  10.917
 7362TIP3   OH246280   2.437   5.070  11.286
 7362TIP3    H146281   2.441   5.165  11.279
 7362TIP3    H246282   2.352   5.052  11.325
 7363TIP3   OH246283   2.017   5.014  10.390
 7363TIP3    H146284   2.010   5.066  10.310
 7363TIP3    H246285   2.040   5.077  10.458
 7364TIP3   OH246286   3.385   5.183  11.054
 7364TIP3    H146287   3.293   5.187  11.080
 7364TIP3    H246288   3.408   5.273  11.032
 7365TIP3   OH246289   3.409   3.962  11.187
 7365TIP3    H146290   3.340   4.011  11.142
 7365TIP3    H246291   3.490   3.998  11.152
 7366TIP3   OH246292   2.700   3.773  10.959
 7366TIP3    H146293   2.668   3.683  10.964
 7366TIP3    H246294   2.625   3.826  10.987
 7367TIP3   OH246295   3.198   5.336  10.686
 7367TIP3    H146296   3.229   5.248  10.667
 7367TIP3    H246297   3.277   5.389  10.693
 7368TIP3   OH246298   3.310   5.100  10.612
 7368TIP3    H146299   3.334   5.037  10.544
 7368TIP3    H246300   3.316   5.050  10.693
 7369TIP3   OH246301   3.499   4.990  11.426
 7369TIP3    H146302   3.494   4.931  11.351
 7369TIP3    H246303   3.513   5.077  11.387
 7370TIP3   OH246304   2.960   4.710  10.436
 7370TIP3    H146305   2.899   4.781  10.417
 7370TIP3    H246306   3.022   4.711  10.363
 7371TIP3   OH246307   2.981   4.539  10.131
 7371TIP3    H146308   3.052   4.584  10.178
 7371TIP3    H246309   3.012   4.449  10.121
 7372TIP3   OH246310   3.682   4.653  11.258
 7372TIP3    H146311   3.610   4.716  11.250
 7372TIP3    H246312   3.743   4.677  11.188
 7373TIP3   OH246313   3.323   4.710  10.510
 7373TIP3    H146314   3.255   4.728  10.574
 7373TIP3    H246315   3.387   4.657  10.557
 7374TIP3   OH246316   3.280   4.525  11.439
 7374TIP3    H146317   3.281   4.598  11.501
 7374TIP3    H246318   3.214   4.549  11.374
 7375TIP3   OH246319   2.461   4.753  10.700
 7375TIP3    H146320   2.431   4.718  10.617
 7375TIP3    H246321   2.515   4.683  10.738
 7376TIP3   OH246322   2.600   5.108  10.959
 7376TIP3    H146323   2.597   5.109  10.863
 7376TIP3    H246324   2.672   5.048  10.980
 7377TIP3   OH246325   2.466   4.633  11.050
 7377TIP3    H146326   2.520   4.615  10.974
 7377TIP3    H246327   2.508   4.707  11.093
 7378TIP3   OH246328   3.130   5.196  11.148
 7378TIP3    H146329   3.115   5.260  11.217
 7378TIP3    H246330   3.088   5.116  11.180
 7379TIP3   OH246331   2.601   5.097  11.510
 7379TIP3    H146332   2.539   5.151  11.559
 7379TIP3    H246333   2.555   5.074  11.430
 7380TIP3   OH246334   3.196   4.655  10.275
 7380TIP3    H146335   3.237   4.679  10.358
 7380TIP3    H246336   3.256   4.688  10.208
 7381TIP3   OH246337   2.283   4.698  11.456
 7381TIP3    H146338   2.288   4.769  11.520
 7381TIP3    H246339   2.190   4.677  11.452
 7382TIP3   OH246340   2.932   5.311  10.559
 7382TIP3    H146341   3.001   5.313  10.625
 7382TIP3    H246342   2.907   5.402  10.548
 7383TIP3   OH246343   2.408   5.265  11.611
 7383TIP3    H146344   2.400   5.301  11.522
 7383TIP3    H246345   2.318   5.247  11.638
 7384TIP3   OH246346   3.568   3.793  10.279
 7384TIP3    H146347   3.484   3.816  10.320
 7384TIP3    H246348   3.605   3.878  10.253
 7385TIP3   OH246349   2.371   4.665  10.445
 7385TIP3    H146350   2.316   4.729  10.399
 7385TIP3    H246351   2.339   4.580  10.415
 7386TIP3   OH246352   3.670   5.249  10.121
 7386TIP3    H146353   3.694   5.341  10.118
 7386TIP3    H246354   3.754   5.202  10.124
 7387TIP3   OH246355   1.989   4.901  11.343
 7387TIP3    H146356   1.960   4.893  11.252
 7387TIP3    H246357   2.004   4.811  11.371
 7388TIP3   OH246358   1.964   5.192  11.002
 7388TIP3    H146359   2.056   5.174  11.022
 7388TIP3    H246360   1.938   5.258  11.066
 7389TIP3   OH246361   3.771   5.273  11.616
 7389TIP3    H146362   3.761   5.179  11.604
 7389TIP3    H246363   3.685   5.303  11.647
 7390TIP3   OH246364   2.848   5.212  11.489
 7390TIP3    H146365   2.850   5.296  11.536
 7390TIP3    H246366   2.761   5.178  11.505
 7391TIP3   OH246367   2.911   5.564  10.445
 7391TIP3    H146368   2.912   5.587  10.352
 7391TIP3    H246369   2.897   5.647  10.490
 7392TIP3   OH246370   2.265   5.443  10.663
 7392TIP3    H146371   2.291   5.418  10.752
 7392TIP3    H246372   2.203   5.375  10.636
 7393TIP3   OH246373   3.185   5.538  10.183
 7393TIP3    H146374   3.236   5.472  10.137
 7393TIP3    H246375   3.207   5.526  10.275
 7394TIP3   OH246376   3.183   5.498  10.455
 7394TIP3    H146377   3.088   5.507  10.464
 7394TIP3    H246378   3.207   5.434  10.522
 7395TIP3   OH246379   3.449   4.382  11.647
 7395TIP3    H146380   3.394   4.431  11.586
 7395TIP3    H246381   3.450   4.293  11.614
 7396TIP3   OH246382   2.198   5.063  11.419
 7396TIP3    H146383   2.216   5.033  11.508
 7396TIP3    H246384   2.123   5.010  11.391
 7397TIP3   OH246385   2.458   3.895  11.041
 7397TIP3    H146386   2.380   3.885  10.986
 7397TIP3    H246387   2.437   3.967  11.100
 7398TIP3   OH246388   2.938   3.870  11.362
 7398TIP3    H146389   2.979   3.827  11.437
 7398TIP3    H246390   2.844   3.859  11.377
 7399TIP3   OH246391   3.217   4.247  11.458
 7399TIP3    H146392   3.158   4.238  11.533
 7399TIP3    H246393   3.227   4.342  11.447
 7400TIP3   OH246394   3.371   4.755  10.089
 7400TIP3    H146395   3.326   4.790  10.013
 7400TIP3    H246396   3.420   4.830  10.124
 7401TIP3   OH246397   2.891   4.149  10.124
 7401TIP3    H146398   2.848   4.113  10.201
 7401TIP3    H246399   2.823   4.147  10.056
 7402TIP3   OH246400   2.470   4.381  11.156
 7402TIP3    H146401   2.403   4.383  11.224
 7402TIP3    H246402   2.473   4.470  11.122
 7403TIP3   OH246403   2.462   4.386  10.656
 7403TIP3    H146404   2.367   4.378  10.648
 7403TIP3    H246405   2.496   4.366  10.569
 7404TIP3   OH246406   3.018   4.458  10.547
 7404TIP3    H146407   2.994   4.547  10.519
 7404TIP3    H246408   3.083   4.430  10.482
 7405TIP3   OH246409   2.911   4.461  11.660
 7405TIP3    H146410   2.865   4.387  11.698
 7405TIP3    H246411   2.994   4.465  11.708
 7406TIP3   OH246412   3.104   4.389  10.817
 7406TIP3    H146413   3.079   4.457  10.755
 7406TIP3    H246414   3.133   4.316  10.761
 7407TIP3   OH246415   2.239   4.391  11.311
 7407TIP3    H146416   2.260   4.437  11.392
 7407TIP3    H246417   2.204   4.307  11.340
 7408TIP3   OH246418   2.581   4.145  10.034
 7408TIP3    H146419   2.546   4.124  10.120
 7408TIP3    H246420   2.505   4.146   9.976
 7409TIP3   OH246421   1.920   4.109  10.744
 7409TIP3    H146422   1.965   4.118  10.828
 7409TIP3    H246423   1.990   4.109  10.679
 7410TIP3   OH246424   1.993   4.205  10.265
 7410TIP3    H146425   2.073   4.241  10.227
 7410TIP3    H246426   1.941   4.281  10.288
 7411TIP3   OH246427   3.051   4.547  11.261
 7411TIP3    H146428   3.091   4.483  11.202
 7411TIP3    H246429   2.983   4.497  11.307
 7412TIP3   OH246430   2.757   4.119  10.743
 7412TIP3    H146431   2.666   4.121  10.773
 7412TIP3    H246432   2.807   4.088  10.819
 7413TIP3   OH246433   2.200   4.308  10.631
 7413TIP3    H146434   2.121   4.340  10.587
 7413TIP3    H246435   2.212   4.219  10.598
 7414TIP3   OH246436   2.552   4.314  10.410
 7414TIP3    H146437   2.647   4.321  10.421
 7414TIP3    H246438   2.531   4.372  10.337
 7415TIP3   OH246439   3.171   4.076  11.054
 7415TIP3    H146440   3.117   4.086  11.133
 7415TIP3    H246441   3.111   4.040  10.989
 7416TIP3   OH246442   2.439   4.455  10.206
 7416TIP3    H146443   2.358   4.426  10.165
 7416TIP3    H246444   2.497   4.477  10.132
 7417TIP3   OH246445   3.497   5.647  11.720
 7417TIP3    H146446   3.522   5.682  11.635
 7417TIP3    H246447   3.569   5.670  11.778
 7418TIP3   OH246448   2.246   4.897  11.658
 7418TIP3    H146449   2.313   4.899  11.726
 7418TIP3    H246450   2.164   4.889  11.705
 7419TIP3   OH246451   2.838   4.429  10.931
 7419TIP3    H146452   2.917   4.393  10.893
 7419TIP3    H246453   2.813   4.367  10.999
 7420TIP3   OH246454   2.290   4.044  10.582
 7420TIP3    H146455   2.245   3.966  10.613
 7420TIP3    H246456   2.330   4.018  10.499
 7421TIP3   OH246457   2.732   4.286  11.160
 7421TIP3    H146458   2.646   4.329  11.161
 7421TIP3    H246459   2.779   4.324  11.235
 7422TIP3   OH246460   2.763   4.918  10.354
 7422TIP3    H146461   2.701   4.854  10.320
 7422TIP3    H246462   2.736   4.932  10.445
 7423TIP3   OH246463   3.481   4.836  11.199
 7423TIP3    H146464   3.536   4.890  11.142
 7423TIP3    H246465   3.404   4.815  11.145
 7424TIP3   OH246466   3.155   4.147  10.218
 7424TIP3    H146467   3.072   4.150  10.171
 7424TIP3    H246468   3.169   4.237  10.248
 7425TIP3   OH246469   2.895   4.927  11.477
 7425TIP3    H146470   2.911   4.893  11.565
 7425TIP3    H246471   2.878   5.020  11.489
 7426TIP3   OH246472   3.213   4.387  10.350
 7426TIP3    H146473   3.298   4.363  10.388
 7426TIP3    H246474   3.225   4.477  10.320
 7427TIP3   OH246475   2.280   4.816  10.904
 7427TIP3    H146476   2.344   4.805  10.833
 7427TIP3    H246477   2.307   4.753  10.970
 7428TIP3   OH246478   2.982   5.062  10.256
 7428TIP3    H146479   2.940   5.148  10.259
 7428TIP3    H246480   2.913   5.000  10.281
 7429TIP3   OH246481   2.009   4.647  11.454
 7429TIP3    H146482   2.000   4.606  11.540
 7429TIP3    H246483   1.934   4.616  11.404
 7430TIP3   OH246484   2.692   4.636  11.653
 7430TIP3    H146485   2.632   4.597  11.589
 7430TIP3    H246486   2.774   4.588  11.641
 7431TIP3   OH246487   3.128   5.172  11.481
 7431TIP3    H146488   3.035   5.185  11.465
 7431TIP3    H246489   3.142   5.204  11.570
 7432TIP3   OH246490   3.696   4.410  10.326
 7432TIP3    H146491   3.639   4.387  10.253
 7432TIP3    H246492   3.726   4.499  10.306
 7433TIP3   OH246493   3.733   4.982  11.567
 7433TIP3    H146494   3.644   4.995  11.535
 7433TIP3    H246495   3.785   4.966  11.489
 7434TIP3   OH246496   3.532   5.238  10.359
 7434TIP3    H146497   3.479   5.159  10.370
 7434TIP3    H246498   3.573   5.228  10.273
 7435TIP3   OH246499   3.261   4.750  11.024
 7435TIP3    H146500   3.168   4.734  11.014
 7435TIP3    H246501   3.303   4.673  10.985
 7436TIP3   OH246502   2.523   5.178  10.686
 7436TIP3    H146503   2.541   5.263  10.646
 7436TIP3    H246504   2.428   5.172  10.686
 7437TIP3   OH246505   2.114   4.641  10.129
 7437TIP3    H146506   2.159   4.711  10.175
 7437TIP3    H246507   2.022   4.652  10.154
 7438TIP3   OH246508   2.639   4.944  10.595
 7438TIP3    H146509   2.606   5.028  10.628
 7438TIP3    H246510   2.583   4.879  10.638
 7439TIP3   OH246511   2.727   5.362  11.278
 7439TIP3    H146512   2.789   5.429  11.251
 7439TIP3    H246513   2.777   5.305  11.336
 7440TIP3   OH246514   2.521   5.440  10.563
 7440TIP3    H146515   2.431   5.452  10.593
 7440TIP3    H246516   2.568   5.515  10.600
 7441TIP3   OH246517   3.017   4.952  11.232
 7441TIP3    H146518   2.979   4.938  11.319
 7441TIP3    H246519   3.088   4.887  11.227
 7442TIP3   OH246520   3.257   5.057  10.155
 7442TIP3    H146521   3.305   5.019  10.229
 7442TIP3    H246522   3.165   5.053  10.181
 7443TIP3   OH246523   3.345   5.388  11.442
 7443TIP3    H146524   3.260   5.346  11.429
 7443TIP3    H246525   3.344   5.463  11.382
 7444TIP3   OH246526   3.747   5.512  10.156
 7444TIP3    H146527   3.822   5.571  10.166
 7444TIP3    H246528   3.672   5.562  10.187
 7445TIP3   OH246529   2.160   4.137  11.423
 7445TIP3    H146530   2.089   4.180  11.470
 7445TIP3    H246531   2.170   4.052  11.467
 7446TIP3   OH246532   3.402   4.934  10.365
 7446TIP3    H146533   3.365   4.860  10.413
 7446TIP3    H246534   3.497   4.921  10.370
 7447TIP3   OH246535   2.125   5.316  11.248
 7447TIP3    H146536   2.156   5.236  11.291
 7447TIP3    H246537   2.114   5.379  11.320
 7448TIP3   OH246538   2.561   5.138  10.247
 7448TIP3    H146539   2.624   5.078  10.289
 7448TIP3    H246540   2.593   5.225  10.269
 7449TIP3   OH246541   2.218   4.846  10.290
 7449TIP3    H146542   2.147   4.890  10.337
 7449TIP3    H246543   2.265   4.916  10.246
 7450TIP3   OH246544   3.036   4.121  11.291
 7450TIP3    H146545   3.106   4.144  11.352
 7450TIP3    H246546   3.004   4.036  11.322
 7451TIP3   OH246547   3.114   4.023  10.460
 7451TIP3    H146548   3.126   4.060  10.373
 7451TIP3    H246549   3.147   4.089  10.520
 7452TIP3   OH246550   2.838   5.305  10.297
 7452TIP3    H146551   2.865   5.298  10.388
 7452TIP3    H246552   2.888   5.379  10.263
 7453TIP3   OH246553   2.813   4.273  10.515
 7453TIP3    H146554   2.884   4.336  10.530
 7453TIP3    H246555   2.798   4.234  10.601
 7454TIP3   OH246556   2.887   4.365  11.390
 7454TIP3    H146557   2.893   4.391  11.482
 7454TIP3    H246558   2.930   4.280  11.387
 7455TIP3   OH246559   2.873   3.928  10.563
 7455TIP3    H146560   2.846   3.995  10.626
 7455TIP3    H246561   2.959   3.956  10.533
 7456TIP3   OH246562   2.579   5.424  10.298
 7456TIP3    H146563   2.673   5.407  10.304
 7456TIP3    H246564   2.548   5.424  10.388
 7457TIP3   OH246565   2.475   4.075  10.287
 7457TIP3    H146566   2.475   4.159  10.333
 7457TIP3    H246567   2.561   4.037  10.305
 7458TIP3   OH246568   3.460   4.134  11.523
 7458TIP3    H146569   3.373   4.151  11.486
 7458TIP3    H246570   3.520   4.145  11.449
 7459TIP3   OH246571   3.361   4.509  10.908
 7459TIP3    H146572   3.278   4.462  10.901
 7459TIP3    H246573   3.418   4.451  10.959
 7460TIP3   OH246574   2.310   5.080  10.144
 7460TIP3    H146575   2.383   5.118  10.192
 7460TIP3    H246576   2.349   5.015  10.087
 7461TIP3   OH246577   2.174   4.378  10.110
 7461TIP3    H146578   2.154   4.471  10.118
 7461TIP3    H246579   2.130   4.351  10.030
 7462TIP3   OH246580   3.469   5.453  11.044
 7462TIP3    H146581   3.459   5.524  10.981
 7462TIP3    H246582   3.563   5.450  11.062
 7463TIP3   OH246583   2.201   3.860  10.941
 7463TIP3    H146584   2.191   3.848  10.847
 7463TIP3    H246585   2.172   3.777  10.979
 7464TIP3   OH246586   2.082   5.243  10.552
 7464TIP3    H146587   2.018   5.272  10.617
 7464TIP3    H246588   2.069   5.301  10.478
 7465TIP3   OH246589   2.027   5.527  11.701
 7465TIP3    H146590   2.088   5.505  11.771
 7465TIP3    H246591   1.990   5.443  11.674
 7466TIP3   OH246592   2.493   5.419  11.828
 7466TIP3    H146593   2.571   5.373  11.860
 7466TIP3    H246594   2.463   5.367  11.753
 7467TIP3   OH246595   2.902   5.341   9.997
 7467TIP3    H146596   2.858   5.262  10.030
 7467TIP3    H246597   2.985   5.310   9.962
 7468TIP3   OH246598   3.128   5.261  11.742
 7468TIP3    H146599   3.107   5.177  11.784
 7468TIP3    H246600   3.207   5.291  11.787
 7469TIP3   OH246601   3.316   5.321  10.071
 7469TIP3    H146602   3.299   5.230  10.095
 7469TIP3    H246603   3.409   5.323  10.049
 7470TIP3   OH246604   1.994   4.908  11.797
 7470TIP3    H146605   1.938   4.842  11.837
 7470TIP3    H246606   1.943   4.940  11.722
 7471TIP3   OH246607   2.478   4.885  10.055
 7471TIP3    H146608   2.500   4.828  10.129
 7471TIP3    H246609   2.562   4.919  10.024
 7472TIP3   OH246610   2.666   4.915  11.709
 7472TIP3    H146611   2.651   4.960  11.626
 7472TIP3    H246612   2.682   4.824  11.684
 7473TIP3   OH246613   3.244   4.912  11.499
 7473TIP3    H146614   3.333   4.940  11.480
 7473TIP3    H246615   3.191   4.991  11.489
 7474TIP3   OH246616   2.129   4.578  11.739
 7474TIP3    H146617   2.212   4.532  11.741
 7474TIP3    H246618   2.126   4.627  11.821
 7475TIP3   OH246619   2.582   4.733  10.262
 7475TIP3    H146620   2.523   4.693  10.325
 7475TIP3    H246621   2.620   4.659  10.214
 7476TIP3   OH246622   2.495   4.518  11.446
 7476TIP3    H146623   2.426   4.585  11.450
 7476TIP3    H246624   2.564   4.558  11.392
 7477TIP3   OH246625   2.707   4.551  10.093
 7477TIP3    H146626   2.711   4.526  10.000
 7477TIP3    H246627   2.798   4.552  10.121
 7478TIP3   OH246628   3.032   4.776  11.783
 7478TIP3    H146629   3.114   4.739  11.750
 7478TIP3    H246630   2.999   4.710  11.844
 7479TIP3   OH246631   3.582   4.738  19.999
 7479TIP3    H146632   3.667   4.717  19.962
 7479TIP3    H246633   3.577   4.833  19.997
 7480TIP3   OH246634   2.563   4.268  11.545
 7480TIP3    H146635   2.573   4.205  11.474
 7480TIP3    H246636   2.544   4.351  11.500
 7481TIP3   OH246637   2.591   4.095  11.319
 7481TIP3    H146638   2.646   4.141  11.255
 7481TIP3    H246639   2.503   4.096  11.281
 7482TIP3   OH246640   2.697   4.655  11.326
 7482TIP3    H146641   2.784   4.688  11.345
 7482TIP3    H246642   2.654   4.725  11.277
 7483TIP3   OH246643   3.151   4.415  11.828
 7483TIP3    H146644   3.156   4.324  11.798
 7483TIP3    H246645   3.242   4.441  11.841
 7484TIP3   OH246646   3.307   4.712  11.670
 7484TIP3    H146647   3.276   4.785  11.617
 7484TIP3    H246648   3.403   4.714  11.661
 7485TIP3   OH246649   2.392   4.329  11.764
 7485TIP3    H146650   2.314   4.274  11.753
 7485TIP3    H246651   2.443   4.314  11.684
 7486TIP3   OH246652   2.661   3.830  11.358
 7486TIP3    H146653   2.635   3.921  11.344
 7486TIP3    H246654   2.589   3.779  11.321
 7487TIP3   OH246655   2.771   4.234  11.729
 7487TIP3    H146656   2.724   4.207  11.808
 7487TIP3    H246657   2.702   4.242  11.662
 7488TIP3   OH246658   3.046   4.186  11.662
 7488TIP3    H146659   2.954   4.184  11.690
 7488TIP3    H246660   3.088   4.117  11.713
 7489TIP3   OH246661   3.209   4.025  11.825
 7489TIP3    H146662   3.198   3.930  11.825
 7489TIP3    H246663   3.183   4.052  11.913
 7490TIP3   OH246664   2.183   4.141  11.752
 7490TIP3    H146665   2.182   4.056  11.707
 7490TIP3    H246666   2.184   4.118  11.845
 7491TIP3   OH246667   2.661   3.783  11.630
 7491TIP3    H146668   2.712   3.702  11.629
 7491TIP3    H246669   2.652   3.807  11.538
 7492TIP3   OH246670   2.700   3.915  11.866
 7492TIP3    H146671   2.686   3.874  11.781
 7492TIP3    H246672   2.641   3.991  11.866
 7493TIP3   OH246673   2.670   5.679  10.149
 7493TIP3    H146674   2.758   5.642  10.145
 7493TIP3    H246675   2.683   5.768  10.184
 7494TIP3   OH246676   2.035   5.118  10.129
 7494TIP3    H146677   2.130   5.122  10.136
 7494TIP3    H246678   2.019   5.053  10.061
 7495TIP3   OH246679   1.922   5.584  10.622
 7495TIP3    H146680   1.856   5.549  10.562
 7495TIP3    H246681   1.938   5.513  10.683
 7496TIP3   OH246682   1.987   5.383  10.796
 7496TIP3    H146683   1.947   5.309  10.841
 7496TIP3    H246684   2.034   5.430  10.865
 7497TIP3   OH246685   3.735   5.492  11.104
 7497TIP3    H146686   3.742   5.511  11.197
 7497TIP3    H246687   3.816   5.524  11.066
 7498TIP3   OH246688   3.676   5.456  11.389
 7498TIP3    H146689   3.633   5.383  11.344
 7498TIP3    H246690   3.727   5.414  11.459
 7499TIP3   OH246691   3.535   5.036  11.874
 7499TIP3    H146692   3.448   5.047  11.913
 7499TIP3    H246693   3.586   5.109  11.910
 7500TIP3   OH246694   3.667   4.860  10.395
 7500TIP3    H146695   3.743   4.919  10.398
 7500TIP3    H246696   3.678   4.803  10.471
 7501TIP3   OH246697   3.714   4.680  10.600
 7501TIP3    H146698   3.636   4.637  10.633
 7501TIP3    H246699   3.768   4.695  10.677
 7502TIP3   OH246700   3.674   4.967  11.058
 7502TIP3    H146701   3.744   4.902  11.047
 7502TIP3    H246702   3.715   5.050  11.033
 7503TIP3   OH246703   3.526   5.232  11.298
 7503TIP3    H146704   3.454   5.279  11.341
 7503TIP3    H246705   3.492   5.209  11.212
 7504TIP3   OH246706   3.737   4.662  10.217
 7504TIP3    H146707   3.666   4.665  10.153
 7504TIP3    H246708   3.717   4.733  10.278
 7505TIP3   OH246709   3.532   4.381  10.114
 7505TIP3    H146710   3.473   4.436  10.062
 7505TIP3    H246711   3.522   4.293  10.076
 7506TIP3   OH246712   3.482   4.539  10.662
 7506TIP3    H146713   3.477   4.448  10.631
 7506TIP3    H246714   3.447   4.536  10.751
 7507TIP3   OH246715   1.973   4.760  11.059
 7507TIP3    H146716   1.978   4.740  10.966
 7507TIP3    H246717   2.055   4.725  11.096
 7508TIP3   OH246718   3.582   4.730  11.631
 7508TIP3    H146719   3.636   4.653  11.614
 7508TIP3    H246720   3.630   4.803  11.591
 7509TIP3   OH246721   3.704   4.486  11.617
 7509TIP3    H146722   3.618   4.449  11.635
 7509TIP3    H246723   3.764   4.412  11.628
 7510TIP3   OH246724   3.488   4.133  10.014
 7510TIP3    H146725   3.559   4.081  10.053
 7510TIP3    H246726   3.410   4.078  10.024
 7511TIP3   OH246727   3.453   4.303  10.484
 7511TIP3    H146728   3.477   4.210  10.493
 7511TIP3    H246729   3.528   4.342  10.440
 7512TIP3   OH246730   3.526   4.334  11.046
 7512TIP3    H146731   3.619   4.350  11.033
 7512TIP3    H246732   3.510   4.355  11.138
 7513TIP3   OH246733   3.523   4.434  11.309
 7513TIP3    H146734   3.443   4.473  11.346
 7513TIP3    H246735   3.580   4.509  11.293
 7514TIP3   OH246736   1.973   4.242  11.604
 7514TIP3    H146737   2.045   4.232  11.666
 7514TIP3    H246738   1.910   4.174  11.629
 7515TIP3   OH246739   3.734   3.815  11.830
 7515TIP3    H146740   3.804   3.763  11.792
 7515TIP3    H246741   3.730   3.894  11.775
 7516TIP3   OH246742   3.524   4.036  10.508
 7516TIP3    H146743   3.553   4.000  10.592
 7516TIP3    H246744   3.459   3.973  10.476
 7517TIP3   OH246745   2.059   4.096  10.981
 7517TIP3    H146746   2.103   4.010  10.981
 7517TIP3    H246747   2.131   4.159  10.989
 7518TIP3   OH246748   1.900   4.405  11.042
 7518TIP3    H146749   1.967   4.407  10.974
 7518TIP3    H246750   1.935   4.459  11.113
 7519TIP3   OH246751   3.674   4.005  11.642
 7519TIP3    H146752   3.593   4.056  11.640
 7519TIP3    H246753   3.666   3.945  11.567
 7520TIP3   OH246754   3.706   4.017  10.145
 7520TIP3    H146755   3.770   3.970  10.090
 7520TIP3    H246756   3.757   4.083  10.191
 7521TIP3   OH246757   1.937   4.002  10.444
 7521TIP3    H146758   1.845   4.017  10.467
 7521TIP3    H246759   1.961   4.078  10.391
 7522TIP3   OH246760   3.411   5.503  10.666
 7522TIP3    H146761   3.483   5.492  10.604
 7522TIP3    H246762   3.449   5.552  10.738
 7523TIP3   OH246763   1.924   3.863  11.281
 7523TIP3    H146764   1.862   3.863  11.354
 7523TIP3    H246765   1.887   3.925  11.218
 7524TIP3   OH246766   2.151   5.216  11.698
 7524TIP3    H146767   2.064   5.233  11.663
 7524TIP3    H246768   2.136   5.173  11.783
 7525TIP3   OH246769   2.457   5.343  11.342
 7525TIP3    H146770   2.427   5.427  11.308
 7525TIP3    H246771   2.552   5.347  11.335
 7526TIP3   OH246772   2.858   5.464  11.606
 7526TIP3    H146773   2.865   5.440  11.698
 7526TIP3    H246774   2.938   5.513  11.587
 7527TIP3   OH246775   3.086   5.612  11.565
 7527TIP3    H146776   3.152   5.560  11.519
 7527TIP3    H246777   3.127   5.632  11.649
 7528TIP3   OH246778   3.593   3.810  11.454
 7528TIP3    H146779   3.528   3.829  11.387
 7528TIP3    H246780   3.623   3.721  11.434
 7529TIP3   OH246781   2.170   5.652  11.346
 7529TIP3    H146782   2.087   5.685  11.313
 7529TIP3    H246783   2.174   5.683  11.436
 7530TIP3   OH246784   2.418   5.598  11.245
 7530TIP3    H146785   2.330   5.617  11.278
 7530TIP3    H246786   2.423   5.647  11.163
 7531TIP3   OH246787   2.889   5.560  11.155
 7531TIP3    H146788   2.827   5.593  11.090
 7531TIP3    H246789   2.903   5.633  11.214
 7532TIP3   OH246790   3.107   5.444  11.285
 7532TIP3    H146791   3.032   5.477  11.235
 7532TIP3    H246792   3.179   5.503  11.261
 7533TIP3   OH246793   3.342   5.591  11.249
 7533TIP3    H146794   3.357   5.684  11.231
 7533TIP3    H246795   3.388   5.545  11.178
 7534TIP3   OH246796   2.134   5.480  11.022
 7534TIP3    H146797   2.126   5.433  11.105
 7534TIP3    H246798   2.216   5.447  10.984
 7535TIP3   OH246799   2.353   5.364  10.910
 7535TIP3    H146800   2.334   5.272  10.929
 7535TIP3    H246801   2.439   5.380  10.949
 7536TIP3   OH246802   2.605   5.378  11.028
 7536TIP3    H146803   2.612   5.286  11.000
 7536TIP3    H246804   2.636   5.378  11.118
 7537TIP3   OH246805   2.928   3.956  10.901
 7537TIP3    H146806   2.863   3.889  10.924
 7537TIP3    H246807   2.999   3.907  10.860
 7538TIP3   OH246808   3.448   3.788  10.888
 7538TIP3    H146809   3.513   3.842  10.844
 7538TIP3    H246810   3.364   3.829  10.867
 7539TIP3   OH246811   3.634   3.900  10.722
 7539TIP3    H146812   3.695   3.835  10.687
 7539TIP3    H246813   3.689   3.976  10.742
 7540TIP3   OH246814   2.170   3.812  10.670
 7540TIP3    H146815   2.078   3.796  10.646
 7540TIP3    H246816   2.213   3.728  10.659
 7541TIP3   OH246817   2.051   3.816  10.273
 7541TIP3    H146818   2.111   3.877  10.231
 7541TIP3    H246819   2.008   3.868  10.342
 7542TIP3   OH246820   2.653   3.772  10.670
 7542TIP3    H146821   2.721   3.823  10.627
 7542TIP3    H246822   2.670   3.782  10.763
 7543TIP3   OH246823   3.181   3.847  10.794
 7543TIP3    H146824   3.206   3.838  10.702
 7543TIP3    H246825   3.145   3.761  10.818
 7544TIP3   OH246826   3.337   3.845  10.429
 7544TIP3    H146827   3.257   3.897  10.419
 7544TIP3    H246828   3.306   3.758  10.452
 7545TIP3   OH246829   2.051   5.418  10.345
 7545TIP3    H146830   1.975   5.410  10.288
 7545TIP3    H246831   2.056   5.511  10.366
 7546TIP3   OH246832   2.249   3.965  10.148
 7546TIP3    H146833   2.279   3.879  10.120
 7546TIP3    H246834   2.324   4.004  10.192
 7547TIP3   OH246835   2.750   4.061  10.349
 7547TIP3    H146836   2.784   3.991  10.405
 7547TIP3    H246837   2.769   4.142  10.398
 7548TIP3   OH246838   2.917   5.559  10.160
 7548TIP3    H146839   3.012   5.574  10.163
 7548TIP3    H246840   2.906   5.495  10.089
 7549TIP3   OH246841   3.608   5.474  10.473
 7549TIP3    H146842   3.585   5.388  10.439
 7549TIP3    H246843   3.598   5.533  10.398
 7550TIP3   OH246844   2.165   3.888  11.605
 7550TIP3    H146845   2.100   3.821  11.626
 7550TIP3    H246846   2.239   3.867  11.662
 7551TIP3   OH246847   2.354   3.820  11.796
 7551TIP3    H146848   2.444   3.795  11.777
 7551TIP3    H246849   2.315   3.740  11.833
 7552TIP3   OH246850   2.262   5.509  10.165
 7552TIP3    H146851   2.196   5.578  10.178
 7552TIP3    H246852   2.222   5.431  10.202
 7553TIP3   OH246853   3.227   3.738  11.805
 7553TIP3    H146854   3.225   3.647  11.835
 7553TIP3    H246855   3.316   3.749  11.771
 7554TIP3   OH246856   3.519   5.375  11.664
 7554TIP3    H146857   3.460   5.368  11.589
 7554TIP3    H246858   3.511   5.466  11.692
 7555TIP3   OH246859   4.976   4.783  10.656
 7555TIP3    H146860   4.965   4.877  10.669
 7555TIP3    H246861   4.921   4.762  10.580
 7556TIP3   OH246862   4.868   4.681  11.031
 7556TIP3    H146863   4.886   4.640  11.116
 7556TIP3    H246864   4.817   4.615  10.983
 7557TIP3   OH246865   4.064   4.606  11.165
 7557TIP3    H146866   4.075   4.535  11.229
 7557TIP3    H246867   4.154   4.627  11.138
 7558TIP3   OH246868   5.204   4.975  10.856
 7558TIP3    H146869   5.178   4.900  10.909
 7558TIP3    H246870   5.232   5.041  10.920
 7559TIP3   OH246871   4.200   5.098  10.971
 7559TIP3    H146872   4.172   5.009  10.951
 7559TIP3    H246873   4.294   5.091  10.985
 7560TIP3   OH246874   3.858   4.429  10.549
 7560TIP3    H146875   3.834   4.517  10.579
 7560TIP3    H246876   3.796   4.410  10.478
 7561TIP3   OH246877   3.910   4.680  10.805
 7561TIP3    H146878   3.939   4.592  10.825
 7561TIP3    H246879   3.990   4.733  10.804
 7562TIP3   OH246880   4.932   5.501  10.851
 7562TIP3    H146881   4.995   5.437  10.817
 7562TIP3    H246882   4.901   5.462  10.933
 7563TIP3   OH246883   4.690   4.932  11.053
 7563TIP3    H146884   4.732   4.864  11.001
 7563TIP3    H246885   4.757   4.960  11.115
 7564TIP3   OH246886   5.571   4.057  11.124
 7564TIP3    H146887   5.573   4.123  11.193
 7564TIP3    H246888   5.637   4.085  11.061
 7565TIP3   OH246889   5.034   4.360  11.086
 7565TIP3    H146890   5.057   4.267  11.095
 7565TIP3    H246891   5.010   4.369  10.994
 7566TIP3   OH246892   4.346   4.141  10.785
 7566TIP3    H146893   4.362   4.226  10.744
 7566TIP3    H246894   4.293   4.093  10.722
 7567TIP3   OH246895   5.112   4.205  10.650
 7567TIP3    H146896   5.162   4.165  10.720
 7567TIP3    H246897   5.177   4.248  10.595
 7568TIP3   OH246898   4.001   4.423  10.867
 7568TIP3    H146899   4.066   4.383  10.925
 7568TIP3    H246900   4.022   4.390  10.780
 7569TIP3   OH246901   4.474   4.550  10.842
 7569TIP3    H146902   4.563   4.522  10.864
 7569TIP3    H246903   4.443   4.484  10.780
 7570TIP3   OH246904   5.566   4.220  11.349
 7570TIP3    H146905   5.518   4.301  11.332
 7570TIP3    H246906   5.623   4.241  11.423
 7571TIP3   OH246907   4.235   4.081  11.206
 7571TIP3    H146908   4.203   4.142  11.139
 7571TIP3    H246909   4.169   4.085  11.275
 7572TIP3   OH246910   4.904   5.050  10.579
 7572TIP3    H146911   4.909   5.045  10.484
 7572TIP3    H246912   4.888   5.143  10.597
 7573TIP3   OH246913   4.462   4.842  11.183
 7573TIP3    H146914   4.414   4.916  11.219
 7573TIP3    H246915   4.538   4.882  11.139
 7574TIP3   OH246916   5.274   4.128  10.857
 7574TIP3    H146917   5.224   4.081  10.924
 7574TIP3    H246918   5.338   4.179  10.906
 7575TIP3   OH246919   4.186   4.247  10.987
 7575TIP3    H146920   4.248   4.301  11.036
 7575TIP3    H246921   4.239   4.206  10.919
 7576TIP3   OH246922   4.326   5.061  11.287
 7576TIP3    H146923   4.327   5.155  11.270
 7576TIP3    H246924   4.242   5.045  11.330
 7577TIP3   OH246925   3.900   5.010  10.394
 7577TIP3    H146926   3.899   5.059  10.311
 7577TIP3    H246927   3.925   5.075  10.459
 7578TIP3   OH246928   5.270   5.180  11.058
 7578TIP3    H146929   5.177   5.180  11.081
 7578TIP3    H246930   5.288   5.268  11.026
 7579TIP3   OH246931   5.302   3.960  11.195
 7579TIP3    H146932   5.232   4.010  11.154
 7579TIP3    H246933   5.382   3.994  11.155
 7580TIP3   OH246934   4.583   3.768  10.960
 7580TIP3    H146935   4.553   3.677  10.965
 7580TIP3    H246936   4.507   3.820  10.986
 7581TIP3   OH246937   5.114   5.336  10.744
 7581TIP3    H146938   5.130   5.250  10.704
 7581TIP3    H246939   5.192   5.387  10.721
 7582TIP3   OH246940   5.212   5.116  10.616
 7582TIP3    H146941   5.212   5.062  10.537
 7582TIP3    H246942   5.206   5.053  10.688
 7583TIP3   OH246943   5.379   4.990  11.428
 7583TIP3    H146944   5.372   4.930  11.353
 7583TIP3    H246945   5.390   5.076  11.388
 7584TIP3   OH246946   4.844   4.734  10.412
 7584TIP3    H146947   4.777   4.802  10.408
 7584TIP3    H246948   4.893   4.743  10.331
 7585TIP3   OH246949   4.853   4.532  10.120
 7585TIP3    H146950   4.882   4.622  10.114
 7585TIP3    H246951   4.933   4.481  10.135
 7586TIP3   OH246952   5.567   4.656  11.246
 7586TIP3    H146953   5.494   4.717  11.241
 7586TIP3    H246954   5.625   4.682  11.174
 7587TIP3   OH246955   5.209   4.717  10.525
 7587TIP3    H146956   5.136   4.739  10.583
 7587TIP3    H246957   5.267   4.663  10.578
 7588TIP3   OH246958   5.167   4.522  11.439
 7588TIP3    H146959   5.163   4.591  11.506
 7588TIP3    H246960   5.100   4.546  11.376
 7589TIP3   OH246961   4.335   4.751  10.702
 7589TIP3    H146962   4.309   4.716  10.617
 7589TIP3    H246963   4.391   4.684  10.740
 7590TIP3   OH246964   4.483   5.108  10.956
 7590TIP3    H146965   4.485   5.111  10.860
 7590TIP3    H246966   4.557   5.051  10.979
 7591TIP3   OH246967   4.324   4.645  11.055
 7591TIP3    H146968   4.378   4.620  10.980
 7591TIP3    H246969   4.376   4.711  11.101
 7592TIP3   OH246970   5.017   5.193  11.154
 7592TIP3    H146971   4.999   5.257  11.222
 7592TIP3    H246972   4.973   5.113  11.184
 7593TIP3   OH246973   4.491   5.101  11.507
 7593TIP3    H146974   4.427   5.155  11.553
 7593TIP3    H246975   4.445   5.072  11.428
 7594TIP3   OH246976   5.119   4.606  10.292
 7594TIP3    H146977   5.154   4.652  10.368
 7594TIP3    H246978   5.085   4.675  10.236
 7595TIP3   OH246979   4.169   4.682  11.478
 7595TIP3    H146980   4.174   4.756  11.539
 7595TIP3    H246981   4.076   4.670  11.463
 7596TIP3   OH246982   4.843   5.352  10.581
 7596TIP3    H146983   4.849   5.388  10.669
 7596TIP3    H246984   4.791   5.416  10.532
 7597TIP3   OH246985   4.290   5.262  11.604
 7597TIP3    H146986   4.280   5.295  11.514
 7597TIP3    H246987   4.201   5.245  11.634
 7598TIP3   OH246988   5.450   3.790  10.274
 7598TIP3    H146989   5.367   3.813  10.315
 7598TIP3    H246990   5.486   3.873  10.244
 7599TIP3   OH246991   4.245   4.657  10.453
 7599TIP3    H146992   4.200   4.725  10.402
 7599TIP3    H246993   4.209   4.575  10.420
 7600TIP3   OH246994   5.559   5.249  10.114
 7600TIP3    H146995   5.583   5.342  10.115
 7600TIP3    H246996   5.642   5.203  10.124
 7601TIP3   OH246997   3.874   4.904  11.342
 7601TIP3    H146998   3.859   4.888  11.249
 7601TIP3    H246999   3.890   4.817  11.379
 7602TIP3   OH247000   3.852   5.190  11.016
 7602TIP3    H147001   3.943   5.163  11.018
 7602TIP3    H247002   3.842   5.249  11.091
 7603TIP3   OH247003   5.652   5.265  11.613
 7603TIP3    H147004   5.639   5.171  11.601
 7603TIP3    H247005   5.567   5.297  11.644
 7604TIP3   OH247006   4.739   5.212  11.479
 7604TIP3    H147007   4.738   5.294  11.528
 7604TIP3    H247008   4.652   5.174  11.494
 7605TIP3   OH247009   4.752   5.573  10.443
 7605TIP3    H147010   4.774   5.584  10.351
 7605TIP3    H247011   4.772   5.658  10.483
 7606TIP3   OH247012   4.143   5.441  10.666
 7606TIP3    H147013   4.173   5.413  10.752
 7606TIP3    H247014   4.086   5.371  10.636
 7607TIP3   OH247015   5.063   5.546  10.206
 7607TIP3    H147016   5.109   5.477  10.158
 7607TIP3    H247017   5.074   5.523  10.298
 7608TIP3   OH247018   5.072   5.491  10.478
 7608TIP3    H147019   4.996   5.435  10.494
 7608TIP3    H247020   5.139   5.460  10.539
 7609TIP3   OH247021   5.354   4.385  11.638
 7609TIP3    H147022   5.296   4.423  11.572
 7609TIP3    H247023   5.354   4.292  11.618
 7610TIP3   OH247024   4.088   5.059  11.424
 7610TIP3    H147025   4.110   5.021  11.509
 7610TIP3    H247026   4.011   5.010  11.394
 7611TIP3   OH247027   4.340   3.889  11.033
 7611TIP3    H147028   4.260   3.883  10.981
 7611TIP3    H247029   4.325   3.963  11.091
 7612TIP3   OH247030   4.827   3.863  11.358
 7612TIP3    H147031   4.871   3.819  11.431
 7612TIP3    H247032   4.734   3.851  11.376
 7613TIP3   OH247033   5.109   4.244  11.458
 7613TIP3    H147034   5.061   4.231  11.539
 7613TIP3    H247035   5.116   4.339  11.449
 7614TIP3   OH247036   5.294   4.761  10.072
 7614TIP3    H147037   5.198   4.755  10.068
 7614TIP3    H247038   5.311   4.853  10.088
 7615TIP3   OH247039   4.773   4.123  10.119
 7615TIP3    H147040   4.725   4.093  10.196
 7615TIP3    H247041   4.705   4.140  10.054
 7616TIP3   OH247042   4.357   4.387  11.152
 7616TIP3    H147043   4.308   4.387  11.234
 7616TIP3    H247044   4.355   4.477  11.121
 7617TIP3   OH247045   4.355   4.382  10.658
 7617TIP3    H147046   4.260   4.377  10.646
 7617TIP3    H247047   4.391   4.365  10.571
 7618TIP3   OH247048   4.896   4.468  10.529
 7618TIP3    H147049   4.877   4.556  10.496
 7618TIP3    H247050   4.964   4.435  10.470
 7619TIP3   OH247051   4.822   4.472  11.670
 7619TIP3    H147052   4.739   4.459  11.715
 7619TIP3    H247053   4.888   4.438  11.731
 7620TIP3   OH247054   4.986   4.400  10.814
 7620TIP3    H147055   4.964   4.472  10.755
 7620TIP3    H247056   5.013   4.329  10.756
 7621TIP3   OH247057   4.122   4.382  11.325
 7621TIP3    H147058   4.183   4.416  11.390
 7621TIP3    H247059   4.099   4.294  11.356
 7622TIP3   OH247060   4.466   4.134  10.027
 7622TIP3    H147061   4.426   4.124  10.114
 7622TIP3    H247062   4.394   4.163   9.971
 7623TIP3   OH247063   3.804   4.107  10.753
 7623TIP3    H147064   3.848   4.117  10.837
 7623TIP3    H247065   3.871   4.129  10.688
 7624TIP3   OH247066   3.879   4.204  10.267
 7624TIP3    H147067   3.958   4.237  10.225
 7624TIP3    H247068   3.830   4.283  10.291
 7625TIP3   OH247069   4.941   4.543  11.263
 7625TIP3    H147070   4.979   4.479  11.203
 7625TIP3    H247071   4.875   4.493  11.312
 7626TIP3   OH247072   4.652   4.117  10.739
 7626TIP3    H147073   4.563   4.122  10.774
 7626TIP3    H247074   4.704   4.082  10.812
 7627TIP3   OH247075   4.090   4.309  10.632
 7627TIP3    H147076   4.011   4.339  10.585
 7627TIP3    H247077   4.103   4.220  10.601
 7628TIP3   OH247078   4.445   4.314  10.411
 7628TIP3    H147079   4.540   4.317  10.420
 7628TIP3    H247080   4.427   4.368  10.334
 7629TIP3   OH247081   5.056   4.075  11.071
 7629TIP3    H147082   4.999   4.085  11.148
 7629TIP3    H247083   4.999   4.036  11.004
 7630TIP3   OH247084   4.342   4.443  10.196
 7630TIP3    H147085   4.264   4.426  10.143
 7630TIP3    H247086   4.408   4.473  10.133
 7631TIP3   OH247087   5.378   5.648  11.722
 7631TIP3    H147088   5.400   5.682  11.635
 7631TIP3    H247089   5.452   5.673  11.777
 7632TIP3   OH247090   4.138   4.900  11.654
 7632TIP3    H147091   4.206   4.908  11.721
 7632TIP3    H247092   4.056   4.892  11.703
 7633TIP3   OH247093   4.721   4.445  10.935
 7633TIP3    H147094   4.798   4.409  10.892
 7633TIP3    H247095   4.699   4.382  11.003
 7634TIP3   OH247096   4.167   4.045  10.584
 7634TIP3    H147097   4.122   3.967  10.615
 7634TIP3    H247098   4.209   4.017  10.502
 7635TIP3   OH247099   4.623   4.297  11.162
 7635TIP3    H147100   4.536   4.339  11.164
 7635TIP3    H247101   4.668   4.332  11.239
 7636TIP3   OH247102   4.620   4.920  10.360
 7636TIP3    H147103   4.562   4.851  10.328
 7636TIP3    H247104   4.598   4.929  10.453
 7637TIP3   OH247105   5.366   4.840  11.198
 7637TIP3    H147106   5.421   4.896  11.144
 7637TIP3    H247107   5.291   4.819  11.143
 7638TIP3   OH247108   5.043   4.132  10.202
 7638TIP3    H147109   4.957   4.135  10.158
 7638TIP3    H247110   5.055   4.219  10.238
 7639TIP3   OH247111   4.772   4.904  11.471
 7639TIP3    H147112   4.764   4.856  11.554
 7639TIP3    H247113   4.757   4.995  11.496
 7640TIP3   OH247114   5.098   4.351  10.359
 7640TIP3    H147115   5.183   4.333  10.400
 7640TIP3    H247116   5.106   4.440  10.326
 7641TIP3   OH247117   4.162   4.824  10.901
 7641TIP3    H147118   4.219   4.814  10.826
 7641TIP3    H247119   4.200   4.767  10.968
 7642TIP3   OH247120   4.904   5.074  10.307
 7642TIP3    H147121   4.830   5.130  10.284
 7642TIP3    H247122   4.902   5.003  10.242
 7643TIP3   OH247123   3.889   4.658  11.465
 7643TIP3    H147124   3.882   4.614  11.550
 7643TIP3    H247125   3.816   4.621  11.414
 7644TIP3   OH247126   4.569   4.682  11.634
 7644TIP3    H147127   4.551   4.643  11.549
 7644TIP3    H247128   4.558   4.610  11.696
 7645TIP3   OH247129   5.018   5.184  11.483
 7645TIP3    H147130   4.925   5.189  11.463
 7645TIP3    H247131   5.024   5.205  11.576
 7646TIP3   OH247132   5.610   4.409  10.308
 7646TIP3    H147133   5.539   4.387  10.247
 7646TIP3    H247134   5.629   4.501  10.290
 7647TIP3   OH247135   5.613   4.981  11.568
 7647TIP3    H147136   5.524   4.991  11.536
 7647TIP3    H247137   5.664   4.962  11.489
 7648TIP3   OH247138   5.424   5.230  10.357
 7648TIP3    H147139   5.365   5.157  10.373
 7648TIP3    H247140   5.451   5.220  10.266
 7649TIP3   OH247141   5.151   4.752  11.027
 7649TIP3    H147142   5.057   4.739  11.016
 7649TIP3    H247143   5.191   4.675  10.987
 7650TIP3   OH247144   4.408   5.180  10.686
 7650TIP3    H147145   4.435   5.264  10.648
 7650TIP3    H247146   4.315   5.173  10.664
 7651TIP3   OH247147   4.000   4.634  10.130
 7651TIP3    H147148   4.049   4.704  10.173
 7651TIP3    H247149   3.909   4.648  10.158
 7652TIP3   OH247150   4.520   4.938  10.612
 7652TIP3    H147151   4.492   5.026  10.637
 7652TIP3    H247152   4.457   4.880  10.653
 7653TIP3   OH247153   4.613   5.366  11.273
 7653TIP3    H147154   4.674   5.434  11.245
 7653TIP3    H247155   4.665   5.308  11.328
 7654TIP3   OH247156   4.406   5.445  10.579
 7654TIP3    H147157   4.313   5.458  10.600
 7654TIP3    H247158   4.449   5.525  10.607
 7655TIP3   OH247159   4.902   4.950  11.235
 7655TIP3    H147160   4.861   4.928  11.318
 7655TIP3    H247161   4.966   4.880  11.220
 7656TIP3   OH247162   5.177   5.062  10.131
 7656TIP3    H147163   5.201   5.041  10.222
 7656TIP3    H247164   5.106   5.001  10.111
 7657TIP3   OH247165   5.227   5.387  11.450
 7657TIP3    H147166   5.147   5.336  11.439
 7657TIP3    H247167   5.219   5.458  11.386
 7658TIP3   OH247168   5.636   5.513  10.159
 7658TIP3    H147169   5.705   5.577  10.176
 7658TIP3    H247170   5.555   5.556  10.188
 7659TIP3   OH247171   4.044   4.120  11.412
 7659TIP3    H147172   3.958   4.152  11.440
 7659TIP3    H247173   4.062   4.047  11.470
 7660TIP3   OH247174   5.282   4.962  10.376
 7660TIP3    H147175   5.227   4.889  10.403
 7660TIP3    H247176   5.371   4.928  10.379
 7661TIP3   OH247177   4.009   5.331  11.252
 7661TIP3    H147178   4.046   5.252  11.291
 7661TIP3    H247179   4.024   5.400  11.318
 7662TIP3   OH247180   4.437   5.120  10.254
 7662TIP3    H147181   4.513   5.072  10.286
 7662TIP3    H247182   4.456   5.212  10.273
 7663TIP3   OH247183   4.100   4.838  10.292
 7663TIP3    H147184   4.032   4.884  10.340
 7663TIP3    H247185   4.150   4.907  10.248
 7664TIP3   OH247186   4.913   4.122  11.307
 7664TIP3    H147187   4.988   4.142  11.363
 7664TIP3    H247188   4.887   4.034  11.334
 7665TIP3   OH247189   5.006   4.023  10.458
 7665TIP3    H147190   5.016   4.060  10.370
 7665TIP3    H247191   5.034   4.093  10.517
 7666TIP3   OH247192   4.718   5.284  10.256
 7666TIP3    H147193   4.634   5.314  10.292
 7666TIP3    H247194   4.768   5.364  10.242
 7667TIP3   OH247195   4.705   4.266  10.505
 7667TIP3    H147196   4.772   4.334  10.514
 7667TIP3    H247197   4.695   4.231  10.594
 7668TIP3   OH247198   4.775   4.366  11.394
 7668TIP3    H147199   4.784   4.387  11.487
 7668TIP3    H247200   4.816   4.280  11.385
 7669TIP3   OH247201   4.763   3.928  10.559
 7669TIP3    H147202   4.736   3.996  10.620
 7669TIP3    H247203   4.849   3.956  10.528
 7670TIP3   OH247204   4.467   5.390  10.316
 7670TIP3    H147205   4.482   5.475  10.275
 7670TIP3    H247206   4.448   5.409  10.407
 7671TIP3   OH247207   4.356   4.080  10.282
 7671TIP3    H147208   4.357   4.165  10.327
 7671TIP3    H247209   4.442   4.043  10.300
 7672TIP3   OH247210   5.355   4.133  11.513
 7672TIP3    H147211   5.268   4.151  11.477
 7672TIP3    H247212   5.414   4.143  11.439
 7673TIP3   OH247213   5.244   4.509  10.913
 7673TIP3    H147214   5.159   4.466  10.902
 7673TIP3    H247215   5.297   4.445  10.961
 7674TIP3   OH247216   4.188   5.069  10.152
 7674TIP3    H147217   4.261   5.107  10.201
 7674TIP3    H247218   4.229   5.009  10.090
 7675TIP3   OH247219   4.053   4.369  10.106
 7675TIP3    H147220   4.039   4.463  10.117
 7675TIP3    H247221   4.016   4.350  10.020
 7676TIP3   OH247222   5.351   5.456  11.046
 7676TIP3    H147223   5.340   5.525  10.980
 7676TIP3    H247224   5.446   5.450  11.058
 7677TIP3   OH247225   4.076   3.861  10.944
 7677TIP3    H147226   4.066   3.851  10.849
 7677TIP3    H247227   4.049   3.777  10.981
 7678TIP3   OH247228   3.957   5.240  10.552
 7678TIP3    H147229   3.894   5.271  10.617
 7678TIP3    H247230   3.951   5.304  10.481
 7679TIP3   OH247231   3.911   5.544  11.702
 7679TIP3    H147232   3.971   5.523  11.774
 7679TIP3    H247233   3.879   5.459  11.672
 7680TIP3   OH247234   4.377   5.421  11.816
 7680TIP3    H147235   4.452   5.372  11.851
 7680TIP3    H247236   4.347   5.368  11.742
 7681TIP3   OH247237   4.803   5.340   9.976
 7681TIP3    H147238   4.732   5.276   9.981
 7681TIP3    H247239   4.881   5.292  10.003
 7682TIP3   OH247240   5.011   5.248  11.752
 7682TIP3    H147241   4.990   5.165  11.793
 7682TIP3    H247242   5.091   5.278  11.796
 7683TIP3   OH247243   5.184   5.333  10.079
 7683TIP3    H147244   5.170   5.242  10.105
 7683TIP3    H247245   5.264   5.332  10.027
 7684TIP3   OH247246   3.889   4.895  11.783
 7684TIP3    H147247   3.880   4.799  11.785
 7684TIP3    H247248   3.828   4.923  11.716
 7685TIP3   OH247249   4.362   4.882  10.054
 7685TIP3    H147250   4.382   4.821  10.125
 7685TIP3    H247251   4.439   4.938  10.048
 7686TIP3   OH247252   4.556   4.941  11.717
 7686TIP3    H147253   4.536   4.984  11.634
 7686TIP3    H247254   4.566   4.849  11.694
 7687TIP3   OH247255   5.126   4.908  11.512
 7687TIP3    H147256   5.213   4.940  11.489
 7687TIP3    H247257   5.068   4.983  11.494
 7688TIP3   OH247258   4.004   4.611  11.768
 7688TIP3    H147259   4.076   4.552  11.747
 7688TIP3    H247260   4.022   4.639  11.859
 7689TIP3   OH247261   4.455   4.722  10.259
 7689TIP3    H147262   4.406   4.670  10.322
 7689TIP3    H247263   4.506   4.658  10.209
 7690TIP3   OH247264   4.356   4.488  11.432
 7690TIP3    H147265   4.300   4.561  11.459
 7690TIP3    H247266   4.434   4.530  11.397
 7691TIP3   OH247267   4.583   4.547  10.083
 7691TIP3    H147268   4.596   4.584   9.996
 7691TIP3    H247269   4.671   4.529  10.115
 7692TIP3   OH247270   4.893   4.763  11.768
 7692TIP3    H147271   4.984   4.735  11.759
 7692TIP3    H247272   4.842   4.689  11.735
 7693TIP3   OH247273   5.488   4.727  20.018
 7693TIP3    H147274   5.427   4.712  19.946
 7693TIP3    H247275   5.513   4.818  20.010
 7694TIP3   OH247276   4.377   4.228  11.537
 7694TIP3    H147277   4.422   4.179  11.469
 7694TIP3    H247278   4.384   4.320  11.510
 7695TIP3   OH247279   4.489   4.092  11.311
 7695TIP3    H147280   4.545   4.145  11.254
 7695TIP3    H247281   4.403   4.096  11.269
 7696TIP3   OH247282   4.565   4.640  11.343
 7696TIP3    H147283   4.657   4.662  11.354
 7696TIP3    H247284   4.529   4.710  11.289
 7697TIP3   OH247285   5.042   4.388  11.848
 7697TIP3    H147286   5.037   4.313  11.789
 7697TIP3    H247287   5.126   4.428  11.830
 7698TIP3   OH247288   5.190   4.702  11.676
 7698TIP3    H147289   5.158   4.777  11.626
 7698TIP3    H247290   5.284   4.701  11.660
 7699TIP3   OH247291   4.227   4.427  11.758
 7699TIP3    H147292   4.221   4.341  11.718
 7699TIP3    H247293   4.321   4.446  11.762
 7700TIP3   OH247294   4.549   3.826  11.349
 7700TIP3    H147295   4.528   3.918  11.336
 7700TIP3    H247296   4.474   3.779  11.313
 7701TIP3   OH247297   4.685   4.186  11.704
 7701TIP3    H147298   4.658   4.257  11.763
 7701TIP3    H247299   4.608   4.169  11.651
 7702TIP3   OH247300   4.965   4.183  11.680
 7702TIP3    H147301   4.870   4.173  11.690
 7702TIP3    H247302   5.002   4.114  11.734
 7703TIP3   OH247303   5.116   4.027  11.856
 7703TIP3    H147304   5.108   3.934  11.838
 7703TIP3    H247305   5.084   4.037  11.946
 7704TIP3   OH247306   4.038   4.146  11.770
 7704TIP3    H147307   4.098   4.091  11.719
 7704TIP3    H247308   4.055   4.121  11.861
 7705TIP3   OH247309   4.546   3.778  11.619
 7705TIP3    H147310   4.601   3.700  11.621
 7705TIP3    H247311   4.539   3.801  11.526
 7706TIP3   OH247312   4.552   3.905  11.862
 7706TIP3    H147313   4.558   3.873  11.772
 7706TIP3    H247314   4.514   3.992  11.855
 7707TIP3   OH247315   4.534   5.624  10.185
 7707TIP3    H147316   4.627   5.605  10.177
 7707TIP3    H247317   4.513   5.677  10.108
 7708TIP3   OH247318   3.917   5.114  10.135
 7708TIP3    H147319   4.011   5.123  10.147
 7708TIP3    H247320   3.908   5.056  10.059
 7709TIP3   OH247321   3.796   5.588  10.637
 7709TIP3    H147322   3.739   5.550  10.571
 7709TIP3    H247323   3.817   5.515  10.695
 7710TIP3   OH247324   3.865   5.382  10.806
 7710TIP3    H147325   3.829   5.309  10.856
 7710TIP3    H247326   3.919   5.430  10.869
 7711TIP3   OH247327   5.620   5.482  11.102
 7711TIP3    H147328   5.625   5.494  11.197
 7711TIP3    H247329   5.702   5.519  11.069
 7712TIP3   OH247330   5.565   5.447  11.385
 7712TIP3    H147331   5.513   5.380  11.341
 7712TIP3    H247332   5.611   5.401  11.455
 7713TIP3   OH247333   5.425   5.032  11.865
 7713TIP3    H147334   5.339   5.038  11.906
 7713TIP3    H247335   5.476   5.100  11.907
 7714TIP3   OH247336   5.544   4.857  10.398
 7714TIP3    H147337   5.619   4.916  10.407
 7714TIP3    H247338   5.552   4.798  10.473
 7715TIP3   OH247339   5.597   4.673  10.599
 7715TIP3    H147340   5.516   4.633  10.630
 7715TIP3    H247341   5.647   4.690  10.679
 7716TIP3   OH247342   5.572   4.972  11.073
 7716TIP3    H147343   5.634   4.904  11.046
 7716TIP3    H247344   5.606   5.053  11.035
 7717TIP3   OH247345   5.405   5.233  11.299
 7717TIP3    H147346   5.332   5.278  11.341
 7717TIP3    H247347   5.372   5.208  11.212
 7718TIP3   OH247348   5.618   4.669  10.209
 7718TIP3    H147349   5.542   4.666  10.151
 7718TIP3    H247350   5.595   4.736  10.274
 7719TIP3   OH247351   5.415   4.383  10.125
 7719TIP3    H147352   5.351   4.446  10.093
 7719TIP3    H247353   5.397   4.303  10.076
 7720TIP3   OH247354   5.369   4.534  10.670
 7720TIP3    H147355   5.358   4.445  10.638
 7720TIP3    H247356   5.333   4.532  10.758
 7721TIP3   OH247357   3.861   4.760  11.070
 7721TIP3    H147358   3.865   4.742  10.976
 7721TIP3    H247359   3.939   4.717  11.106
 7722TIP3   OH247360   5.461   4.720  11.619
 7722TIP3    H147361   5.520   4.646  11.605
 7722TIP3    H247362   5.507   4.794  11.580
 7723TIP3   OH247363   5.606   4.488  11.606
 7723TIP3    H147364   5.520   4.450  11.622
 7723TIP3    H247365   5.667   4.415  11.619
 7724TIP3   OH247366   5.366   4.137  10.016
 7724TIP3    H147367   5.432   4.082  10.058
 7724TIP3    H247368   5.283   4.094  10.036
 7725TIP3   OH247369   5.338   4.294  10.499
 7725TIP3    H147370   5.370   4.204  10.505
 7725TIP3    H247371   5.405   4.339  10.447
 7726TIP3   OH247372   5.407   4.323  11.038
 7726TIP3    H147373   5.500   4.340  11.023
 7726TIP3    H247374   5.393   4.347  11.129
 7727TIP3   OH247375   5.405   4.437  11.297
 7727TIP3    H147376   5.325   4.472  11.336
 7727TIP3    H247377   5.460   4.513  11.281
 7728TIP3   OH247378   3.830   4.233  11.612
 7728TIP3    H147379   3.907   4.229  11.668
 7728TIP3    H247380   3.780   4.154  11.634
 7729TIP3   OH247381   5.658   3.824  11.839
 7729TIP3    H147382   5.703   3.758  11.785
 7729TIP3    H247383   5.651   3.900  11.782
 7730TIP3   OH247384   5.425   4.029  10.503
 7730TIP3    H147385   5.448   3.995  10.589
 7730TIP3    H247386   5.357   3.970  10.471
 7731TIP3   OH247387   3.941   4.099  10.992
 7731TIP3    H147388   3.985   4.014  10.988
 7731TIP3    H247389   4.013   4.163  10.998
 7732TIP3   OH247390   3.793   4.406  11.054
 7732TIP3    H147391   3.854   4.404  10.979
 7732TIP3    H247392   3.840   4.455  11.121
 7733TIP3   OH247393   5.575   4.022  11.668
 7733TIP3    H147394   5.503   4.063  11.716
 7733TIP3    H247395   5.534   3.983  11.591
 7734TIP3   OH247396   5.584   4.009  10.146
 7734TIP3    H147397   5.644   3.962  10.088
 7734TIP3    H247398   5.639   4.076  10.187
 7735TIP3   OH247399   3.816   3.998  10.440
 7735TIP3    H147400   3.727   4.018  10.466
 7735TIP3    H247401   3.846   4.074  10.391
 7736TIP3   OH247402   5.301   5.509  10.652
 7736TIP3    H147403   5.375   5.492  10.594
 7736TIP3    H247404   5.339   5.557  10.726
 7737TIP3   OH247405   3.811   3.854  11.272
 7737TIP3    H147406   3.750   3.854  11.346
 7737TIP3    H247407   3.776   3.920  11.212
 7738TIP3   OH247408   4.035   5.229  11.708
 7738TIP3    H147409   3.946   5.238  11.675
 7738TIP3    H247410   4.025   5.187  11.794
 7739TIP3   OH247411   4.341   5.343  11.334
 7739TIP3    H147412   4.318   5.431  11.304
 7739TIP3    H247413   4.437   5.340  11.329
 7740TIP3   OH247414   4.739   5.459  11.603
 7740TIP3    H147415   4.749   5.438  11.695
 7740TIP3    H247416   4.816   5.511  11.581
 7741TIP3   OH247417   4.969   5.605  11.557
 7741TIP3    H147418   5.028   5.543  11.513
 7741TIP3    H247419   5.012   5.625  11.640
 7742TIP3   OH247420   5.473   3.831  11.464
 7742TIP3    H147421   5.405   3.862  11.404
 7742TIP3    H247422   5.495   3.743  11.433
 7743TIP3   OH247423   4.059   5.643  11.345
 7743TIP3    H147424   3.977   5.679  11.311
 7743TIP3    H247425   4.066   5.678  11.434
 7744TIP3   OH247426   4.315   5.604  11.249
 7744TIP3    H147427   4.225   5.622  11.278
 7744TIP3    H247428   4.324   5.653  11.167
 7745TIP3   OH247429   4.779   5.564  11.152
 7745TIP3    H147430   4.722   5.600  11.084
 7745TIP3    H247431   4.798   5.639  11.209
 7746TIP3   OH247432   4.994   5.447  11.284
 7746TIP3    H147433   4.919   5.476  11.233
 7746TIP3    H247434   5.065   5.505  11.257
 7747TIP3   OH247435   5.234   5.592  11.255
 7747TIP3    H147436   5.244   5.684  11.231
 7747TIP3    H247437   5.275   5.544  11.183
 7748TIP3   OH247438   4.018   5.487  11.022
 7748TIP3    H147439   4.011   5.441  11.106
 7748TIP3    H247440   4.099   5.452  10.983
 7749TIP3   OH247441   4.234   5.365  10.912
 7749TIP3    H147442   4.220   5.272  10.931
 7749TIP3    H247443   4.323   5.382  10.944
 7750TIP3   OH247444   4.491   5.381  11.021
 7750TIP3    H147445   4.499   5.290  10.993
 7750TIP3    H247446   4.523   5.382  11.111
 7751TIP3   OH247447   4.807   3.952  10.903
 7751TIP3    H147448   4.744   3.884  10.928
 7751TIP3    H247449   4.881   3.904  10.866
 7752TIP3   OH247450   5.331   3.784  10.887
 7752TIP3    H147451   5.398   3.838  10.845
 7752TIP3    H247452   5.249   3.830  10.870
 7753TIP3   OH247453   5.520   3.897  10.726
 7753TIP3    H147454   5.584   3.834  10.693
 7753TIP3    H247455   5.571   3.976  10.745
 7754TIP3   OH247456   4.047   3.813  10.673
 7754TIP3    H147457   3.957   3.796  10.647
 7754TIP3    H247458   4.092   3.729  10.662
 7755TIP3   OH247459   3.934   3.811  10.272
 7755TIP3    H147460   3.995   3.873  10.230
 7755TIP3    H247461   3.890   3.863  10.340
 7756TIP3   OH247462   4.538   3.780  10.671
 7756TIP3    H147463   4.608   3.829  10.628
 7756TIP3    H247464   4.557   3.788  10.765
 7757TIP3   OH247465   5.069   3.856  10.801
 7757TIP3    H147466   5.090   3.851  10.708
 7757TIP3    H247467   5.032   3.770  10.822
 7758TIP3   OH247468   5.226   3.847  10.429
 7758TIP3    H147469   5.149   3.903  10.424
 7758TIP3    H247470   5.192   3.760  10.449
 7759TIP3   OH247471   3.929   5.429  10.358
 7759TIP3    H147472   3.859   5.415  10.294
 7759TIP3    H247473   3.939   5.524  10.362
 7760TIP3   OH247474   4.126   3.967  10.149
 7760TIP3    H147475   4.160   3.885  10.114
 7760TIP3    H247476   4.202   4.010  10.188
 7761TIP3   OH247477   4.626   4.051  10.348
 7761TIP3    H147478   4.664   3.983  10.403
 7761TIP3    H247479   4.650   4.134  10.391
 7762TIP3   OH247480   4.798   5.551  10.154
 7762TIP3    H147481   4.891   5.567  10.166
 7762TIP3    H247482   4.793   5.492  10.079
 7763TIP3   OH247483   5.499   5.469  10.465
 7763TIP3    H147484   5.474   5.382  10.433
 7763TIP3    H247485   5.480   5.527  10.391
 7764TIP3   OH247486   4.052   3.877  11.597
 7764TIP3    H147487   3.992   3.810  11.630
 7764TIP3    H247488   4.127   3.874  11.658
 7765TIP3   OH247489   4.234   3.840  11.804
 7765TIP3    H147490   4.329   3.834  11.794
 7765TIP3    H247491   4.208   3.756  11.840
 7766TIP3   OH247492   4.165   5.565  10.138
 7766TIP3    H147493   4.091   5.544  10.195
 7766TIP3    H247494   4.224   5.491  10.147
 7767TIP3   OH247495   5.116   3.760  11.784
 7767TIP3    H147496   5.105   3.710  11.865
 7767TIP3    H247497   5.210   3.752  11.764
 7768TIP3   OH247498   5.405   5.376  11.665
 7768TIP3    H147499   5.344   5.367  11.591
 7768TIP3    H247500   5.393   5.467  11.695
 7769TIP3   OH247501   6.868   4.780  10.668
 7769TIP3    H147502   6.852   4.874  10.676
 7769TIP3    H247503   6.802   4.750  10.605
 7770TIP3   OH247504   6.720   4.682  11.020
 7770TIP3    H147505   6.751   4.645  11.103
 7770TIP3    H247506   6.674   4.609  10.977
 7771TIP3   OH247507   5.960   4.633  11.170
 7771TIP3    H147508   5.964   4.545  11.208
 7771TIP3    H247509   6.030   4.681  11.215
 7772TIP3   OH247510   7.132   4.990  10.855
 7772TIP3    H147511   7.091   4.918  10.903
 7772TIP3    H247512   7.145   5.059  10.921
 7773TIP3   OH247513   6.092   5.103  10.980
 7773TIP3    H147514   6.062   5.014  10.962
 7773TIP3    H247515   6.186   5.094  10.995
 7774TIP3   OH247516   5.745   4.432  10.546
 7774TIP3    H147517   5.708   4.515  10.577
 7774TIP3    H247518   5.694   4.411  10.468
 7775TIP3   OH247519   5.793   4.678  10.800
 7775TIP3    H147520   5.824   4.589  10.821
 7775TIP3    H247521   5.872   4.727  10.780
 7776TIP3   OH247522   6.827   5.491  10.886
 7776TIP3    H147523   6.867   5.421  10.834
 7776TIP3    H247524   6.785   5.446  10.959
 7777TIP3   OH247525   6.578   4.928  11.060
 7777TIP3    H147526   6.615   4.849  11.021
 7777TIP3    H247527   6.644   4.956  11.124
 7778TIP3   OH247528   7.441   4.089  11.109
 7778TIP3    H147529   7.457   4.141  11.188
 7778TIP3    H247530   7.477   4.141  11.038
 7779TIP3   OH247531   6.925   4.364  11.083
 7779TIP3    H147532   6.939   4.270  11.095
 7779TIP3    H247533   6.904   4.373  10.990
 7780TIP3   OH247534   6.245   4.146  10.781
 7780TIP3    H147535   6.248   4.232  10.738
 7780TIP3    H247536   6.187   4.094  10.726
 7781TIP3   OH247537   6.998   4.212  10.641
 7781TIP3    H147538   7.040   4.175  10.719
 7781TIP3    H247539   7.069   4.252  10.592
 7782TIP3   OH247540   5.893   4.428  10.868
 7782TIP3    H147541   5.958   4.385  10.924
 7782TIP3    H247542   5.908   4.390  10.782
 7783TIP3   OH247543   6.375   4.551  10.819
 7783TIP3    H147544   6.456   4.510  10.848
 7783TIP3    H247545   6.332   4.485  10.764
 7784TIP3   OH247546   7.456   4.216  11.351
 7784TIP3    H147547   7.393   4.288  11.341
 7784TIP3    H247548   7.515   4.246  11.421
 7785TIP3   OH247549   6.116   4.088  11.210
 7785TIP3    H147550   6.080   4.142  11.140
 7785TIP3    H247551   6.046   4.082  11.274
 7786TIP3   OH247552   6.825   5.037  10.547
 7786TIP3    H147553   6.810   5.027  10.453
 7786TIP3    H247554   6.774   5.114  10.571
 7787TIP3   OH247555   6.345   4.850  11.184
 7787TIP3    H147556   6.294   4.923  11.219
 7787TIP3    H247557   6.419   4.892  11.141
 7788TIP3   OH247558   7.123   4.147  10.874
 7788TIP3    H147559   7.066   4.107  10.939
 7788TIP3    H247560   7.181   4.204  10.924
 7789TIP3   OH247561   6.078   4.247  10.983
 7789TIP3    H147562   6.138   4.299  11.036
 7789TIP3    H247563   6.133   4.205  10.918
 7790TIP3   OH247564   6.212   5.070  11.290
 7790TIP3    H147565   6.214   5.162  11.265
 7790TIP3    H247566   6.124   5.057  11.326
 7791TIP3   OH247567   5.783   5.007  10.401
 7791TIP3    H147568   5.774   5.055  10.318
 7791TIP3    H247569   5.807   5.074  10.465
 7792TIP3   OH247570   7.161   5.185  11.054
 7792TIP3    H147571   7.070   5.185  11.082
 7792TIP3    H247572   7.181   5.277  11.036
 7793TIP3   OH247573   7.187   3.978  11.199
 7793TIP3    H147574   7.111   4.023  11.161
 7793TIP3    H247575   7.263   4.020  11.158
 7794TIP3   OH247576   6.469   3.781  10.954
 7794TIP3    H147577   6.437   3.692  10.964
 7794TIP3    H247578   6.395   3.837  10.979
 7795TIP3   OH247579   6.963   5.332  10.701
 7795TIP3    H147580   7.000   5.247  10.678
 7795TIP3    H247581   7.038   5.392  10.701
 7796TIP3   OH247582   7.089   5.104  10.608
 7796TIP3    H147583   7.007   5.062  10.580
 7796TIP3    H247584   7.113   5.057  10.688
 7797TIP3   OH247585   7.259   4.981  11.413
 7797TIP3    H147586   7.254   4.928  11.333
 7797TIP3    H247587   7.273   5.070  11.381
 7798TIP3   OH247588   6.730   4.712  10.433
 7798TIP3    H147589   6.660   4.774  10.416
 7798TIP3    H247590   6.781   4.711  10.352
 7799TIP3   OH247591   6.748   4.542  10.126
 7799TIP3    H147592   6.823   4.581  10.170
 7799TIP3    H247593   6.775   4.452  10.107
 7800TIP3   OH247594   7.395   4.626  11.243
 7800TIP3    H147595   7.336   4.698  11.226
 7800TIP3    H247596   7.458   4.628  11.172
 7801TIP3   OH247597   7.080   4.733  10.503
 7801TIP3    H147598   7.010   4.755  10.565
 7801TIP3    H247599   7.137   4.673  10.551
 7802TIP3   OH247600   7.034   4.525  11.433
 7802TIP3    H147601   7.035   4.599  11.494
 7802TIP3    H247602   6.969   4.549  11.367
 7803TIP3   OH247603   6.227   4.754  10.698
 7803TIP3    H147604   6.196   4.720  10.614
 7803TIP3    H247605   6.281   4.684  10.734
 7804TIP3   OH247606   6.376   5.114  10.962
 7804TIP3    H147607   6.370   5.113  10.866
 7804TIP3    H247608   6.447   5.053  10.982
 7805TIP3   OH247609   6.242   4.636  11.047
 7805TIP3    H147610   6.295   4.620  10.968
 7805TIP3    H247611   6.283   4.711  11.089
 7806TIP3   OH247612   6.910   5.185  11.155
 7806TIP3    H147613   6.887   5.258  11.212
 7806TIP3    H247614   6.861   5.111  11.191
 7807TIP3   OH247615   6.373   5.095  11.517
 7807TIP3    H147616   6.312   5.151  11.565
 7807TIP3    H247617   6.327   5.074  11.435
 7808TIP3   OH247618   6.969   4.649  10.266
 7808TIP3    H147619   7.004   4.685  10.347
 7808TIP3    H247620   7.025   4.685  10.197
 7809TIP3   OH247621   6.053   4.703  11.453
 7809TIP3    H147622   6.056   4.778  11.513
 7809TIP3    H247623   5.962   4.675  11.455
 7810TIP3   OH247624   6.715   5.292  10.581
 7810TIP3    H147625   6.790   5.318  10.635
 7810TIP3    H247626   6.682   5.374  10.545
 7811TIP3   OH247627   6.182   5.269  11.613
 7811TIP3    H147628   6.181   5.306  11.524
 7811TIP3    H247629   6.090   5.257  11.635
 7812TIP3   OH247630   7.322   3.780  10.241
 7812TIP3    H147631   7.230   3.786  10.266
 7812TIP3    H247632   7.355   3.870  10.248
 7813TIP3   OH247633   6.139   4.665  10.442
 7813TIP3    H147634   6.083   4.729  10.398
 7813TIP3    H247635   6.104   4.580  10.415
 7814TIP3   OH247636   7.484   5.238  10.140
 7814TIP3    H147637   7.494   5.333  10.133
 7814TIP3    H247638   7.574   5.205  10.133
 7815TIP3   OH247639   5.754   4.907  11.341
 7815TIP3    H147640   5.719   4.898  11.253
 7815TIP3    H247641   5.772   4.817  11.369
 7816TIP3   OH247642   5.739   5.194  11.009
 7816TIP3    H147643   5.831   5.169  11.021
 7816TIP3    H247644   5.720   5.253  11.082
 7817TIP3   OH247645   7.530   5.259  11.593
 7817TIP3    H147646   7.528   5.164  11.601
 7817TIP3    H247647   7.449   5.289  11.635
 7818TIP3   OH247648   6.622   5.209  11.489
 7818TIP3    H147649   6.623   5.293  11.535
 7818TIP3    H247650   6.534   5.175  11.504
 7819TIP3   OH247651   6.688   5.554  10.450
 7819TIP3    H147652   6.665   5.570  10.359
 7819TIP3    H247653   6.664   5.635  10.495
 7820TIP3   OH247654   6.031   5.438  10.665
 7820TIP3    H147655   6.057   5.411  10.753
 7820TIP3    H247656   5.971   5.370  10.636
 7821TIP3   OH247657   6.957   5.548  10.176
 7821TIP3    H147658   6.995   5.475  10.127
 7821TIP3    H247659   6.969   5.524  10.268
 7822TIP3   OH247660   6.954   5.486  10.444
 7822TIP3    H147661   6.860   5.498  10.455
 7822TIP3    H247662   6.978   5.421  10.511
 7823TIP3   OH247663   7.214   4.389  11.640
 7823TIP3    H147664   7.135   4.418  11.593
 7823TIP3    H247665   7.216   4.294  11.625
 7824TIP3   OH247666   5.962   5.073  11.407
 7824TIP3    H147667   5.981   5.042  11.495
 7824TIP3    H247668   5.888   5.020  11.377
 7825TIP3   OH247669   6.233   3.911  11.026
 7825TIP3    H147670   6.150   3.893  10.980
 7825TIP3    H247671   6.210   3.977  11.092
 7826TIP3   OH247672   6.719   3.857  11.371
 7826TIP3    H147673   6.760   3.811  11.445
 7826TIP3    H247674   6.625   3.849  11.387
 7827TIP3   OH247675   6.998   4.246  11.458
 7827TIP3    H147676   6.940   4.226  11.532
 7827TIP3    H247677   6.990   4.340  11.445
 7828TIP3   OH247678   7.128   4.769  10.078
 7828TIP3    H147679   7.072   4.818  10.017
 7828TIP3    H247680   7.173   4.837  10.129
 7829TIP3   OH247681   6.663   4.146  10.120
 7829TIP3    H147682   6.621   4.111  10.199
 7829TIP3    H247683   6.595   4.142  10.053
 7830TIP3   OH247684   6.241   4.386  11.156
 7830TIP3    H147685   6.174   4.387  11.224
 7830TIP3    H247686   6.241   4.476  11.122
 7831TIP3   OH247687   6.233   4.385  10.651
 7831TIP3    H147688   6.138   4.376  10.644
 7831TIP3    H247689   6.266   4.365  10.564
 7832TIP3   OH247690   6.792   4.463  10.544
 7832TIP3    H147691   6.764   4.548  10.509
 7832TIP3    H247692   6.855   4.431  10.480
 7833TIP3   OH247693   6.673   4.449  11.666
 7833TIP3    H147694   6.630   4.371  11.701
 7833TIP3    H247695   6.755   4.455  11.715
 7834TIP3   OH247696   6.877   4.408  10.812
 7834TIP3    H147697   6.840   4.475  10.754
 7834TIP3    H247698   6.902   4.337  10.753
 7835TIP3   OH247699   6.006   4.390  11.310
 7835TIP3    H147700   6.035   4.427  11.393
 7835TIP3    H247701   5.971   4.304  11.332
 7836TIP3   OH247702   6.357   4.136  10.027
 7836TIP3    H147703   6.321   4.118  10.115
 7836TIP3    H247704   6.280   4.144   9.971
 7837TIP3   OH247705   5.686   4.108  10.740
 7837TIP3    H147706   5.737   4.119  10.820
 7837TIP3    H247707   5.751   4.104  10.670
 7838TIP3   OH247708   5.771   4.193  10.258
 7838TIP3    H147709   5.854   4.225  10.222
 7838TIP3    H247710   5.721   4.272  10.277
 7839TIP3   OH247711   6.824   4.554  11.247
 7839TIP3    H147712   6.865   4.489  11.189
 7839TIP3    H247713   6.760   4.504  11.297
 7840TIP3   OH247714   6.532   4.116  10.743
 7840TIP3    H147715   6.440   4.120  10.770
 7840TIP3    H247716   6.578   4.087  10.821
 7841TIP3   OH247717   5.972   4.306  10.631
 7841TIP3    H147718   5.892   4.337  10.589
 7841TIP3    H247719   5.981   4.216  10.602
 7842TIP3   OH247720   6.326   4.315  10.406
 7842TIP3    H147721   6.421   4.327  10.412
 7842TIP3    H247722   6.299   4.371  10.333
 7843TIP3   OH247723   6.934   4.078  11.073
 7843TIP3    H147724   6.885   4.088  11.154
 7843TIP3    H247725   6.871   4.039  11.012
 7844TIP3   OH247726   6.209   4.452  10.203
 7844TIP3    H147727   6.126   4.421  10.166
 7844TIP3    H247728   6.260   4.482  10.128
 7845TIP3   OH247729   7.263   5.620  11.741
 7845TIP3    H147730   7.289   5.662  11.659
 7845TIP3    H247731   7.339   5.627  11.798
 7846TIP3   OH247732   5.999   4.920  11.643
 7846TIP3    H147733   6.067   4.918  11.710
 7846TIP3    H247734   5.918   4.897  11.689
 7847TIP3   OH247735   6.603   4.430  10.931
 7847TIP3    H147736   6.683   4.389  10.897
 7847TIP3    H247737   6.573   4.370  11.000
 7848TIP3   OH247738   6.064   4.038  10.591
 7848TIP3    H147739   6.017   3.961  10.624
 7848TIP3    H247740   6.106   4.008  10.510
 7849TIP3   OH247741   6.500   4.290  11.157
 7849TIP3    H147742   6.412   4.328  11.159
 7849TIP3    H247743   6.544   4.329  11.233
 7850TIP3   OH247744   6.536   4.909  10.363
 7850TIP3    H147745   6.468   4.854  10.324
 7850TIP3    H247746   6.503   4.928  10.451
 7851TIP3   OH247747   7.254   4.847  11.171
 7851TIP3    H147748   7.306   4.896  11.107
 7851TIP3    H247749   7.172   4.829  11.125
 7852TIP3   OH247750   6.928   4.150  10.212
 7852TIP3    H147751   6.844   4.151  10.167
 7852TIP3    H247752   6.939   4.239  10.245
 7853TIP3   OH247753   6.669   4.926  11.501
 7853TIP3    H147754   6.661   4.888  11.588
 7853TIP3    H247755   6.652   5.020  11.514
 7854TIP3   OH247756   6.984   4.386  10.350
 7854TIP3    H147757   7.069   4.367  10.390
 7854TIP3    H247758   6.993   4.476  10.316
 7855TIP3   OH247759   6.063   4.830  10.913
 7855TIP3    H147760   6.119   4.813  10.837
 7855TIP3    H247761   6.080   4.759  10.973
 7856TIP3   OH247762   6.764   5.041  10.271
 7856TIP3    H147763   6.730   5.130  10.264
 7856TIP3    H247764   6.687   4.987  10.288
 7857TIP3   OH247765   5.775   4.650  11.442
 7857TIP3    H147766   5.759   4.605  11.525
 7857TIP3    H247767   5.702   4.624  11.386
 7858TIP3   OH247768   6.466   4.641  11.646
 7858TIP3    H147769   6.414   4.610  11.572
 7858TIP3    H247770   6.543   4.584  11.647
 7859TIP3   OH247771   6.906   5.171  11.487
 7859TIP3    H147772   6.813   5.178  11.467
 7859TIP3    H247773   6.913   5.204  11.577
 7860TIP3   OH247774   7.427   4.414  10.326
 7860TIP3    H147775   7.392   4.380  10.244
 7860TIP3    H247776   7.467   4.498  10.301
 7861TIP3   OH247777   7.481   4.977  11.574
 7861TIP3    H147778   7.391   4.997  11.545
 7861TIP3    H247779   7.528   4.957  11.493
 7862TIP3   OH247780   7.311   5.227  10.358
 7862TIP3    H147781   7.253   5.152  10.368
 7862TIP3    H247782   7.359   5.211  10.277
 7863TIP3   OH247783   7.038   4.773  11.009
 7863TIP3    H147784   6.943   4.767  11.003
 7863TIP3    H247785   7.070   4.692  10.970
 7864TIP3   OH247786   6.290   5.175  10.691
 7864TIP3    H147787   6.309   5.260  10.653
 7864TIP3    H247788   6.195   5.165  10.682
 7865TIP3   OH247789   5.886   4.629  10.140
 7865TIP3    H147790   5.930   4.703  10.181
 7865TIP3    H247791   5.793   4.646  10.156
 7866TIP3   OH247792   6.412   4.943  10.603
 7866TIP3    H147793   6.379   5.028  10.632
 7866TIP3    H247794   6.352   4.879  10.642
 7867TIP3   OH247795   6.498   5.364  11.279
 7867TIP3    H147796   6.557   5.435  11.253
 7867TIP3    H247797   6.550   5.307  11.335
 7868TIP3   OH247798   6.292   5.435  10.576
 7868TIP3    H147799   6.199   5.449  10.595
 7868TIP3    H247800   6.334   5.516  10.605
 7869TIP3   OH247801   6.783   4.948  11.252
 7869TIP3    H147802   6.742   4.940  11.338
 7869TIP3    H247803   6.850   4.879  11.252
 7870TIP3   OH247804   7.024   5.061  10.151
 7870TIP3    H147805   7.081   5.023  10.218
 7870TIP3    H247806   6.935   5.051  10.187
 7871TIP3   OH247807   7.110   5.376  11.444
 7871TIP3    H147808   7.029   5.326  11.438
 7871TIP3    H247809   7.097   5.450  11.384
 7872TIP3   OH247810   7.531   5.512  10.137
 7872TIP3    H147811   7.606   5.569  10.155
 7872TIP3    H247812   7.455   5.563  10.164
 7873TIP3   OH247813   5.923   4.139  11.410
 7873TIP3    H147814   5.848   4.177  11.456
 7873TIP3    H247815   5.942   4.058  11.457
 7874TIP3   OH247816   7.190   4.926  10.327
 7874TIP3    H147817   7.144   4.877  10.395
 7874TIP3    H247818   7.283   4.915  10.348
 7875TIP3   OH247819   5.896   5.320  11.251
 7875TIP3    H147820   5.921   5.236  11.292
 7875TIP3    H247821   5.910   5.385  11.320
 7876TIP3   OH247822   6.329   5.116  10.244
 7876TIP3    H147823   6.397   5.066  10.289
 7876TIP3    H247824   6.346   5.207  10.270
 7877TIP3   OH247825   5.983   4.843  10.294
 7877TIP3    H147826   5.910   4.883  10.342
 7877TIP3    H247827   6.024   4.916  10.247
 7878TIP3   OH247828   6.800   4.116  11.310
 7878TIP3    H147829   6.872   4.135  11.370
 7878TIP3    H247830   6.769   4.029  11.336
 7879TIP3   OH247831   6.887   4.027  10.458
 7879TIP3    H147832   6.899   4.066  10.371
 7879TIP3    H247833   6.919   4.095  10.518
 7880TIP3   OH247834   6.636   5.283  10.254
 7880TIP3    H147835   6.549   5.300  10.291
 7880TIP3    H247836   6.678   5.369  10.251
 7881TIP3   OH247837   6.591   4.272  10.516
 7881TIP3    H147838   6.660   4.336  10.533
 7881TIP3    H247839   6.573   4.233  10.602
 7882TIP3   OH247840   6.672   4.372  11.386
 7882TIP3    H147841   6.669   4.391  11.480
 7882TIP3    H247842   6.706   4.283  11.380
 7883TIP3   OH247843   6.647   3.928  10.563
 7883TIP3    H147844   6.619   3.994  10.627
 7883TIP3    H247845   6.733   3.959  10.533
 7884TIP3   OH247846   6.385   5.373  10.326
 7884TIP3    H147847   6.384   5.458  10.283
 7884TIP3    H247848   6.352   5.390  10.414
 7885TIP3   OH247849   6.254   4.073  10.282
 7885TIP3    H147850   6.249   4.157  10.328
 7885TIP3    H247851   6.341   4.039  10.303
 7886TIP3   OH247852   7.239   4.124  11.513
 7886TIP3    H147853   7.153   4.151  11.479
 7886TIP3    H247854   7.299   4.138  11.440
 7887TIP3   OH247855   7.119   4.527  10.899
 7887TIP3    H147856   7.032   4.490  10.880
 7887TIP3    H247857   7.161   4.462  10.955
 7888TIP3   OH247858   6.074   5.067  10.146
 7888TIP3    H147859   6.150   5.103  10.192
 7888TIP3    H247860   6.112   5.005  10.084
 7889TIP3   OH247861   5.954   4.369  10.107
 7889TIP3    H147862   5.930   4.461  10.120
 7889TIP3    H247863   5.903   4.341  10.031
 7890TIP3   OH247864   7.249   5.451  11.055
 7890TIP3    H147865   7.230   5.519  10.990
 7890TIP3    H247866   7.343   5.459  11.070
 7891TIP3   OH247867   5.974   3.861  10.944
 7891TIP3    H147868   5.957   3.837  10.853
 7891TIP3    H247869   5.944   3.785  10.994
 7892TIP3   OH247870   5.849   5.244  10.554
 7892TIP3    H147871   5.778   5.270  10.612
 7892TIP3    H247872   5.842   5.304  10.480
 7893TIP3   OH247873   5.792   5.539  11.706
 7893TIP3    H147874   5.855   5.513  11.773
 7893TIP3    H247875   5.759   5.457  11.671
 7894TIP3   OH247876   6.250   5.418  11.837
 7894TIP3    H147877   6.333   5.385  11.870
 7894TIP3    H247878   6.232   5.366  11.758
 7895TIP3   OH247879   6.679   5.350   9.979
 7895TIP3    H147880   6.631   5.291  10.038
 7895TIP3    H247881   6.765   5.308   9.969
 7896TIP3   OH247882   6.899   5.271  11.744
 7896TIP3    H147883   6.875   5.184  11.777
 7896TIP3    H247884   6.976   5.296  11.796
 7897TIP3   OH247885   7.059   5.322  10.057
 7897TIP3    H147886   7.047   5.232  10.089
 7897TIP3    H247887   7.146   5.323  10.018
 7898TIP3   OH247888   5.757   4.902  11.792
 7898TIP3    H147889   5.711   4.829  11.834
 7898TIP3    H247890   5.699   4.930  11.721
 7899TIP3   OH247891   6.239   4.874  10.042
 7899TIP3    H147892   6.260   4.825  10.122
 7899TIP3    H247893   6.321   4.920  10.021
 7900TIP3   OH247894   6.428   4.911  11.719
 7900TIP3    H147895   6.412   4.957  11.636
 7900TIP3    H247896   6.443   4.820  11.693
 7901TIP3   OH247897   7.010   4.901  11.497
 7901TIP3    H147898   7.099   4.928  11.476
 7901TIP3    H247899   6.958   4.981  11.493
 7902TIP3   OH247900   5.907   4.586  11.728
 7902TIP3    H147901   5.935   4.501  11.762
 7902TIP3    H247902   5.900   4.642  11.806
 7903TIP3   OH247903   6.346   4.740  10.263
 7903TIP3    H147904   6.284   4.701  10.325
 7903TIP3    H247905   6.382   4.665  10.215
 7904TIP3   OH247906   6.252   4.508  11.444
 7904TIP3    H147907   6.186   4.577  11.454
 7904TIP3    H247908   6.321   4.549  11.392
 7905TIP3   OH247909   6.472   4.560  10.093
 7905TIP3    H147910   6.473   4.546   9.998
 7905TIP3    H247911   6.565   4.559  10.118
 7906TIP3   OH247912   6.799   4.759  11.812
 7906TIP3    H147913   6.871   4.722  11.760
 7906TIP3    H247914   6.804   4.714  11.896
 7907TIP3   OH247915   7.349   4.735  19.975
 7907TIP3    H147916   7.400   4.656  19.957
 7907TIP3    H247917   7.409   4.807  19.958
 7908TIP3   OH247918   6.358   4.268  11.536
 7908TIP3    H147919   6.356   4.203  11.466
 7908TIP3    H247920   6.323   4.348  11.496
 7909TIP3   OH247921   6.366   4.093  11.320
 7909TIP3    H147922   6.416   4.138  11.252
 7909TIP3    H247923   6.277   4.090  11.285
 7910TIP3   OH247924   6.457   4.651  11.338
 7910TIP3    H147925   6.546   4.683  11.353
 7910TIP3    H247926   6.416   4.720  11.285
 7911TIP3   OH247927   6.901   4.422  11.829
 7911TIP3    H147928   6.917   4.333  11.858
 7911TIP3    H247929   6.973   4.473  11.866
 7912TIP3   OH247930   7.050   4.710  11.684
 7912TIP3    H147931   7.022   4.780  11.625
 7912TIP3    H247932   7.144   4.703  11.670
 7913TIP3   OH247933   6.208   4.313  11.766
 7913TIP3    H147934   6.117   4.285  11.757
 7913TIP3    H247935   6.246   4.301  11.678
 7914TIP3   OH247936   6.445   3.834  11.372
 7914TIP3    H147937   6.417   3.924  11.359
 7914TIP3    H247938   6.378   3.781  11.329
 7915TIP3   OH247939   6.553   4.203  11.725
 7915TIP3    H147940   6.495   4.192  11.800
 7915TIP3    H247941   6.494   4.217  11.651
 7916TIP3   OH247942   6.826   4.159  11.646
 7916TIP3    H147943   6.735   4.161  11.677
 7916TIP3    H247944   6.870   4.099  11.707
 7917TIP3   OH247945   6.977   4.003  11.829
 7917TIP3    H147946   6.984   3.909  11.842
 7917TIP3    H247947   6.957   4.039  11.915
 7918TIP3   OH247948   5.963   4.171  11.727
 7918TIP3    H147949   5.964   4.092  11.674
 7918TIP3    H247950   5.962   4.139  11.817
 7919TIP3   OH247951   6.427   3.770  11.641
 7919TIP3    H147952   6.477   3.689  11.637
 7919TIP3    H247953   6.417   3.797  11.550
 7920TIP3   OH247954   6.443   3.886  11.885
 7920TIP3    H147955   6.438   3.853  11.796
 7920TIP3    H247956   6.404   3.973  11.881
 7921TIP3   OH247957   6.419   5.615  10.200
 7921TIP3    H147958   6.512   5.609  10.179
 7921TIP3    H247959   6.380   5.660  10.125
 7922TIP3   OH247960   5.801   5.109  10.141
 7922TIP3    H147961   5.896   5.112  10.143
 7922TIP3    H247962   5.781   5.047  10.070
 7923TIP3   OH247963   5.681   5.589  10.629
 7923TIP3    H147964   5.623   5.550  10.563
 7923TIP3    H247965   5.699   5.517  10.690
 7924TIP3   OH247966   5.748   5.390  10.805
 7924TIP3    H147967   5.711   5.315  10.850
 7924TIP3    H247968   5.801   5.434  10.872
 7925TIP3   OH247969   7.520   5.482  11.121
 7925TIP3    H147970   7.511   5.458  11.214
 7925TIP3    H247971   7.528   5.577  11.121
 7926TIP3   OH247972   7.453   5.432  11.386
 7926TIP3    H147973   7.396   5.361  11.357
 7926TIP3    H247974   7.501   5.396  11.461
 7927TIP3   OH247975   7.308   5.034  11.869
 7927TIP3    H147976   7.225   5.046  11.913
 7927TIP3    H247977   7.362   5.108  11.897
 7928TIP3   OH247978   7.457   4.867  10.388
 7928TIP3    H147979   7.527   4.931  10.402
 7928TIP3    H247980   7.461   4.811  10.466
 7929TIP3   OH247981   7.455   4.697  10.612
 7929TIP3    H147982   7.373   4.649  10.613
 7929TIP3    H247983   7.456   4.746  10.694
 7930TIP3   OH247984   7.519   4.929  11.056
 7930TIP3    H147985   7.615   4.928  11.056
 7930TIP3    H247986   7.496   5.020  11.038
 7931TIP3   OH247987   7.290   5.228  11.298
 7931TIP3    H147988   7.220   5.274  11.344
 7931TIP3    H247989   7.254   5.211  11.211
 7932TIP3   OH247990   7.506   4.656  10.215
 7932TIP3    H147991   7.450   4.666  10.138
 7932TIP3    H247992   7.488   4.735  10.268
 7933TIP3   OH247993   7.319   4.371  10.080
 7933TIP3    H147994   7.261   4.426  10.028
 7933TIP3    H247995   7.302   4.282  10.049
 7934TIP3   OH247996   7.230   4.550  10.647
 7934TIP3    H147997   7.225   4.460  10.614
 7934TIP3    H247998   7.196   4.544  10.736
 7935TIP3   OH247999   5.745   4.757  11.059
 7935TIP3    H148000   5.750   4.737  10.966
 7935TIP3    H248001   5.827   4.723  11.095
 7936TIP3   OH248002   7.317   4.730  11.626
 7936TIP3    H148003   7.378   4.657  11.617
 7936TIP3    H248004   7.363   4.805  11.587
 7937TIP3   OH248005   7.460   4.498  11.634
 7937TIP3    H148006   7.370   4.464  11.631
 7937TIP3    H248007   7.511   4.428  11.674
 7938TIP3   OH248008   7.257   4.118  10.004
 7938TIP3    H148009   7.320   4.051  10.031
 7938TIP3    H248010   7.171   4.078  10.019
 7939TIP3   OH248011   7.221   4.312  10.488
 7939TIP3    H148012   7.237   4.218  10.492
 7939TIP3    H248013   7.294   4.347  10.437
 7940TIP3   OH248014   7.252   4.329  11.041
 7940TIP3    H148015   7.346   4.341  11.029
 7940TIP3    H248016   7.238   4.339  11.135
 7941TIP3   OH248017   7.259   4.402  11.311
 7941TIP3    H148018   7.179   4.432  11.355
 7941TIP3    H248019   7.306   4.483  11.290
 7942TIP3   OH248020   5.731   4.237  11.595
 7942TIP3    H148021   5.809   4.236  11.651
 7942TIP3    H248022   5.678   4.164  11.626
 7943TIP3   OH248023   7.544   3.799  11.832
 7943TIP3    H148024   7.621   3.758  11.791
 7943TIP3    H248025   7.524   3.874  11.775
 7944TIP3   OH248026   7.253   4.038  10.501
 7944TIP3    H148027   7.273   4.005  10.588
 7944TIP3    H248028   7.195   3.971  10.463
 7945TIP3   OH248029   5.835   4.100  10.970
 7945TIP3    H148030   5.877   4.014  10.974
 7945TIP3    H248031   5.908   4.162  10.981
 7946TIP3   OH248032   5.673   4.402  11.042
 7946TIP3    H148033   5.739   4.402  10.973
 7946TIP3    H248034   5.708   4.460  11.110
 7947TIP3   OH248035   7.445   4.000  11.677
 7947TIP3    H148036   7.372   4.046  11.717
 7947TIP3    H248037   7.413   3.974  11.590
 7948TIP3   OH248038   7.524   4.020  10.147
 7948TIP3    H148039   7.587   3.950  10.133
 7948TIP3    H248040   7.571   4.100  10.124
 7949TIP3   OH248041   5.715   4.001  10.447
 7949TIP3    H148042   5.622   4.014  10.466
 7949TIP3    H248043   5.738   4.074  10.389
 7950TIP3   OH248044   7.171   5.496  10.663
 7950TIP3    H148045   7.238   5.490  10.595
 7950TIP3    H248046   7.212   5.549  10.732
 7951TIP3   OH248047   5.695   3.861  11.278
 7951TIP3    H148048   5.638   3.862  11.355
 7951TIP3    H248049   5.653   3.922  11.217
 7952TIP3   OH248050   5.920   5.238  11.690
 7952TIP3    H148051   5.829   5.241  11.659
 7952TIP3    H248052   5.919   5.170  11.758
 7953TIP3   OH248053   6.231   5.357  11.353
 7953TIP3    H148054   6.206   5.442  11.317
 7953TIP3    H248055   6.326   5.353  11.340
 7954TIP3   OH248056   6.627   5.462  11.602
 7954TIP3    H148057   6.633   5.442  11.695
 7954TIP3    H248058   6.707   5.512  11.583
 7955TIP3   OH248059   6.860   5.606  11.568
 7955TIP3    H148060   6.926   5.547  11.533
 7955TIP3    H248061   6.894   5.631  11.654
 7956TIP3   OH248062   7.344   3.811  11.468
 7956TIP3    H148063   7.265   3.833  11.419
 7956TIP3    H248064   7.369   3.724  11.436
 7957TIP3   OH248065   5.949   5.649  11.344
 7957TIP3    H148066   5.866   5.684  11.310
 7957TIP3    H248067   5.952   5.681  11.434
 7958TIP3   OH248068   6.202   5.609  11.245
 7958TIP3    H148069   6.112   5.625  11.273
 7958TIP3    H248070   6.209   5.656  11.161
 7959TIP3   OH248071   6.659   5.564  11.162
 7959TIP3    H148072   6.607   5.600  11.090
 7959TIP3    H248073   6.676   5.639  11.219
 7960TIP3   OH248074   6.875   5.436  11.277
 7960TIP3    H148075   6.796   5.474  11.239
 7960TIP3    H248076   6.944   5.500  11.260
 7961TIP3   OH248077   7.111   5.587  11.254
 7961TIP3    H148078   7.126   5.680  11.233
 7961TIP3    H248079   7.157   5.540  11.185
 7962TIP3   OH248080   5.903   5.486  11.026
 7962TIP3    H148081   5.895   5.436  11.108
 7962TIP3    H248082   5.983   5.452  10.986
 7963TIP3   OH248083   6.122   5.368  10.916
 7963TIP3    H148084   6.107   5.276  10.938
 7963TIP3    H248085   6.210   5.387  10.948
 7964TIP3   OH248086   6.382   5.389  11.023
 7964TIP3    H148087   6.390   5.297  10.995
 7964TIP3    H248088   6.410   5.388  11.114
 7965TIP3   OH248089   6.701   3.967  10.915
 7965TIP3    H148090   6.635   3.900  10.933
 7965TIP3    H248091   6.773   3.919  10.874
 7966TIP3   OH248092   7.196   3.783  10.894
 7966TIP3    H148093   7.250   3.849  10.851
 7966TIP3    H248094   7.107   3.815  10.883
 7967TIP3   OH248095   7.359   3.927  10.730
 7967TIP3    H148096   7.418   3.857  10.701
 7967TIP3    H248097   7.416   4.003  10.740
 7968TIP3   OH248098   5.940   3.805  10.673
 7968TIP3    H148099   5.849   3.791  10.648
 7968TIP3    H248100   5.981   3.720  10.662
 7969TIP3   OH248101   5.822   3.813  10.269
 7969TIP3    H148102   5.884   3.873  10.227
 7969TIP3    H248103   5.782   3.866  10.339
 7970TIP3   OH248104   6.411   3.781  10.664
 7970TIP3    H148105   6.481   3.833  10.623
 7970TIP3    H248106   6.426   3.791  10.758
 7971TIP3   OH248107   6.928   3.838  10.813
 7971TIP3    H148108   6.947   3.828  10.720
 7971TIP3    H248109   6.893   3.753  10.841
 7972TIP3   OH248110   7.092   3.839  10.404
 7972TIP3    H148111   7.013   3.893  10.405
 7972TIP3    H248112   7.062   3.751  10.426
 7973TIP3   OH248113   5.822   5.428  10.355
 7973TIP3    H148114   5.749   5.411  10.296
 7973TIP3    H248115   5.827   5.524  10.361
 7974TIP3   OH248116   6.028   3.957  10.147
 7974TIP3    H148117   6.058   3.869  10.124
 7974TIP3    H248118   6.103   3.997  10.191
 7975TIP3   OH248119   6.528   4.062  10.349
 7975TIP3    H148120   6.560   3.992  10.406
 7975TIP3    H248121   6.544   4.143  10.398
 7976TIP3   OH248122   6.685   5.558  10.159
 7976TIP3    H148123   6.779   5.579  10.161
 7976TIP3    H248124   6.675   5.502  10.083
 7977TIP3   OH248125   7.352   5.478  10.452
 7977TIP3    H148126   7.339   5.387  10.425
 7977TIP3    H248127   7.342   5.528  10.370
 7978TIP3   OH248128   5.957   3.928  11.591
 7978TIP3    H148129   5.937   3.848  11.542
 7978TIP3    H248130   6.009   3.898  11.665
 7979TIP3   OH248131   6.107   3.792  11.783
 7979TIP3    H148132   6.203   3.789  11.790
 7979TIP3    H248133   6.086   3.725  11.718
 7980TIP3   OH248134   6.049   5.568  10.138
 7980TIP3    H148135   5.966   5.562  10.186
 7980TIP3    H248136   6.081   5.478  10.136
 7981TIP3   OH248137   7.025   3.722  11.840
 7981TIP3    H148138   7.032   3.630  11.866
 7981TIP3    H248139   7.111   3.743  11.803
 7982TIP3   OH248140   7.280   5.355  11.666
 7982TIP3    H148141   7.220   5.351  11.591
 7982TIP3    H248142   7.273   5.445  11.697
 7983TIP3   OH248143   7.567   4.442  10.561
 7983TIP3    H148144   7.528   4.526  10.585
 7983TIP3    H248145   7.515   4.411  10.487
 7984TIP3   OH248146   7.576   4.882  11.335
 7984TIP3    H148147   7.528   4.888  11.253
 7984TIP3    H248148   7.572   4.789  11.358
 7985TIP3   OH248149   7.541   5.198  11.026
 7985TIP3    H148150   7.636   5.204  11.018
 7985TIP3    H248151   7.517   5.272  11.082
 7986TIP3   OH248152   7.531   4.135  10.698
 7986TIP3    H148153   7.610   4.185  10.722
 7986TIP3    H248154   7.532   4.133  10.602
 7987TIP3   OH248155   7.593   4.619  11.429
 7987TIP3    H148156   7.564   4.582  11.512
 7987TIP3    H248157   7.522   4.599  11.368
 7988TIP3   OH248158   7.635   4.821  11.740
 7988TIP3    H148159   7.586   4.788  11.815
 7988TIP3    H248160   7.574   4.880  11.695
 7989TIP3   OH248161   7.508   5.593  10.639
 7989TIP3    H148162   7.456   5.554  10.569
 7989TIP3    H248163   7.516   5.524  10.705
 7990TIP3   OH248164   7.534   5.398  10.827
 7990TIP3    H148165   7.504   5.309  10.841
 7990TIP3    H248166   7.551   5.432  10.915
 7991TIP3   OH248167   7.581   4.664  11.048
 7991TIP3    H148168   7.541   4.749  11.030
 7991TIP3    H248169   7.675   4.682  11.054
 7992TIP3   OH248170   7.553   4.256  11.703
 7992TIP3    H148171   7.642   4.245  11.669
 7992TIP3    H248172   7.518   4.167  11.705
 7993TIP3   OH248173   7.521   4.387  11.031
 7993TIP3    H148174   7.613   4.361  11.023
 7993TIP3    H248175   7.524   4.483  11.033
 7994TIP3   OH248176   7.512   4.070  10.423
 7994TIP3    H148177   7.421   4.057  10.447
 7994TIP3    H248178   7.514   4.062  10.327
 7995TIP3   OH248179   7.501   3.849  11.227
 7995TIP3    H148180   7.452   3.858  11.309
 7995TIP3    H248181   7.474   3.925  11.175
 7996TIP3   OH248182   1.219   6.654  10.672
 7996TIP3    H148183   1.213   6.749  10.683
 7996TIP3    H248184   1.152   6.635  10.606
 7997TIP3   OH248185   1.093   6.562  11.020
 7997TIP3    H148186   1.102   6.527  11.108
 7997TIP3    H248187   1.045   6.495  10.972
 7998TIP3   OH248188   0.311   6.521  11.164
 7998TIP3    H148189   0.313   6.446  11.223
 7998TIP3    H248190   0.403   6.537  11.142
 7999TIP3   OH248191   1.441   6.854  10.865
 7999TIP3    H148192   1.418   6.775  10.914
 7999TIP3    H248193   1.466   6.917  10.932
 8000TIP3   OH248194   0.383   6.956  11.050
 8000TIP3    H148195   0.382   6.873  11.001
 8000TIP3    H248196   0.474   6.985  11.044
 8001TIP3   OH248197   0.145   6.363  10.520
 8001TIP3    H148198   0.147   6.428  10.590
 8001TIP3    H248199   0.059   6.321  10.529
 8002TIP3   OH248200   0.122   6.544  10.810
 8002TIP3    H148201   0.168   6.463  10.834
 8002TIP3    H248202   0.186   6.593  10.758
 8003TIP3   OH248203   1.157   7.303  10.842
 8003TIP3    H148204   1.240   7.261  10.820
 8003TIP3    H248205   1.137   7.271  10.930
 8004TIP3   OH248206   0.943   6.820  11.035
 8004TIP3    H148207   0.983   6.745  10.991
 8004TIP3    H248208   1.008   6.847  11.100
 8005TIP3   OH248209   1.798   5.944  11.104
 8005TIP3    H148210   1.797   6.008  11.175
 8005TIP3    H248211   1.871   5.970  11.049
 8006TIP3   OH248212   1.260   6.252  11.093
 8006TIP3    H148213   1.284   6.162  11.112
 8006TIP3    H248214   1.238   6.252  11.000
 8007TIP3   OH248215   0.588   6.037  10.785
 8007TIP3    H148216   0.606   6.121  10.742
 8007TIP3    H248217   0.534   5.989  10.722
 8008TIP3   OH248218   1.340   6.085  10.642
 8008TIP3    H148219   1.390   6.040  10.710
 8008TIP3    H248220   1.405   6.132  10.591
 8009TIP3   OH248221   0.272   6.316  10.850
 8009TIP3    H148222   0.331   6.266  10.906
 8009TIP3    H248223   0.283   6.277  10.763
 8010TIP3   OH248224   0.717   6.444  10.836
 8010TIP3    H148225   0.803   6.412  10.863
 8010TIP3    H248226   0.686   6.380  10.772
 8011TIP3   OH248227   1.798   6.097  11.330
 8011TIP3    H148228   1.751   6.181  11.330
 8011TIP3    H248229   1.857   6.102  11.405
 8012TIP3   OH248230   0.473   5.970  11.204
 8012TIP3    H148231   0.441   6.024  11.132
 8012TIP3    H248232   0.406   5.978  11.272
 8013TIP3   OH248233   1.180   6.922  10.562
 8013TIP3    H148234   1.161   6.919  10.468
 8013TIP3    H248235   1.138   7.002  10.592
 8014TIP3   OH248236   0.735   6.721  11.183
 8014TIP3    H148237   0.691   6.791  11.230
 8014TIP3    H248238   0.805   6.764  11.134
 8015TIP3   OH248239   1.505   5.999  10.844
 8015TIP3    H148240   1.449   5.975  10.917
 8015TIP3    H248241   1.583   6.038  10.886
 8016TIP3   OH248242   0.430   6.136  10.988
 8016TIP3    H148243   0.493   6.187  11.039
 8016TIP3    H248244   0.482   6.093  10.921
 8017TIP3   OH248245   0.598   6.920  11.315
 8017TIP3    H148246   0.585   7.014  11.305
 8017TIP3    H248247   0.522   6.890  11.365
 8018TIP3   OH248248   0.099   6.851  10.389
 8018TIP3    H148249   0.104   6.887  10.300
 8018TIP3    H248250   0.128   6.922  10.446
 8019TIP3   OH248251   1.495   7.078  11.068
 8019TIP3    H148252   1.401   7.076  11.082
 8019TIP3    H248253   1.512   7.164  11.028
 8020TIP3   OH248254   1.535   5.845  11.186
 8020TIP3    H148255   1.465   5.895  11.144
 8020TIP3    H248256   1.616   5.880  11.148
 8021TIP3   OH248257   0.821   5.654  10.955
 8021TIP3    H148258   0.788   5.564  10.962
 8021TIP3    H248259   0.748   5.708  10.985
 8022TIP3   OH248260   1.393   7.206  10.749
 8022TIP3    H148261   1.418   7.122  10.711
 8022TIP3    H248262   1.440   7.272  10.697
 8023TIP3   OH248263   1.451   6.967  10.615
 8023TIP3    H148264   1.363   6.945  10.584
 8023TIP3    H248265   1.460   6.919  10.697
 8024TIP3   OH248266   1.622   6.865  11.423
 8024TIP3    H148267   1.615   6.808  11.346
 8024TIP3    H248268   1.630   6.953  11.388
 8025TIP3   OH248269   1.076   6.596  10.439
 8025TIP3    H148270   1.009   6.661  10.416
 8025TIP3    H248271   1.139   6.601  10.367
 8026TIP3   OH248272   1.090   6.428  10.134
 8026TIP3    H148273   1.161   6.475  10.179
 8026TIP3    H248274   1.121   6.337  10.130
 8027TIP3   OH248275   1.799   6.536  11.261
 8027TIP3    H148276   1.724   6.595  11.250
 8027TIP3    H248277   1.854   6.554  11.185
 8028TIP3   OH248278   1.432   6.594  10.512
 8028TIP3    H148279   1.366   6.616  10.578
 8028TIP3    H248280   1.497   6.541  10.560
 8029TIP3   OH248281   1.390   6.411  11.428
 8029TIP3    H148282   1.391   6.486  11.487
 8029TIP3    H248283   1.327   6.434  11.360
 8030TIP3   OH248284   0.584   6.649  10.699
 8030TIP3    H148285   0.535   6.607  10.628
 8030TIP3    H248286   0.634   6.578  10.738
 8031TIP3   OH248287   0.711   6.987  10.968
 8031TIP3    H148288   0.700   6.987  10.873
 8031TIP3    H248289   0.788   6.932  10.983
 8032TIP3   OH248290   0.578   6.536  11.058
 8032TIP3    H148291   0.629   6.508  10.982
 8032TIP3    H248292   0.636   6.597  11.104
 8033TIP3   OH248293   1.230   7.077  11.131
 8033TIP3    H148294   1.222   7.144  11.199
 8033TIP3    H248295   1.195   6.997  11.171
 8034TIP3   OH248296   0.729   6.987  11.553
 8034TIP3    H148297   0.656   7.038  11.588
 8034TIP3    H248298   0.696   6.954  11.469
 8035TIP3   OH248299   1.311   6.539  10.275
 8035TIP3    H148300   1.352   6.565  10.357
 8035TIP3    H248301   1.369   6.572  10.207
 8036TIP3   OH248302   0.444   6.599  11.458
 8036TIP3    H148303   0.447   6.652  11.537
 8036TIP3    H248304   0.352   6.572  11.450
 8037TIP3   OH248305   1.072   7.177  10.606
 8037TIP3    H148306   1.087   7.224  10.688
 8037TIP3    H248307   1.012   7.232  10.556
 8038TIP3   OH248308   0.505   7.139  11.614
 8038TIP3    H148309   0.499   7.170  11.523
 8038TIP3    H248310   0.415   7.130  11.643
 8039TIP3   OH248311   1.684   5.681  10.275
 8039TIP3    H148312   1.599   5.701  10.314
 8039TIP3    H248313   1.719   5.766  10.249
 8040TIP3   OH248314   0.432   6.538  10.497
 8040TIP3    H148315   0.402   6.596  10.428
 8040TIP3    H248316   0.394   6.453  10.475
 8041TIP3   OH248317   1.792   7.108  10.116
 8041TIP3    H148318   1.818   7.199  10.106
 8041TIP3    H248319   1.875   7.060  10.122
 8042TIP3   OH248320   0.156   6.778  11.343
 8042TIP3    H148321   0.060   6.782  11.338
 8042TIP3    H248322   0.175   6.686  11.364
 8043TIP3   OH248323   0.119   7.089  10.984
 8043TIP3    H148324   0.195   7.032  10.973
 8043TIP3    H248325   0.156   7.171  11.018
 8044TIP3   OH248326   1.871   7.136  11.635
 8044TIP3    H148327   1.855   7.043  11.624
 8044TIP3    H248328   1.788   7.171  11.666
 8045TIP3   OH248329   0.979   7.083  11.496
 8045TIP3    H148330   0.988   7.169  11.538
 8045TIP3    H248331   0.891   7.054  11.521
 8046TIP3   OH248332   1.060   7.498  10.455
 8046TIP3    H148333   1.042   7.505  10.361
 8046TIP3    H248334   1.039   7.585  10.490
 8047TIP3   OH248335   0.403   7.313  10.653
 8047TIP3    H148336   0.436   7.302  10.742
 8047TIP3    H248337   0.313   7.281  10.657
 8048TIP3   OH248338   1.329   7.393  10.201
 8048TIP3    H148339   1.373   7.333  10.141
 8048TIP3    H248340   1.319   7.341  10.282
 8049TIP3   OH248341   1.264   7.315  10.452
 8049TIP3    H148342   1.195   7.380  10.465
 8049TIP3    H248343   1.238   7.241  10.506
 8050TIP3   OH248344   1.577   6.273  11.622
 8050TIP3    H148345   1.501   6.303  11.572
 8050TIP3    H248346   1.571   6.178  11.619
 8051TIP3   OH248347   0.365   6.906  11.455
 8051TIP3    H148348   0.400   6.895  11.543
 8051TIP3    H248349   0.292   6.843  11.450
 8052TIP3   OH248350   0.590   5.783  11.036
 8052TIP3    H148351   0.512   5.777  10.980
 8052TIP3    H248352   0.569   5.853  11.098
 8053TIP3   OH248353   1.053   5.743  11.363
 8053TIP3    H148354   1.096   5.703  11.438
 8053TIP3    H248355   0.959   5.736  11.382
 8054TIP3   OH248356   1.341   6.130  11.472
 8054TIP3    H148357   1.278   6.114  11.542
 8054TIP3    H248358   1.337   6.225  11.457
 8055TIP3   OH248359   1.487   6.642  10.090
 8055TIP3    H148360   1.444   6.693  10.021
 8055TIP3    H248361   1.519   6.708  10.152
 8056TIP3   OH248362   1.006   6.028  10.124
 8056TIP3    H148363   0.960   5.991  10.199
 8056TIP3    H248364   0.943   6.026  10.053
 8057TIP3   OH248365   0.592   6.278  11.159
 8057TIP3    H148366   0.526   6.278  11.228
 8057TIP3    H248367   0.597   6.369  11.131
 8058TIP3   OH248368   0.615   6.273  10.650
 8058TIP3    H148369   0.520   6.272  10.638
 8058TIP3    H248370   0.650   6.246  10.565
 8059TIP3   OH248371   1.130   6.341  10.543
 8059TIP3    H148372   1.105   6.429  10.515
 8059TIP3    H248373   1.194   6.312  10.478
 8060TIP3   OH248374   1.049   6.343  11.672
 8060TIP3    H148375   0.998   6.270  11.708
 8060TIP3    H248376   1.135   6.334  11.714
 8061TIP3   OH248377   1.216   6.271  10.818
 8061TIP3    H148378   1.193   6.340  10.755
 8061TIP3    H248379   1.242   6.197  10.763
 8062TIP3   OH248380   0.355   6.283  11.310
 8062TIP3    H148381   0.361   6.318  11.399
 8062TIP3    H248382   0.320   6.195  11.321
 8063TIP3   OH248383   0.664   6.060  10.050
 8063TIP3    H148384   0.642   6.020  10.135
 8063TIP3    H248385   0.579   6.067  10.005
 8064TIP3   OH248386   0.131   6.052  10.700
 8064TIP3    H148387   0.144   6.019  10.789
 8064TIP3    H248388   0.144   5.976  10.644
 8065TIP3   OH248389   0.112   6.098  10.251
 8065TIP3    H148390   0.196   6.126  10.215
 8065TIP3    H248391   0.075   6.177  10.291
 8066TIP3   OH248392   1.130   6.423  11.259
 8066TIP3    H148393   1.180   6.366  11.201
 8066TIP3    H248394   1.086   6.363  11.319
 8067TIP3   OH248395   0.877   6.007  10.741
 8067TIP3    H148396   0.788   6.010  10.775
 8067TIP3    H248397   0.929   5.970  10.813
 8068TIP3   OH248398   0.357   6.216  10.603
 8068TIP3    H148399   0.277   6.245  10.561
 8068TIP3    H248400   0.354   6.121  10.599
 8069TIP3   OH248401   0.677   6.187  10.399
 8069TIP3    H148402   0.772   6.196  10.409
 8069TIP3    H248403   0.654   6.254  10.334
 8070TIP3   OH248404   1.299   5.959  11.050
 8070TIP3    H148405   1.254   5.962  11.135
 8070TIP3    H248406   1.234   5.924  10.990
 8071TIP3   OH248407   0.579   6.356  10.209
 8071TIP3    H148408   0.500   6.321  10.169
 8071TIP3    H248409   0.641   6.366  10.137
 8072TIP3   OH248410   1.560   7.535  11.696
 8072TIP3    H148411   1.585   7.549  11.605
 8072TIP3    H248412   1.640   7.551  11.746
 8073TIP3   OH248413   0.424   6.771  11.686
 8073TIP3    H148414   0.484   6.780  11.761
 8073TIP3    H248415   0.336   6.774  11.726
 8074TIP3   OH248416   0.953   6.324  10.930
 8074TIP3    H148417   1.030   6.284  10.891
 8074TIP3    H248418   0.926   6.263  10.999
 8075TIP3   OH248419   0.419   5.942  10.582
 8075TIP3    H148420   0.379   5.860  10.610
 8075TIP3    H248421   0.441   5.927  10.490
 8076TIP3   OH248422   0.854   6.178  11.159
 8076TIP3    H148423   0.768   6.220  11.163
 8076TIP3    H248424   0.900   6.210  11.236
 8077TIP3   OH248425   0.883   6.793  10.362
 8077TIP3    H148426   0.816   6.737  10.323
 8077TIP3    H248427   0.848   6.814  10.449
 8078TIP3   OH248428   1.597   6.713  11.197
 8078TIP3    H148429   1.652   6.767  11.140
 8078TIP3    H248430   1.522   6.690  11.143
 8079TIP3   OH248431   1.271   6.034  10.210
 8079TIP3    H148432   1.186   6.033  10.167
 8079TIP3    H248433   1.281   6.123  10.242
 8080TIP3   OH248434   1.013   6.798  11.479
 8080TIP3    H148435   1.037   6.756  11.562
 8080TIP3    H248436   1.005   6.891  11.501
 8081TIP3   OH248437   1.321   6.271  10.346
 8081TIP3    H148438   1.405   6.247  10.386
 8081TIP3    H248439   1.333   6.362  10.319
 8082TIP3   OH248440   0.425   6.722  10.912
 8082TIP3    H148441   0.474   6.713  10.830
 8082TIP3    H248442   0.462   6.655  10.969
 8083TIP3   OH248443   1.113   6.934  10.289
 8083TIP3    H148444   1.081   7.024  10.281
 8083TIP3    H248445   1.034   6.882  10.302
 8084TIP3   OH248446   0.178   6.528  11.467
 8084TIP3    H148447   0.192   6.507  11.559
 8084TIP3    H248448   0.085   6.509  11.452
 8085TIP3   OH248449   0.820   6.510  11.653
 8085TIP3    H148450   0.763   6.468  11.589
 8085TIP3    H248451   0.904   6.465  11.644
 8086TIP3   OH248452   1.258   7.042  11.484
 8086TIP3    H148453   1.165   7.053  11.466
 8086TIP3    H248454   1.269   7.071  11.574
 8087TIP3   OH248455   1.822   6.296  10.318
 8087TIP3    H148456   1.755   6.275  10.253
 8087TIP3    H248457   1.848   6.386  10.298
 8088TIP3   OH248458   1.850   6.862  11.574
 8088TIP3    H148459   1.759   6.867  11.544
 8088TIP3    H248460   1.900   6.846  11.494
 8089TIP3   OH248461   1.664   7.098  10.361
 8089TIP3    H148462   1.600   7.028  10.376
 8089TIP3    H248463   1.692   7.086  10.271
 8090TIP3   OH248464   1.382   6.628  11.025
 8090TIP3    H148465   1.288   6.616  11.016
 8090TIP3    H248466   1.421   6.551  10.983
 8091TIP3   OH248467   0.616   7.062  10.704
 8091TIP3    H148468   0.654   7.137  10.659
 8091TIP3    H248469   0.545   7.032  10.647
 8092TIP3   OH248470   0.220   6.518  10.144
 8092TIP3    H148471   0.274   6.581  10.190
 8092TIP3    H248472   0.130   6.543  10.165
 8093TIP3   OH248473   0.759   6.839  10.600
 8093TIP3    H148474   0.729   6.919  10.643
 8093TIP3    H248475   0.703   6.770  10.637
 8094TIP3   OH248476   0.830   7.227  11.297
 8094TIP3    H148477   0.855   7.317  11.315
 8094TIP3    H248478   0.899   7.174  11.338
 8095TIP3   OH248479   0.660   7.295  10.560
 8095TIP3    H148480   0.566   7.308  10.571
 8095TIP3    H248481   0.700   7.370  10.604
 8096TIP3   OH248482   1.137   6.834  11.236
 8096TIP3    H148483   1.091   6.816  11.318
 8096TIP3    H248484   1.214   6.776  11.239
 8097TIP3   OH248485   1.379   6.939  10.136
 8097TIP3    H148486   1.430   6.901  10.208
 8097TIP3    H248487   1.289   6.940  10.169
 8098TIP3   OH248488   1.452   7.276  11.453
 8098TIP3    H148489   1.376   7.222  11.432
 8098TIP3    H248490   1.450   7.347  11.389
 8099TIP3   OH248491   1.884   7.365  10.127
 8099TIP3    H148492   1.953   7.431  10.124
 8099TIP3    H248493   1.805   7.413  10.153
 8100TIP3   OH248494   0.276   6.016  11.389
 8100TIP3    H148495   0.217   6.059  11.452
 8100TIP3    H248496   0.269   5.923  11.409
 8101TIP3   OH248497   1.522   6.799  10.329
 8101TIP3    H148498   1.477   6.757  10.403
 8101TIP3    H248499   1.615   6.791  10.350
 8102TIP3   OH248500   0.211   7.183  11.278
 8102TIP3    H148501   0.215   7.246  11.206
 8102TIP3    H248502   0.212   7.237  11.357
 8103TIP3   OH248503   0.663   7.004  10.261
 8103TIP3    H148504   0.744   6.957  10.282
 8103TIP3    H248505   0.688   7.097  10.267
 8104TIP3   OH248506   0.332   6.713  10.306
 8104TIP3    H148507   0.257   6.753  10.349
 8104TIP3    H248508   0.377   6.785  10.261
 8105TIP3   OH248509   1.180   5.981  11.293
 8105TIP3    H148510   1.235   6.010  11.366
 8105TIP3    H248511   1.136   5.903  11.326
 8106TIP3   OH248512   1.233   5.907  10.452
 8106TIP3    H148513   1.245   5.948  10.366
 8106TIP3    H248514   1.262   5.974  10.514
 8107TIP3   OH248515   0.995   7.183  10.275
 8107TIP3    H148516   0.902   7.201  10.284
 8107TIP3    H248517   1.034   7.267  10.251
 8108TIP3   OH248518   0.930   6.151  10.509
 8108TIP3    H148519   0.999   6.215  10.525
 8108TIP3    H248520   0.913   6.112  10.595
 8109TIP3   OH248521   1.013   6.232  11.414
 8109TIP3    H148522   1.019   6.267  11.503
 8109TIP3    H248523   1.045   6.142  11.422
 8110TIP3   OH248524   0.994   5.812  10.559
 8110TIP3    H148525   0.972   5.878  10.624
 8110TIP3    H248526   1.080   5.837  10.526
 8111TIP3   OH248527   0.734   7.265  10.298
 8111TIP3    H148528   0.739   7.351  10.256
 8111TIP3    H248529   0.707   7.283  10.388
 8112TIP3   OH248530   0.579   5.950  10.300
 8112TIP3    H148531   0.592   6.035  10.340
 8112TIP3    H248532   0.661   5.903  10.314
 8113TIP3   OH248533   1.587   6.006  11.499
 8113TIP3    H148534   1.499   6.035  11.477
 8113TIP3    H248535   1.639   6.027  11.421
 8114TIP3   OH248536   1.473   6.390  10.902
 8114TIP3    H148537   1.389   6.343  10.899
 8114TIP3    H248538   1.529   6.335  10.956
 8115TIP3   OH248539   0.417   6.938  10.159
 8115TIP3    H148540   0.487   6.982  10.206
 8115TIP3    H248541   0.461   6.883  10.094
 8116TIP3   OH248542   0.320   6.266  10.115
 8116TIP3    H148543   0.288   6.355  10.130
 8116TIP3    H248544   0.282   6.241  10.030
 8117TIP3   OH248545   1.587   7.368  11.077
 8117TIP3    H148546   1.575   7.416  10.995
 8117TIP3    H248547   1.682   7.360  11.087
 8118TIP3   OH248548   0.339   5.756  10.929
 8118TIP3    H148549   0.327   5.738  10.835
 8118TIP3    H248550   0.310   5.676  10.972
 8119TIP3   OH248551   0.179   7.085  10.514
 8119TIP3    H148552   0.155   7.137  10.590
 8119TIP3    H248553   0.205   7.149  10.448
 8120TIP3   OH248554   0.171   7.409  11.626
 8120TIP3    H148555   0.219   7.409  11.708
 8120TIP3    H248556   0.105   7.340  11.636
 8121TIP3   OH248557   0.563   7.273  11.854
 8121TIP3    H148558   0.654   7.292  11.874
 8121TIP3    H248559   0.566   7.223  11.772
 8122TIP3   OH248560   1.028   7.190  19.946
 8122TIP3    H148561   0.997   7.102  19.926
 8122TIP3    H248562   1.089   7.179  20.019
 8123TIP3   OH248563   1.258   7.128  11.745
 8123TIP3    H148564   1.235   7.045  11.789
 8123TIP3    H248565   1.330   7.163  11.798
 8124TIP3   OH248566   1.450   7.199  10.052
 8124TIP3    H148567   1.428   7.108  10.071
 8124TIP3    H248568   1.540   7.196  10.019
 8125TIP3   OH248569   0.182   6.774  11.819
 8125TIP3    H148570   0.193   6.696  11.873
 8125TIP3    H248571   0.093   6.767  11.784
 8126TIP3   OH248572   0.588   6.765  10.034
 8126TIP3    H148573   0.622   6.724  10.114
 8126TIP3    H248574   0.663   6.769   9.976
 8127TIP3   OH248575   0.782   6.777  11.728
 8127TIP3    H148576   0.772   6.825  11.645
 8127TIP3    H248577   0.803   6.687  11.701
 8128TIP3   OH248578   1.366   6.780  11.486
 8128TIP3    H148579   1.457   6.806  11.470
 8128TIP3    H248580   1.317   6.862  11.482
 8129TIP3   OH248581   0.253   6.466  11.725
 8129TIP3    H148582   0.334   6.421  11.746
 8129TIP3    H248583   0.220   6.496  11.810
 8130TIP3   OH248584   0.698   6.622  10.248
 8130TIP3    H148585   0.633   6.569  10.294
 8130TIP3    H248586   0.743   6.559  10.191
 8131TIP3   OH248587   0.637   6.404  11.450
 8131TIP3    H148588   0.573   6.475  11.448
 8131TIP3    H248589   0.705   6.431  11.388
 8132TIP3   OH248590   0.822   6.444  10.073
 8132TIP3    H148591   0.829   6.408   9.985
 8132TIP3    H248592   0.912   6.446  10.106
 8133TIP3   OH248593   1.151   6.651  11.779
 8133TIP3    H148594   1.235   6.615  11.750
 8133TIP3    H248595   1.114   6.583  11.835
 8134TIP3   OH248596   1.687   6.605  19.982
 8134TIP3    H148597   1.776   6.601  19.947
 8134TIP3    H248598   1.668   6.699  19.988
 8135TIP3   OH248599   0.665   6.155  11.557
 8135TIP3    H148600   0.682   6.090  11.489
 8135TIP3    H248601   0.658   6.238  11.510
 8136TIP3   OH248602   0.716   5.989  11.326
 8136TIP3    H148603   0.773   6.032  11.263
 8136TIP3    H248604   0.630   5.987  11.284
 8137TIP3   OH248605   0.840   6.493  11.294
 8137TIP3    H148606   0.936   6.496  11.293
 8137TIP3    H248607   0.813   6.579  11.262
 8138TIP3   OH248608   1.302   6.282  11.813
 8138TIP3    H148609   1.316   6.188  11.824
 8138TIP3    H248610   1.388   6.322  11.827
 8139TIP3   OH248611   1.423   6.599  11.681
 8139TIP3    H148612   1.396   6.668  11.621
 8139TIP3    H248613   1.516   6.586  11.662
 8140TIP3   OH248614   0.491   6.262  11.763
 8140TIP3    H148615   0.426   6.192  11.764
 8140TIP3    H248616   0.552   6.238  11.693
 8141TIP3   OH248617   0.775   5.719  11.361
 8141TIP3    H148618   0.750   5.811  11.350
 8141TIP3    H248619   0.703   5.670  11.322
 8142TIP3   OH248620   0.885   6.131  11.729
 8142TIP3    H148621   0.851   6.095  11.811
 8142TIP3    H248622   0.809   6.133  11.671
 8143TIP3   OH248623   1.149   6.050  11.649
 8143TIP3    H148624   1.063   6.057  11.690
 8143TIP3    H248625   1.200   5.996  11.709
 8144TIP3   OH248626   1.323   5.919  11.823
 8144TIP3    H148627   1.320   5.823  11.819
 8144TIP3    H248628   1.298   5.940  11.913
 8145TIP3   OH248629   0.339   6.035  11.768
 8145TIP3    H148630   0.365   5.956  11.722
 8145TIP3    H248631   0.326   6.007  11.858
 8146TIP3   OH248632   0.787   5.674  11.631
 8146TIP3    H148633   0.837   5.592  11.631
 8146TIP3    H248634   0.774   5.695  11.539
 8147TIP3   OH248635   0.810   5.808  11.866
 8147TIP3    H148636   0.803   5.763  11.782
 8147TIP3    H248637   0.747   5.880  11.860
 8148TIP3   OH248638   0.786   7.498  10.167
 8148TIP3    H148639   0.882   7.500  10.168
 8148TIP3    H248640   0.762   7.558  10.097
 8149TIP3   OH248641   0.139   6.946  10.134
 8149TIP3    H148642   0.231   6.969  10.148
 8149TIP3    H248643   0.139   6.897  10.052
 8150TIP3   OH248644   0.048   7.473  10.552
 8150TIP3    H148645  -0.037   7.513  10.573
 8150TIP3    H248646   0.049   7.391  10.601
 8151TIP3   OH248647   0.145   7.262  10.748
 8151TIP3    H148648   0.086   7.199  10.789
 8151TIP3    H248649   0.162   7.327  10.816
 8152TIP3   OH248650   1.859   7.383  11.091
 8152TIP3    H148651   1.876   7.449  11.158
 8152TIP3    H248652   1.945   7.367  11.051
 8153TIP3   OH248653   1.809   7.306  11.418
 8153TIP3    H148654   1.771   7.240  11.360
 8153TIP3    H248655   1.849   7.256  11.489
 8154TIP3   OH248656   1.654   6.917  11.856
 8154TIP3    H148657   1.570   6.919  11.901
 8154TIP3    H248658   1.706   6.985  11.900
 8155TIP3   OH248659   1.782   6.738  10.390
 8155TIP3    H148660   1.858   6.797  10.396
 8155TIP3    H248661   1.789   6.683  10.468
 8156TIP3   OH248662   1.821   6.560  10.598
 8156TIP3    H148663   1.740   6.518  10.628
 8156TIP3    H248664   1.871   6.576  10.678
 8157TIP3   OH248665   1.797   6.842  11.064
 8157TIP3    H148666   1.860   6.773  11.044
 8157TIP3    H248667   1.841   6.922  11.034
 8158TIP3   OH248668   1.636   7.114  11.308
 8158TIP3    H148669   1.569   7.165  11.353
 8158TIP3    H248670   1.601   7.099  11.220
 8159TIP3   OH248671   1.854   6.549  10.205
 8159TIP3    H148672   1.783   6.553  10.142
 8159TIP3    H248673   1.832   6.617  10.270
 8160TIP3   OH248674   1.635   6.271  10.126
 8160TIP3    H148675   1.574   6.329  10.081
 8160TIP3    H248676   1.627   6.187  10.081
 8161TIP3   OH248677   1.592   6.416  10.656
 8161TIP3    H148678   1.581   6.326  10.624
 8161TIP3    H248679   1.556   6.414  10.745
 8162TIP3   OH248680   0.153   6.719  11.049
 8162TIP3    H148681   0.166   6.694  10.958
 8162TIP3    H248682   0.209   6.659  11.098
 8163TIP3   OH248683   1.693   6.597  11.614
 8163TIP3    H148684   1.744   6.516  11.614
 8163TIP3    H248685   1.749   6.660  11.567
 8164TIP3   OH248686   1.832   6.365  11.647
 8164TIP3    H148687   1.745   6.324  11.638
 8164TIP3    H248688   1.871   6.321  11.722
 8165TIP3   OH248689   1.606   6.027  10.011
 8165TIP3    H148690   1.675   5.973  10.051
 8165TIP3    H248691   1.527   5.973  10.017
 8166TIP3   OH248692   1.559   6.183  10.484
 8166TIP3    H148693   1.585   6.092  10.492
 8166TIP3    H248694   1.631   6.225  10.435
 8167TIP3   OH248695   1.643   6.231  11.047
 8167TIP3    H148696   1.736   6.247  11.034
 8167TIP3    H248697   1.628   6.248  11.140
 8168TIP3   OH248698   1.637   6.318  11.311
 8168TIP3    H148699   1.558   6.350  11.355
 8168TIP3    H248700   1.693   6.395  11.303
 8169TIP3   OH248701   0.125   6.074  11.610
 8169TIP3    H148702   0.197   6.093  11.670
 8169TIP3    H248703   0.109   5.981  11.621
 8170TIP3   OH248704   1.871   5.713  11.833
 8170TIP3    H148705   1.925   5.649  11.786
 8170TIP3    H248706   1.859   5.785  11.770
 8171TIP3   OH248707   1.644   5.920  10.500
 8171TIP3    H148708   1.671   5.885  10.585
 8171TIP3    H248709   1.578   5.858  10.468
 8172TIP3   OH248710   0.183   5.978  10.961
 8172TIP3    H148711   0.235   5.898  10.961
 8172TIP3    H248712   0.243   6.046  10.992
 8173TIP3   OH248713   0.095   6.295  11.061
 8173TIP3    H148714   0.150   6.292  10.983
 8173TIP3    H248715   0.146   6.346  11.124
 8174TIP3   OH248716   1.777   5.919  11.678
 8174TIP3    H148717   1.742   5.976  11.746
 8174TIP3    H248718   1.712   5.923  11.608
 8175TIP3   OH248719   1.823   5.905  10.138
 8175TIP3    H148720   1.884   5.858  10.080
 8175TIP3    H248721   1.878   5.969  10.183
 8176TIP3   OH248722   0.102   5.898  10.445
 8176TIP3    H148723   0.008   5.901  10.459
 8176TIP3    H248724   0.120   5.968  10.383
 8177TIP3   OH248725   1.523   7.412  10.615
 8177TIP3    H148726   1.599   7.381  10.565
 8177TIP3    H248727   1.560   7.452  10.693
 8178TIP3   OH248728   0.079   5.772  11.282
 8178TIP3    H148729  -0.012   5.743  11.286
 8178TIP3    H248730   0.080   5.840  11.215
 8179TIP3   OH248731   0.241   7.103  11.700
 8179TIP3    H148732   0.156   7.069  11.670
 8179TIP3    H248733   0.235   7.100  11.795
 8180TIP3   OH248734   0.561   7.190  11.336
 8180TIP3    H148735   0.530   7.275  11.305
 8180TIP3    H248736   0.656   7.195  11.331
 8181TIP3   OH248737   0.996   7.337  11.605
 8181TIP3    H148738   1.004   7.313  11.697
 8181TIP3    H248739   1.081   7.376  11.582
 8182TIP3   OH248740   1.240   7.456  11.561
 8182TIP3    H148741   1.312   7.403  11.527
 8182TIP3    H248742   1.258   7.464  11.655
 8183TIP3   OH248743   1.696   5.700  11.447
 8183TIP3    H148744   1.628   5.736  11.390
 8183TIP3    H248745   1.713   5.612  11.412
 8184TIP3   OH248746   0.276   7.466  11.353
 8184TIP3    H148747   0.208   7.523  11.317
 8184TIP3    H248748   0.257   7.463  11.447
 8185TIP3   OH248749   0.530   7.449  11.253
 8185TIP3    H148750   0.445   7.471  11.291
 8185TIP3    H248751   0.535   7.503  11.174
 8186TIP3   OH248752   1.027   7.449  11.162
 8186TIP3    H148753   0.963   7.482  11.099
 8186TIP3    H248754   1.033   7.517  11.229
 8187TIP3   OH248755   1.226   7.309  11.280
 8187TIP3    H148756   1.147   7.343  11.238
 8187TIP3    H248757   1.290   7.380  11.270
 8188TIP3   OH248758   1.449   7.491  11.275
 8188TIP3    H148759   1.426   7.580  11.245
 8188TIP3    H248760   1.494   7.452  11.200
 8189TIP3   OH248761   0.267   7.331  11.048
 8189TIP3    H148762   0.297   7.397  11.111
 8189TIP3    H248763   0.346   7.304  11.002
 8190TIP3   OH248764   0.488   7.242  10.906
 8190TIP3    H148765   0.517   7.163  10.860
 8190TIP3    H248766   0.564   7.269  10.958
 8191TIP3   OH248767   0.723   7.251  11.042
 8191TIP3    H148768   0.728   7.158  11.018
 8191TIP3    H248769   0.764   7.255  11.129
 8192TIP3   OH248770   1.042   5.841  10.893
 8192TIP3    H148771   0.981   5.773  10.921
 8192TIP3    H248772   1.116   5.793  10.856
 8193TIP3   OH248773   1.561   5.670  10.878
 8193TIP3    H148774   1.627   5.726  10.837
 8193TIP3    H248775   1.479   5.717  10.866
 8194TIP3   OH248776   1.751   5.783  10.714
 8194TIP3    H148777   1.813   5.717  10.683
 8194TIP3    H248778   1.806   5.859  10.734
 8195TIP3   OH248779   0.316   5.699  10.658
 8195TIP3    H148780   0.233   5.677  10.615
 8195TIP3    H248781   0.369   5.620  10.649
 8196TIP3   OH248782   0.115   5.738  10.216
 8196TIP3    H148783   0.190   5.779  10.173
 8196TIP3    H248784   0.111   5.778  10.302
 8197TIP3   OH248785   0.770   5.661  10.669
 8197TIP3    H148786   0.834   5.718  10.628
 8197TIP3    H248787   0.788   5.669  10.763
 8198TIP3   OH248788   1.289   5.727  10.793
 8198TIP3    H148789   1.315   5.706  10.703
 8198TIP3    H248790   1.258   5.643  10.829
 8199TIP3   OH248791   1.454   5.734  10.421
 8199TIP3    H148792   1.376   5.789  10.416
 8199TIP3    H248793   1.420   5.647  10.443
 8200TIP3   OH248794   0.187   7.291  10.334
 8200TIP3    H148795   0.097   7.271  10.307
 8200TIP3    H248796   0.199   7.383  10.310
 8201TIP3   OH248797   0.366   5.843  10.139
 8201TIP3    H148798   0.396   5.753  10.124
 8201TIP3    H248799   0.434   5.881  10.195
 8202TIP3   OH248800   0.863   5.935  10.345
 8202TIP3    H148801   0.900   5.867  10.402
 8202TIP3    H248802   0.877   6.016  10.393
 8203TIP3   OH248803   1.063   7.443  10.166
 8203TIP3    H148804   1.157   7.446  10.182
 8203TIP3    H248805   1.056   7.416  10.074
 8204TIP3   OH248806   1.735   7.339  10.458
 8204TIP3    H148807   1.715   7.248  10.434
 8204TIP3    H248808   1.719   7.389  10.377
 8205TIP3   OH248809   0.278   5.764  11.616
 8205TIP3    H148810   0.215   5.697  11.643
 8205TIP3    H248811   0.353   5.749  11.673
 8206TIP3   OH248812   0.476   5.708  11.802
 8206TIP3    H148813   0.566   5.681  11.784
 8206TIP3    H248814   0.436   5.632  11.843
 8207TIP3   OH248815   0.417   7.449  10.080
 8207TIP3    H148816   0.357   7.456  10.154
 8207TIP3    H248817   0.481   7.383  10.107
 8208TIP3   OH248818   1.345   5.645  11.795
 8208TIP3    H148819   1.338   5.595  11.877
 8208TIP3    H248820   1.437   5.637  11.771
 8209TIP3   OH248821   1.622   7.255  11.679
 8209TIP3    H148822   1.565   7.245  11.603
 8209TIP3    H248823   1.619   7.348  11.700
 8210TIP3   OH248824   3.096   6.640  10.672
 8210TIP3    H148825   3.095   6.733  10.696
 8210TIP3    H248826   3.032   6.632  10.601
 8211TIP3   OH248827   2.973   6.568  11.020
 8211TIP3    H148828   2.985   6.534  11.109
 8211TIP3    H248829   2.921   6.500  10.976
 8212TIP3   OH248830   2.173   6.493  11.179
 8212TIP3    H148831   2.187   6.407  11.219
 8212TIP3    H248832   2.235   6.551  11.222
 8213TIP3   OH248833   3.314   6.847  10.864
 8213TIP3    H148834   3.295   6.771  10.919
 8213TIP3    H248835   3.339   6.916  10.926
 8214TIP3   OH248836   2.307   6.976  10.976
 8214TIP3    H148837   2.279   6.888  10.952
 8214TIP3    H248838   2.400   6.967  10.997
 8215TIP3   OH248839   1.975   6.319  10.547
 8215TIP3    H148840   1.944   6.402  10.583
 8215TIP3    H248841   1.915   6.300  10.476
 8216TIP3   OH248842   2.023   6.555  10.795
 8216TIP3    H148843   2.056   6.468  10.816
 8216TIP3    H248844   2.101   6.611  10.794
 8217TIP3   OH248845   3.038   7.313  10.845
 8217TIP3    H148846   3.119   7.265  10.827
 8217TIP3    H248847   3.017   7.291  10.936
 8218TIP3   OH248848   2.810   6.818  11.044
 8218TIP3    H148849   2.853   6.745  10.999
 8218TIP3    H248850   2.874   6.848  11.108
 8219TIP3   OH248851   3.679   5.941  11.123
 8219TIP3    H148852   3.683   6.004  11.194
 8219TIP3    H248853   3.751   5.964  11.065
 8220TIP3   OH248854   3.140   6.249  11.089
 8220TIP3    H148855   3.166   6.157  11.095
 8220TIP3    H248856   3.124   6.263  10.995
 8221TIP3   OH248857   2.474   6.034  10.778
 8221TIP3    H148858   2.483   6.120  10.736
 8221TIP3    H248859   2.416   5.985  10.720
 8222TIP3   OH248860   3.230   6.088  10.639
 8222TIP3    H148861   3.277   6.058  10.717
 8222TIP3    H248862   3.297   6.131  10.586
 8223TIP3   OH248863   2.127   6.305  10.859
 8223TIP3    H148864   2.188   6.260  10.917
 8223TIP3    H248865   2.150   6.276  10.771
 8224TIP3   OH248866   2.598   6.443  10.821
 8224TIP3    H148867   2.684   6.409  10.849
 8224TIP3    H248868   2.564   6.376  10.762
 8225TIP3   OH248869   3.677   6.096  11.351
 8225TIP3    H148870   3.634   6.180  11.331
 8225TIP3    H248871   3.742   6.118  11.418
 8226TIP3   OH248872   2.351   5.962  11.206
 8226TIP3    H148873   2.317   6.022  11.139
 8226TIP3    H248874   2.284   5.961  11.274
 8227TIP3   OH248875   3.061   6.918  10.551
 8227TIP3    H148876   3.043   6.921  10.458
 8227TIP3    H248877   3.023   6.998  10.587
 8228TIP3   OH248878   2.583   6.734  11.180
 8228TIP3    H148879   2.532   6.806  11.218
 8228TIP3    H248880   2.656   6.777  11.135
 8229TIP3   OH248881   3.389   6.034  10.856
 8229TIP3    H148882   3.380   5.952  10.906
 8229TIP3    H248883   3.450   6.087  10.908
 8230TIP3   OH248884   2.307   6.126  10.983
 8230TIP3    H148885   2.365   6.184  11.033
 8230TIP3    H248886   2.364   6.087  10.917
 8231TIP3   OH248887   2.440   6.939  11.294
 8231TIP3    H148888   2.440   7.035  11.286
 8231TIP3    H248889   2.355   6.919  11.333
 8232TIP3   OH248890   2.019   6.882  10.388
 8232TIP3    H148891   2.014   6.930  10.306
 8232TIP3    H248892   2.043   6.948  10.453
 8233TIP3   OH248893   3.382   7.084  11.080
 8233TIP3    H148894   3.286   7.081  11.089
 8233TIP3    H248895   3.400   7.174  11.051
 8234TIP3   OH248896   3.404   5.859  11.201
 8234TIP3    H148897   3.334   5.909  11.157
 8234TIP3    H248898   3.485   5.891  11.160
 8235TIP3   OH248899   2.686   5.645  10.961
 8235TIP3    H148900   2.658   5.554  10.971
 8235TIP3    H248901   2.610   5.696  10.988
 8236TIP3   OH248902   3.267   7.209  10.743
 8236TIP3    H148903   3.294   7.123  10.708
 8236TIP3    H248904   3.320   7.272  10.694
 8237TIP3   OH248905   3.339   6.970  10.619
 8237TIP3    H148906   3.262   6.939  10.570
 8237TIP3    H248907   3.339   6.919  10.699
 8238TIP3   OH248908   3.502   6.866  11.436
 8238TIP3    H148909   3.497   6.811  11.358
 8238TIP3    H248910   3.509   6.955  11.402
 8239TIP3   OH248911   2.961   6.593  10.430
 8239TIP3    H148912   2.897   6.661  10.410
 8239TIP3    H248913   3.024   6.597  10.358
 8240TIP3   OH248914   2.985   6.415  10.129
 8240TIP3    H148915   3.054   6.461  10.177
 8240TIP3    H248916   3.027   6.333  10.100
 8241TIP3   OH248917   3.688   6.536  11.254
 8241TIP3    H148918   3.615   6.597  11.251
 8241TIP3    H248919   3.742   6.558  11.178
 8242TIP3   OH248920   3.313   6.597  10.510
 8242TIP3    H148921   3.245   6.615  10.575
 8242TIP3    H248922   3.380   6.547  10.558
 8243TIP3   OH248923   3.292   6.412  11.440
 8243TIP3    H148924   3.292   6.480  11.507
 8243TIP3    H248925   3.235   6.447  11.371
 8244TIP3   OH248926   2.460   6.646  10.693
 8244TIP3    H148927   2.431   6.609  10.609
 8244TIP3    H248928   2.512   6.576  10.733
 8245TIP3   OH248929   2.592   6.981  10.954
 8245TIP3    H148930   2.589   6.990  10.859
 8245TIP3    H248931   2.670   6.928  10.971
 8246TIP3   OH248932   2.458   6.534  11.043
 8246TIP3    H148933   2.514   6.513  10.967
 8246TIP3    H248934   2.505   6.603  11.089
 8247TIP3   OH248935   3.113   7.078  11.128
 8247TIP3    H148936   3.104   7.147  11.195
 8247TIP3    H248937   3.073   7.001  11.168
 8248TIP3   OH248938   2.601   6.973  11.520
 8248TIP3    H148939   2.538   7.027  11.568
 8248TIP3    H248940   2.554   6.949  11.440
 8249TIP3   OH248941   3.198   6.534  10.271
 8249TIP3    H148942   3.237   6.562  10.354
 8249TIP3    H248943   3.256   6.571  10.204
 8250TIP3   OH248944   2.280   6.578  11.453
 8250TIP3    H148945   2.293   6.647  11.517
 8250TIP3    H248946   2.187   6.555  11.460
 8251TIP3   OH248947   2.962   7.179  10.609
 8251TIP3    H148948   2.977   7.223  10.692
 8251TIP3    H248949   2.902   7.237  10.561
 8252TIP3   OH248950   2.399   7.139  11.609
 8252TIP3    H148951   2.395   7.172  11.520
 8252TIP3    H248952   2.308   7.127  11.634
 8253TIP3   OH248953   3.571   5.679  10.281
 8253TIP3    H148954   3.487   5.699  10.323
 8253TIP3    H248955   3.609   5.765  10.262
 8254TIP3   OH248956   2.370   6.542  10.445
 8254TIP3    H148957   2.321   6.609  10.397
 8254TIP3    H248958   2.313   6.465  10.443
 8255TIP3   OH248959   3.681   7.114  10.118
 8255TIP3    H148960   3.708   7.205  10.106
 8255TIP3    H248961   3.764   7.066  10.124
 8256TIP3   OH248962   1.983   6.784  11.345
 8256TIP3    H148963   1.947   6.777  11.257
 8256TIP3    H248964   1.995   6.693  11.373
 8257TIP3   OH248965   1.977   7.053  11.013
 8257TIP3    H148966   2.070   7.032  11.006
 8257TIP3    H248967   1.970   7.107  11.092
 8258TIP3   OH248968   3.764   7.139  11.639
 8258TIP3    H148969   3.747   7.045  11.629
 8258TIP3    H248970   3.680   7.175  11.667
 8259TIP3   OH248971   2.852   7.079  11.485
 8259TIP3    H148972   2.860   7.162  11.533
 8259TIP3    H248973   2.764   7.048  11.506
 8260TIP3   OH248974   2.937   7.484  10.450
 8260TIP3    H148975   2.916   7.496  10.357
 8260TIP3    H248976   2.905   7.564  10.492
 8261TIP3   OH248977   2.270   7.290  10.656
 8261TIP3    H148978   2.295   7.272  10.746
 8261TIP3    H248979   2.208   7.220  10.634
 8262TIP3   OH248980   3.206   7.399  10.194
 8262TIP3    H148981   3.253   7.341  10.134
 8262TIP3    H248982   3.199   7.349  10.275
 8263TIP3   OH248983   3.156   7.320  10.447
 8263TIP3    H148984   3.079   7.375  10.461
 8263TIP3    H248985   3.144   7.247  10.508
 8264TIP3   OH248986   3.457   6.267  11.642
 8264TIP3    H148987   3.404   6.313  11.577
 8264TIP3    H248988   3.454   6.175  11.615
 8265TIP3   OH248989   2.200   6.932  11.424
 8265TIP3    H148990   2.219   6.901  11.513
 8265TIP3    H248991   2.123   6.882  11.398
 8266TIP3   OH248992   2.449   5.771  11.031
 8266TIP3    H148993   2.367   5.762  10.983
 8266TIP3    H248994   2.434   5.845  11.091
 8267TIP3   OH248995   2.933   5.733  11.369
 8267TIP3    H148996   2.981   5.690  11.440
 8267TIP3    H248997   2.841   5.712  11.385
 8268TIP3   OH248998   3.192   6.151  11.446
 8268TIP3    H148999   3.179   6.138  11.540
 8268TIP3    H249000   3.231   6.238  11.439
 8269TIP3   OH249001   3.367   6.647  10.087
 8269TIP3    H149002   3.323   6.693  10.015
 8269TIP3    H249003   3.402   6.716  10.142
 8270TIP3   OH249004   2.879   6.037  10.118
 8270TIP3    H149005   2.834   5.995  10.191
 8270TIP3    H249006   2.835   6.002  10.040
 8271TIP3   OH249007   2.460   6.281  11.150
 8271TIP3    H149008   2.395   6.279  11.220
 8271TIP3    H249009   2.458   6.371  11.118
 8272TIP3   OH249010   2.478   6.270  10.643
 8272TIP3    H149011   2.383   6.265  10.631
 8272TIP3    H249012   2.514   6.255  10.556
 8273TIP3   OH249013   3.018   6.334  10.529
 8273TIP3    H149014   2.995   6.424  10.504
 8273TIP3    H249015   3.089   6.310  10.470
 8274TIP3   OH249016   2.905   6.332  11.671
 8274TIP3    H149017   2.849   6.288  11.735
 8274TIP3    H249018   2.982   6.359  11.721
 8275TIP3   OH249019   3.106   6.292  10.815
 8275TIP3    H149020   3.089   6.370  10.763
 8275TIP3    H249021   3.124   6.224  10.750
 8276TIP3   OH249022   2.241   6.259  11.322
 8276TIP3    H149023   2.245   6.304  11.406
 8276TIP3    H249024   2.208   6.172  11.343
 8277TIP3   OH249025   2.504   5.965  10.026
 8277TIP3    H149026   2.499   5.977  10.121
 8277TIP3    H249027   2.521   6.053   9.992
 8278TIP3   OH249028   1.921   5.990  10.739
 8278TIP3    H149029   1.961   6.001  10.825
 8278TIP3    H249030   1.985   6.025  10.677
 8279TIP3   OH249031   2.002   6.093  10.263
 8279TIP3    H149032   2.074   6.137  10.220
 8279TIP3    H249033   1.943   6.164  10.289
 8280TIP3   OH249034   3.035   6.433  11.258
 8280TIP3    H149035   3.078   6.370  11.201
 8280TIP3    H249036   2.964   6.384  11.299
 8281TIP3   OH249037   2.763   6.013  10.731
 8281TIP3    H149038   2.672   6.020  10.762
 8281TIP3    H249039   2.808   5.967  10.802
 8282TIP3   OH249040   2.214   6.205  10.613
 8282TIP3    H149041   2.130   6.234  10.577
 8282TIP3    H249042   2.220   6.113  10.588
 8283TIP3   OH249043   2.571   6.210  10.395
 8283TIP3    H149044   2.667   6.216  10.399
 8283TIP3    H249045   2.548   6.257  10.314
 8284TIP3   OH249046   3.162   5.969  11.081
 8284TIP3    H149047   3.094   5.971  11.149
 8284TIP3    H249048   3.118   5.931  11.005
 8285TIP3   OH249049   2.447   6.307  10.172
 8285TIP3    H149050   2.356   6.305  10.144
 8285TIP3    H249051   2.487   6.376  10.119
 8286TIP3   OH249052   3.423   7.550  11.696
 8286TIP3    H149053   3.445   7.565  11.604
 8286TIP3    H249054   3.508   7.549  11.741
 8287TIP3   OH249055   2.252   6.777  11.662
 8287TIP3    H149056   2.318   6.777  11.732
 8287TIP3    H249057   2.169   6.765  11.707
 8288TIP3   OH249058   2.834   6.329  10.925
 8288TIP3    H149059   2.912   6.294  10.883
 8288TIP3    H249060   2.807   6.260  10.987
 8289TIP3   OH249061   2.294   5.931  10.585
 8289TIP3    H149062   2.245   5.856  10.618
 8289TIP3    H249063   2.338   5.899  10.507
 8290TIP3   OH249064   2.715   6.170  11.156
 8290TIP3    H149065   2.630   6.214  11.151
 8290TIP3    H249066   2.760   6.213  11.229
 8291TIP3   OH249067   2.770   6.796  10.359
 8291TIP3    H149068   2.704   6.735  10.324
 8291TIP3    H249069   2.742   6.813  10.449
 8292TIP3   OH249070   3.482   6.714  11.208
 8292TIP3    H149071   3.536   6.769  11.153
 8292TIP3    H249072   3.404   6.695  11.155
 8293TIP3   OH249073   3.135   6.034  10.225
 8293TIP3    H149074   3.053   6.047  10.177
 8293TIP3    H249075   3.160   6.121  10.254
 8294TIP3   OH249076   2.897   6.798  11.482
 8294TIP3    H149077   2.917   6.767  11.570
 8294TIP3    H249078   2.883   6.892  11.491
 8295TIP3   OH249079   3.222   6.268  10.346
 8295TIP3    H149080   3.307   6.245  10.384
 8295TIP3    H249081   3.232   6.358  10.315
 8296TIP3   OH249082   2.280   6.704  10.897
 8296TIP3    H149083   2.341   6.699  10.823
 8296TIP3    H249084   2.316   6.644  10.962
 8297TIP3   OH249085   2.998   6.937  10.277
 8297TIP3    H149086   2.966   7.027  10.271
 8297TIP3    H249087   2.920   6.884  10.292
 8298TIP3   OH249088   2.003   6.531  11.462
 8298TIP3    H149089   1.996   6.487  11.547
 8298TIP3    H249090   1.928   6.498  11.412
 8299TIP3   OH249091   2.683   6.515  11.650
 8299TIP3    H149092   2.616   6.475  11.595
 8299TIP3    H249093   2.763   6.466  11.629
 8300TIP3   OH249094   3.139   7.058  11.485
 8300TIP3    H149095   3.047   7.071  11.461
 8300TIP3    H249096   3.144   7.087  11.576
 8301TIP3   OH249097   3.704   6.304  10.318
 8301TIP3    H149098   3.642   6.279  10.250
 8301TIP3    H249099   3.729   6.394  10.296
 8302TIP3   OH249100   3.730   6.862  11.585
 8302TIP3    H149101   3.640   6.874  11.554
 8302TIP3    H249102   3.782   6.848  11.506
 8303TIP3   OH249103   3.540   7.108  10.354
 8303TIP3    H149104   3.482   7.032  10.369
 8303TIP3    H249105   3.575   7.094  10.266
 8304TIP3   OH249106   3.262   6.629  11.037
 8304TIP3    H149107   3.167   6.617  11.024
 8304TIP3    H249108   3.301   6.553  10.994
 8305TIP3   OH249109   2.526   7.051  10.684
 8305TIP3    H149110   2.547   7.135  10.644
 8305TIP3    H249111   2.433   7.038  10.666
 8306TIP3   OH249112   2.119   6.523  10.130
 8306TIP3    H149113   2.165   6.594  10.174
 8306TIP3    H249114   2.027   6.538  10.151
 8307TIP3   OH249115   2.655   6.824  10.602
 8307TIP3    H149116   2.624   6.911  10.631
 8307TIP3    H249117   2.592   6.763  10.640
 8308TIP3   OH249118   2.718   7.228  11.283
 8308TIP3    H149119   2.744   7.317  11.304
 8308TIP3    H249120   2.781   7.173  11.331
 8309TIP3   OH249121   2.526   7.299  10.557
 8309TIP3    H149122   2.432   7.307  10.577
 8309TIP3    H249123   2.567   7.373  10.600
 8310TIP3   OH249124   3.013   6.838  11.235
 8310TIP3    H149125   2.975   6.820  11.320
 8310TIP3    H249126   3.090   6.781  11.231
 8311TIP3   OH249127   3.259   6.948  10.149
 8311TIP3    H149128   3.308   6.907  10.220
 8311TIP3    H249129   3.168   6.948  10.179
 8312TIP3   OH249130   3.336   7.281  11.461
 8312TIP3    H149131   3.260   7.224  11.450
 8312TIP3    H249132   3.326   7.348  11.393
 8313TIP3   OH249133   3.767   7.373  10.126
 8313TIP3    H149134   3.840   7.434  10.137
 8313TIP3    H249135   3.690   7.424  10.151
 8314TIP3   OH249136   2.171   5.992  11.413
 8314TIP3    H149137   2.091   6.030  11.451
 8314TIP3    H249138   2.185   5.912  11.463
 8315TIP3   OH249139   3.401   6.804  10.338
 8315TIP3    H149140   3.359   6.751  10.406
 8315TIP3    H249141   3.494   6.798  10.358
 8316TIP3   OH249142   2.135   7.169  11.256
 8316TIP3    H149143   2.160   7.086  11.296
 8316TIP3    H249144   2.150   7.235  11.324
 8317TIP3   OH249145   2.568   6.997  10.240
 8317TIP3    H149146   2.640   6.953  10.285
 8317TIP3    H249147   2.583   7.090  10.256
 8318TIP3   OH249148   2.223   6.722  10.294
 8318TIP3    H149149   2.149   6.763  10.338
 8318TIP3    H249150   2.266   6.793  10.247
 8319TIP3   OH249151   3.010   5.990  11.314
 8319TIP3    H149152   3.088   6.013  11.366
 8319TIP3    H249153   2.992   5.899  11.338
 8320TIP3   OH249154   3.123   5.899  10.462
 8320TIP3    H149155   3.127   5.939  10.375
 8320TIP3    H249156   3.155   5.967  10.521
 8321TIP3   OH249157   2.878   7.183  10.270
 8321TIP3    H149158   2.785   7.201  10.285
 8321TIP3    H249159   2.916   7.269  10.252
 8322TIP3   OH249160   2.828   6.139  10.489
 8322TIP3    H149161   2.897   6.204  10.502
 8322TIP3    H249162   2.808   6.108  10.578
 8323TIP3   OH249163   2.895   6.235  11.410
 8323TIP3    H149164   2.927   6.287  11.484
 8323TIP3    H249165   2.970   6.184  11.382
 8324TIP3   OH249166   2.881   5.814  10.560
 8324TIP3    H149167   2.855   5.880  10.625
 8324TIP3    H249168   2.968   5.841  10.531
 8325TIP3   OH249169   2.616   7.259  10.303
 8325TIP3    H149170   2.618   7.344  10.259
 8325TIP3    H249171   2.582   7.278  10.391
 8326TIP3   OH249172   2.474   5.969  10.302
 8326TIP3    H149173   2.478   6.058  10.337
 8326TIP3    H249174   2.561   5.933  10.322
 8327TIP3   OH249175   3.447   6.030  11.495
 8327TIP3    H149176   3.367   6.033  11.443
 8327TIP3    H249177   3.518   6.033  11.431
 8328TIP3   OH249178   3.360   6.397  10.908
 8328TIP3    H149179   3.279   6.348  10.894
 8328TIP3    H249180   3.417   6.336  10.955
 8329TIP3   OH249181   2.312   6.943  10.146
 8329TIP3    H149182   2.384   6.986  10.193
 8329TIP3    H249183   2.355   6.883  10.085
 8330TIP3   OH249184   2.167   6.260  10.102
 8330TIP3    H149185   2.151   6.353  10.116
 8330TIP3    H249186   2.123   6.239  10.020
 8331TIP3   OH249187   3.463   7.364  11.081
 8331TIP3    H149188   3.453   7.411  10.998
 8331TIP3    H249189   3.557   7.359  11.095
 8332TIP3   OH249190   2.189   5.743  10.945
 8332TIP3    H149191   2.176   5.731  10.850
 8332TIP3    H249192   2.160   5.660  10.983
 8333TIP3   OH249193   2.081   7.102  10.557
 8333TIP3    H149194   2.010   7.132  10.614
 8333TIP3    H249195   2.074   7.157  10.479
 8334TIP3   OH249196   2.030   7.409  11.711
 8334TIP3    H149197   2.100   7.402  11.776
 8334TIP3    H249198   2.010   7.318  11.688
 8335TIP3   OH249199   2.481   7.265  11.842
 8335TIP3    H149200   2.563   7.225  11.869
 8335TIP3    H249201   2.458   7.219  11.761
 8336TIP3   OH249202   2.904   7.177  19.934
 8336TIP3    H149203   2.864   7.090  19.924
 8336TIP3    H249204   2.985   7.160  19.982
 8337TIP3   OH249205   3.130   7.138  11.747
 8337TIP3    H149206   3.106   7.053  11.783
 8337TIP3    H249207   3.205   7.166  11.799
 8338TIP3   OH249208   3.333   7.203  10.052
 8338TIP3    H149209   3.309   7.115  10.078
 8338TIP3    H249210   3.425   7.196  10.025
 8339TIP3   OH249211   1.998   6.779  11.792
 8339TIP3    H149212   1.940   6.714  11.833
 8339TIP3    H249213   1.947   6.813  11.718
 8340TIP3   OH249214   2.495   6.757  10.056
 8340TIP3    H149215   2.516   6.704  10.133
 8340TIP3    H249216   2.562   6.825  10.054
 8341TIP3   OH249217   2.667   6.790  11.715
 8341TIP3    H149218   2.651   6.840  11.635
 8341TIP3    H249219   2.679   6.700  11.686
 8342TIP3   OH249220   3.240   6.795  11.488
 8342TIP3    H149221   3.331   6.822  11.474
 8342TIP3    H249222   3.190   6.877  11.484
 8343TIP3   OH249223   2.129   6.456  11.732
 8343TIP3    H149224   2.153   6.368  11.762
 8343TIP3    H249225   2.131   6.510  11.811
 8344TIP3   OH249226   2.585   6.610  10.274
 8344TIP3    H149227   2.525   6.571  10.337
 8344TIP3    H249228   2.626   6.536  10.230
 8345TIP3   OH249229   2.499   6.403  11.453
 8345TIP3    H149230   2.425   6.464  11.454
 8345TIP3    H249231   2.563   6.444  11.396
 8346TIP3   OH249232   2.711   6.434  10.102
 8346TIP3    H149233   2.714   6.451  10.008
 8346TIP3    H249234   2.803   6.425  10.127
 8347TIP3   OH249235   3.026   6.639  11.767
 8347TIP3    H149236   3.116   6.617  11.742
 8347TIP3    H249237   3.007   6.582  11.841
 8348TIP3   OH249238   3.593   6.608  19.990
 8348TIP3    H149239   3.682   6.603  19.956
 8348TIP3    H249240   3.572   6.701  19.989
 8349TIP3   OH249241   2.591   6.153  11.520
 8349TIP3    H149242   2.559   6.090  11.455
 8349TIP3    H249243   2.556   6.237  11.491
 8350TIP3   OH249244   2.602   5.964  11.313
 8350TIP3    H149245   2.652   6.015  11.249
 8350TIP3    H249246   2.513   5.962  11.277
 8351TIP3   OH249247   2.703   6.531  11.320
 8351TIP3    H149248   2.785   6.572  11.349
 8351TIP3    H249249   2.658   6.599  11.271
 8352TIP3   OH249250   3.158   6.250  11.808
 8352TIP3    H149251   3.192   6.181  11.864
 8352TIP3    H249252   3.222   6.321  11.814
 8353TIP3   OH249253   3.302   6.596  11.660
 8353TIP3    H149254   3.272   6.669  11.607
 8353TIP3    H249255   3.398   6.598  11.651
 8354TIP3   OH249256   2.413   6.225  11.761
 8354TIP3    H149257   2.327   6.184  11.756
 8354TIP3    H249258   2.446   6.224  11.672
 8355TIP3   OH249259   2.657   5.696  11.351
 8355TIP3    H149260   2.636   5.788  11.335
 8355TIP3    H249261   2.581   5.648  11.317
 8356TIP3   OH249262   2.762   6.130  11.797
 8356TIP3    H149263   2.813   6.088  11.865
 8356TIP3    H249264   2.671   6.115  11.822
 8357TIP3   OH249265   3.023   6.055  11.660
 8357TIP3    H149266   3.047   6.131  11.712
 8357TIP3    H249267   3.079   5.984  11.693
 8358TIP3   OH249268   3.219   5.924  11.811
 8358TIP3    H149269   3.217   5.829  11.811
 8358TIP3    H249270   3.197   5.948  11.901
 8359TIP3   OH249271   2.194   6.061  11.736
 8359TIP3    H149272   2.173   5.974  11.702
 8359TIP3    H249273   2.144   6.068  11.817
 8360TIP3   OH249274   2.683   5.679  11.623
 8360TIP3    H149275   2.730   5.596  11.629
 8360TIP3    H249276   2.656   5.686  11.531
 8361TIP3   OH249277   2.707   5.808  11.861
 8361TIP3    H149278   2.696   5.762  11.778
 8361TIP3    H249279   2.636   5.872  11.863
 8362TIP3   OH249280   2.666   7.491  10.166
 8362TIP3    H149281   2.762   7.493  10.164
 8362TIP3    H249282   2.639   7.540  10.089
 8363TIP3   OH249283   2.038   6.975  10.125
 8363TIP3    H149284   2.132   6.985  10.137
 8363TIP3    H249285   2.029   6.934  10.039
 8364TIP3   OH249286   1.904   7.472  10.623
 8364TIP3    H149287   1.841   7.434  10.561
 8364TIP3    H249288   1.913   7.406  10.692
 8365TIP3   OH249289   1.966   7.265  10.798
 8365TIP3    H149290   1.909   7.199  10.839
 8365TIP3    H249291   2.028   7.289  10.867
 8366TIP3   OH249292   3.733   7.389  11.085
 8366TIP3    H149293   3.760   7.447  11.157
 8366TIP3    H249294   3.794   7.409  11.014
 8367TIP3   OH249295   3.685   7.319  11.414
 8367TIP3    H149296   3.648   7.244  11.369
 8367TIP3    H249297   3.742   7.280  11.481
 8368TIP3   OH249298   3.531   6.909  11.869
 8368TIP3    H149299   3.447   6.921  11.914
 8368TIP3    H249300   3.585   6.983  11.898
 8369TIP3   OH249301   3.664   6.747  10.393
 8369TIP3    H149302   3.741   6.804  10.398
 8369TIP3    H249303   3.671   6.690  10.469
 8370TIP3   OH249304   3.706   6.565  10.593
 8370TIP3    H149305   3.626   6.523  10.625
 8370TIP3    H249306   3.760   6.576  10.671
 8371TIP3   OH249307   3.681   6.842  11.074
 8371TIP3    H149308   3.742   6.774  11.046
 8371TIP3    H249309   3.719   6.923  11.040
 8372TIP3   OH249310   3.517   7.114  11.324
 8372TIP3    H149311   3.453   7.170  11.368
 8372TIP3    H249312   3.480   7.102  11.236
 8373TIP3   OH249313   3.736   6.558  10.208
 8373TIP3    H149314   3.667   6.567  10.142
 8373TIP3    H249315   3.715   6.625  10.273
 8374TIP3   OH249316   3.528   6.267  10.118
 8374TIP3    H149317   3.474   6.326  10.065
 8374TIP3    H249318   3.518   6.181  10.076
 8375TIP3   OH249319   3.475   6.426  10.659
 8375TIP3    H149320   3.469   6.335  10.630
 8375TIP3    H249321   3.442   6.424  10.749
 8376TIP3   OH249322   1.968   6.627  11.058
 8376TIP3    H149323   1.973   6.607  10.964
 8376TIP3    H249324   2.048   6.589  11.095
 8377TIP3   OH249325   3.576   6.604  11.621
 8377TIP3    H149326   3.632   6.528  11.608
 8377TIP3    H249327   3.625   6.677  11.583
 8378TIP3   OH249328   3.712   6.367  11.613
 8378TIP3    H149329   3.628   6.326  11.631
 8378TIP3    H249330   3.776   6.298  11.625
 8379TIP3   OH249331   3.493   6.022  10.006
 8379TIP3    H149332   3.567   5.975  10.043
 8379TIP3    H249333   3.422   5.958  10.005
 8380TIP3   OH249334   3.457   6.188  10.487
 8380TIP3    H149335   3.481   6.095  10.495
 8380TIP3    H249336   3.533   6.228  10.443
 8381TIP3   OH249337   3.528   6.216  11.033
 8381TIP3    H149338   3.622   6.230  11.022
 8381TIP3    H249339   3.512   6.237  11.125
 8382TIP3   OH249340   3.525   6.318  11.296
 8382TIP3    H149341   3.449   6.356  11.340
 8382TIP3    H249342   3.584   6.392  11.281
 8383TIP3   OH249343   1.958   6.086  11.557
 8383TIP3    H149344   1.991   6.141  11.628
 8383TIP3    H249345   1.899   6.025  11.601
 8384TIP3   OH249346   3.745   5.732  11.819
 8384TIP3    H149347   3.804   5.663  11.786
 8384TIP3    H249348   3.749   5.800  11.752
 8385TIP3   OH249349   3.524   5.921  10.508
 8385TIP3    H149350   3.556   5.886  10.591
 8385TIP3    H249351   3.461   5.856  10.477
 8386TIP3   OH249352   2.059   5.986  10.975
 8386TIP3    H149353   2.097   5.898  10.979
 8386TIP3    H249354   2.134   6.045  10.986
 8387TIP3   OH249355   1.911   6.298  11.040
 8387TIP3    H149356   1.976   6.295  10.970
 8387TIP3    H249357   1.955   6.345  11.111
 8388TIP3   OH249358   3.684   5.931  11.641
 8388TIP3    H149359   3.614   5.965  11.697
 8388TIP3    H249360   3.639   5.887  11.569
 8389TIP3   OH249361   3.710   5.909  10.136
 8389TIP3    H149362   3.775   5.850  10.097
 8389TIP3    H249363   3.762   5.973  10.184
 8390TIP3   OH249364   1.943   5.874  10.423
 8390TIP3    H149365   1.855   5.889  10.458
 8390TIP3    H249366   1.966   5.958  10.382
 8391TIP3   OH249367   3.405   7.412  10.613
 8391TIP3    H149368   3.481   7.382  10.563
 8391TIP3    H249369   3.443   7.448  10.693
 8392TIP3   OH249370   1.923   5.755  11.279
 8392TIP3    H149371   1.859   5.749  11.351
 8392TIP3    H249372   1.884   5.816  11.217
 8393TIP3   OH249373   2.139   7.110  11.698
 8393TIP3    H149374   2.048   7.109  11.669
 8393TIP3    H249375   2.135   7.082  11.789
 8394TIP3   OH249376   2.450   7.211  11.342
 8394TIP3    H149377   2.425   7.299  11.312
 8394TIP3    H249378   2.545   7.208  11.329
 8395TIP3   OH249379   2.874   7.330  11.599
 8395TIP3    H149380   2.878   7.312  11.693
 8395TIP3    H249381   2.958   7.372  11.579
 8396TIP3   OH249382   3.113   7.466  11.557
 8396TIP3    H149383   3.195   7.425  11.530
 8396TIP3    H249384   3.123   7.479  11.652
 8397TIP3   OH249385   3.588   5.714  11.458
 8397TIP3    H149386   3.518   5.736  11.396
 8397TIP3    H249387   3.614   5.625  11.435
 8398TIP3   OH249388   2.170   7.507  11.353
 8398TIP3    H149389   2.087   7.530  11.313
 8398TIP3    H249390   2.151   7.499  11.447
 8399TIP3   OH249391   2.423   7.472  11.263
 8399TIP3    H149392   2.335   7.490  11.296
 8399TIP3    H249393   2.425   7.512  11.176
 8400TIP3   OH249394   2.919   7.450  11.141
 8400TIP3    H149395   2.847   7.479  11.084
 8400TIP3    H249396   2.927   7.519  11.206
 8401TIP3   OH249397   3.103   7.309  11.278
 8401TIP3    H149398   3.029   7.344  11.230
 8401TIP3    H249399   3.168   7.380  11.278
 8402TIP3   OH249400   3.319   7.491  11.274
 8402TIP3    H149401   3.303   7.582  11.248
 8402TIP3    H249402   3.366   7.452  11.201
 8403TIP3   OH249403   2.126   7.324  11.025
 8403TIP3    H149404   2.125   7.278  11.110
 8403TIP3    H249405   2.210   7.300  10.987
 8404TIP3   OH249406   2.357   7.239  10.912
 8404TIP3    H149407   2.341   7.147  10.933
 8404TIP3    H249408   2.444   7.257  10.948
 8405TIP3   OH249409   2.610   7.246  11.029
 8405TIP3    H149410   2.612   7.154  11.002
 8405TIP3    H249411   2.650   7.246  11.116
 8406TIP3   OH249412   2.895   5.823  10.882
 8406TIP3    H149413   2.831   5.760  10.917
 8406TIP3    H249414   2.971   5.769  10.861
 8407TIP3   OH249415   3.450   5.674  10.883
 8407TIP3    H149416   3.517   5.727  10.839
 8407TIP3    H249417   3.367   5.713  10.856
 8408TIP3   OH249418   3.637   5.796  10.724
 8408TIP3    H149419   3.697   5.727  10.693
 8408TIP3    H249420   3.694   5.871  10.742
 8409TIP3   OH249421   2.166   5.701  10.671
 8409TIP3    H149422   2.075   5.685  10.645
 8409TIP3    H249423   2.209   5.616  10.663
 8410TIP3   OH249424   2.062   5.697  10.246
 8410TIP3    H149425   2.121   5.760  10.205
 8410TIP3    H249426   2.018   5.747  10.315
 8411TIP3   OH249427   2.651   5.663  10.666
 8411TIP3    H149428   2.726   5.712  10.634
 8411TIP3    H249429   2.655   5.670  10.761
 8412TIP3   OH249430   3.193   5.739  10.792
 8412TIP3    H149431   3.206   5.736  10.698
 8412TIP3    H249432   3.152   5.655  10.814
 8413TIP3   OH249433   3.342   5.726  10.431
 8413TIP3    H149434   3.262   5.779  10.425
 8413TIP3    H249435   3.311   5.638  10.451
 8414TIP3   OH249436   2.049   7.259  10.340
 8414TIP3    H149437   1.975   7.256  10.279
 8414TIP3    H249438   2.084   7.347  10.330
 8415TIP3   OH249439   2.255   5.855  10.128
 8415TIP3    H149440   2.313   5.871  10.054
 8415TIP3    H249441   2.286   5.916  10.196
 8416TIP3   OH249442   2.747   5.920  10.339
 8416TIP3    H149443   2.784   5.858  10.402
 8416TIP3    H249444   2.767   6.006  10.377
 8417TIP3   OH249445   2.941   7.445  10.159
 8417TIP3    H149446   3.035   7.451  10.176
 8417TIP3    H249447   2.934   7.408  10.071
 8418TIP3   OH249448   3.619   7.345  10.453
 8418TIP3    H149449   3.593   7.256  10.428
 8418TIP3    H249450   3.603   7.397  10.374
 8419TIP3   OH249451   2.171   5.766  11.607
 8419TIP3    H149452   2.106   5.701  11.633
 8419TIP3    H249453   2.243   5.753  11.668
 8420TIP3   OH249454   2.351   5.696  11.807
 8420TIP3    H149455   2.437   5.656  11.796
 8420TIP3    H249456   2.298   5.627  11.847
 8421TIP3   OH249457   2.264   7.474  10.088
 8421TIP3    H149458   2.198   7.492  10.155
 8421TIP3    H249459   2.309   7.395  10.119
 8422TIP3   OH249460   3.230   5.651  11.799
 8422TIP3    H149461   3.220   5.602  11.881
 8422TIP3    H249462   3.323   5.641  11.776
 8423TIP3   OH249463   3.521   7.261  11.685
 8423TIP3    H149464   3.456   7.267  11.614
 8423TIP3    H249465   3.539   7.352  11.708
 8424TIP3   OH249466   4.988   6.655  10.659
 8424TIP3    H149467   4.981   6.750  10.671
 8424TIP3    H249468   4.920   6.634  10.595
 8425TIP3   OH249469   4.853   6.556  11.028
 8425TIP3    H149470   4.875   6.519  11.113
 8425TIP3    H249471   4.806   6.486  10.983
 8426TIP3   OH249472   4.058   6.503  11.169
 8426TIP3    H149473   4.073   6.422  11.218
 8426TIP3    H249474   4.142   6.549  11.174
 8427TIP3   OH249475   5.203   6.852  10.863
 8427TIP3    H149476   5.178   6.774  10.912
 8427TIP3    H249477   5.218   6.918  10.930
 8428TIP3   OH249478   4.200   6.968  10.971
 8428TIP3    H149479   4.171   6.880  10.949
 8428TIP3    H249480   4.292   6.958  10.996
 8429TIP3   OH249481   3.857   6.312  10.548
 8429TIP3    H149482   3.836   6.399  10.582
 8429TIP3    H249483   3.800   6.302  10.471
 8430TIP3   OH249484   3.908   6.549  10.787
 8430TIP3    H149485   3.938   6.462  10.813
 8430TIP3    H249486   3.987   6.602  10.782
 8431TIP3   OH249487   4.917   7.316  10.839
 8431TIP3    H149488   4.998   7.267  10.826
 8431TIP3    H249489   4.895   7.301  10.931
 8432TIP3   OH249490   4.695   6.803  11.044
 8432TIP3    H149491   4.735   6.725  11.007
 8432TIP3    H249492   4.761   6.837  11.105
 8433TIP3   OH249493   5.572   5.947  11.126
 8433TIP3    H149494   5.580   6.013  11.195
 8433TIP3    H249495   5.641   5.968  11.064
 8434TIP3   OH249496   5.037   6.244  11.080
 8434TIP3    H149497   5.053   6.150  11.087
 8434TIP3    H249498   5.017   6.258  10.988
 8435TIP3   OH249499   4.352   6.029  10.782
 8435TIP3    H149500   4.362   6.115  10.740
 8435TIP3    H249501   4.301   5.978  10.720
 8436TIP3   OH249502   5.120   6.099  10.640
 8436TIP3    H149503   5.168   6.058  10.712
 8436TIP3    H249504   5.188   6.139  10.585
 8437TIP3   OH249505   4.004   6.300  10.868
 8437TIP3    H149506   4.069   6.261  10.926
 8437TIP3    H249507   4.026   6.267  10.781
 8438TIP3   OH249508   4.484   6.434  10.830
 8438TIP3    H149509   4.569   6.398  10.854
 8438TIP3    H249510   4.446   6.368  10.771
 8439TIP3   OH249511   5.594   6.107  11.353
 8439TIP3    H149512   5.537   6.181  11.335
 8439TIP3    H249513   5.583   6.089  11.447
 8440TIP3   OH249514   4.224   5.967  11.214
 8440TIP3    H149515   4.191   6.021  11.143
 8440TIP3    H249516   4.158   5.976  11.283
 8441TIP3   OH249517   4.949   6.927  10.557
 8441TIP3    H149518   4.926   6.923  10.464
 8441TIP3    H249519   4.905   7.006  10.589
 8442TIP3   OH249520   4.465   6.727  11.176
 8442TIP3    H149521   4.416   6.800  11.215
 8442TIP3    H249522   4.538   6.769  11.130
 8443TIP3   OH249523   5.279   6.017  10.846
 8443TIP3    H149524   5.244   5.946  10.900
 8443TIP3    H249525   5.343   6.060  10.901
 8444TIP3   OH249526   4.188   6.124  10.987
 8444TIP3    H149527   4.251   6.177  11.035
 8444TIP3    H249528   4.239   6.082  10.917
 8445TIP3   OH249529   4.325   6.931  11.295
 8445TIP3    H149530   4.326   7.026  11.286
 8445TIP3    H249531   4.240   6.912  11.336
 8446TIP3   OH249532   3.904   6.884  10.392
 8446TIP3    H149533   3.902   6.934  10.310
 8446TIP3    H249534   3.932   6.947  10.458
 8447TIP3   OH249535   5.272   7.087  11.078
 8447TIP3    H149536   5.177   7.080  11.089
 8447TIP3    H249537   5.286   7.176  11.046
 8448TIP3   OH249538   5.292   5.861  11.199
 8448TIP3    H149539   5.220   5.902  11.151
 8448TIP3    H249540   5.371   5.890  11.152
 8449TIP3   OH249541   4.587   5.665  10.960
 8449TIP3    H149542   4.556   5.574  10.957
 8449TIP3    H249543   4.511   5.715  10.991
 8450TIP3   OH249544   5.152   7.213  10.745
 8450TIP3    H149545   5.178   7.127  10.711
 8450TIP3    H249546   5.204   7.275  10.694
 8451TIP3   OH249547   5.222   6.974  10.617
 8451TIP3    H149548   5.139   6.947  10.577
 8451TIP3    H249549   5.227   6.923  10.699
 8452TIP3   OH249550   5.389   6.871  11.433
 8452TIP3    H149551   5.380   6.813  11.358
 8452TIP3    H249552   5.397   6.958  11.395
 8453TIP3   OH249553   4.843   6.594  10.428
 8453TIP3    H149554   4.775   6.657  10.406
 8453TIP3    H249555   4.903   6.596  10.353
 8454TIP3   OH249556   4.852   6.410  10.132
 8454TIP3    H149557   4.926   6.456  10.173
 8454TIP3    H249558   4.886   6.322  10.116
 8455TIP3   OH249559   5.570   6.536  11.259
 8455TIP3    H149560   5.496   6.597  11.251
 8455TIP3    H249561   5.624   6.556  11.183
 8456TIP3   OH249562   5.200   6.587  10.502
 8456TIP3    H149563   5.133   6.610  10.566
 8456TIP3    H249564   5.265   6.538  10.552
 8457TIP3   OH249565   5.165   6.404  11.440
 8457TIP3    H149566   5.163   6.474  11.505
 8457TIP3    H249567   5.100   6.430  11.375
 8458TIP3   OH249568   4.346   6.635  10.690
 8458TIP3    H149569   4.314   6.597  10.608
 8458TIP3    H249570   4.399   6.565  10.730
 8459TIP3   OH249571   4.485   6.976  10.957
 8459TIP3    H149572   4.479   6.983  10.861
 8459TIP3    H249573   4.561   6.920  10.972
 8460TIP3   OH249574   4.338   6.525  11.046
 8460TIP3    H149575   4.393   6.502  10.971
 8460TIP3    H249576   4.387   6.594  11.091
 8461TIP3   OH249577   5.005   7.074  11.128
 8461TIP3    H149578   4.993   7.143  11.193
 8461TIP3    H249579   4.963   6.997  11.166
 8462TIP3   OH249580   4.490   6.969  11.518
 8462TIP3    H149581   4.430   7.024  11.569
 8462TIP3    H249582   4.441   6.945  11.440
 8463TIP3   OH249583   5.076   6.536  10.263
 8463TIP3    H149584   5.116   6.561  10.346
 8463TIP3    H249585   5.136   6.570  10.196
 8464TIP3   OH249586   4.168   6.576  11.467
 8464TIP3    H149587   4.175   6.649  11.528
 8464TIP3    H249588   4.074   6.561  11.459
 8465TIP3   OH249589   4.839   7.185  10.604
 8465TIP3    H149590   4.852   7.229  10.688
 8465TIP3    H249591   4.779   7.242  10.556
 8466TIP3   OH249592   4.289   7.135  11.612
 8466TIP3    H149593   4.284   7.166  11.521
 8466TIP3    H249594   4.199   7.114  11.635
 8467TIP3   OH249595   5.454   5.679  10.281
 8467TIP3    H149596   5.367   5.696  10.319
 8467TIP3    H249597   5.485   5.765  10.254
 8468TIP3   OH249598   4.248   6.539  10.444
 8468TIP3    H149599   4.195   6.603  10.398
 8468TIP3    H249600   4.222   6.455  10.406
 8469TIP3   OH249601   5.568   7.118  10.123
 8469TIP3    H149602   5.594   7.209  10.107
 8469TIP3    H249603   5.651   7.070  10.127
 8470TIP3   OH249604   3.865   6.790  11.356
 8470TIP3    H149605   3.833   6.787  11.266
 8470TIP3    H249606   3.880   6.699  11.380
 8471TIP3   OH249607   3.849   7.059  11.003
 8471TIP3    H149608   3.942   7.036  11.002
 8471TIP3    H249609   3.841   7.122  11.074
 8472TIP3   OH249610   5.653   7.142  11.628
 8472TIP3    H149611   5.633   7.049  11.614
 8472TIP3    H249612   5.569   7.180  11.656
 8473TIP3   OH249613   4.741   7.077  11.483
 8473TIP3    H149614   4.749   7.160  11.529
 8473TIP3    H249615   4.653   7.046  11.505
 8474TIP3   OH249616   4.823   7.489  10.447
 8474TIP3    H149617   4.796   7.500  10.356
 8474TIP3    H249618   4.789   7.566  10.493
 8475TIP3   OH249619   4.158   7.289  10.657
 8475TIP3    H149620   4.185   7.270  10.746
 8475TIP3    H249621   4.099   7.217  10.633
 8476TIP3   OH249622   5.091   7.398  10.199
 8476TIP3    H149623   5.140   7.340  10.141
 8476TIP3    H249624   5.083   7.348  10.280
 8477TIP3   OH249625   5.040   7.322  10.453
 8477TIP3    H149626   4.964   7.379  10.462
 8477TIP3    H249627   5.020   7.247  10.510
 8478TIP3   OH249628   5.329   6.270  11.643
 8478TIP3    H149629   5.281   6.314  11.572
 8478TIP3    H249630   5.335   6.179  11.615
 8479TIP3   OH249631   4.087   6.933  11.430
 8479TIP3    H149632   4.104   6.909  11.521
 8479TIP3    H249633   4.008   6.885  11.406
 8480TIP3   OH249634   4.344   5.783  11.040
 8480TIP3    H149635   4.266   5.772  10.986
 8480TIP3    H249636   4.322   5.853  11.101
 8481TIP3   OH249637   4.832   5.746  11.359
 8481TIP3    H149638   4.876   5.698  11.429
 8481TIP3    H249639   4.739   5.732  11.375
 8482TIP3   OH249640   5.090   6.132  11.476
 8482TIP3    H149641   5.033   6.124  11.553
 8482TIP3    H249642   5.100   6.226  11.463
 8483TIP3   OH249643   5.263   6.644  10.090
 8483TIP3    H149644   5.225   6.693  10.018
 8483TIP3    H249645   5.291   6.712  10.152
 8484TIP3   OH249646   4.780   6.033  10.122
 8484TIP3    H149647   4.742   5.991  10.199
 8484TIP3    H249648   4.710   6.034  10.057
 8485TIP3   OH249649   4.355   6.270  11.149
 8485TIP3    H149650   4.291   6.270  11.220
 8485TIP3    H249651   4.355   6.360  11.116
 8486TIP3   OH249652   4.350   6.271  10.654
 8486TIP3    H149653   4.255   6.261  10.642
 8486TIP3    H249654   4.386   6.252  10.567
 8487TIP3   OH249655   4.906   6.343  10.538
 8487TIP3    H149656   4.879   6.429  10.505
 8487TIP3    H249657   4.973   6.314  10.477
 8488TIP3   OH249658   4.796   6.345  11.647
 8488TIP3    H149659   4.749   6.271  11.686
 8488TIP3    H249660   4.877   6.351  11.698
 8489TIP3   OH249661   4.998   6.288  10.811
 8489TIP3    H149662   4.969   6.357  10.751
 8489TIP3    H249663   5.025   6.216  10.753
 8490TIP3   OH249664   4.129   6.274  11.316
 8490TIP3    H149665   4.167   6.315  11.393
 8490TIP3    H249666   4.096   6.190  11.347
 8491TIP3   OH249667   4.488   6.042  10.040
 8491TIP3    H149668   4.450   6.008  10.121
 8491TIP3    H249669   4.414   6.083   9.995
 8492TIP3   OH249670   3.803   6.008  10.754
 8492TIP3    H149671   3.848   6.004  10.839
 8492TIP3    H249672   3.853   6.072  10.704
 8493TIP3   OH249673   3.879   6.093  10.271
 8493TIP3    H149674   3.960   6.125  10.232
 8493TIP3    H249675   3.828   6.172  10.290
 8494TIP3   OH249676   4.944   6.425  11.259
 8494TIP3    H149677   4.984   6.363  11.199
 8494TIP3    H249678   4.874   6.377  11.302
 8495TIP3   OH249679   4.651   6.014  10.749
 8495TIP3    H149680   4.559   6.012  10.777
 8495TIP3    H249681   4.699   5.975  10.821
 8496TIP3   OH249682   4.087   6.189  10.630
 8496TIP3    H149683   4.011   6.219  10.580
 8496TIP3    H249684   4.102   6.099  10.599
 8497TIP3   OH249685   4.446   6.202  10.409
 8497TIP3    H149686   4.542   6.207  10.412
 8497TIP3    H249687   4.422   6.259  10.336
 8498TIP3   OH249688   5.042   5.960  11.072
 8498TIP3    H149689   4.987   5.971  11.149
 8498TIP3    H249690   4.984   5.923  11.006
 8499TIP3   OH249691   4.307   6.337  10.213
 8499TIP3    H149692   4.226   6.306  10.174
 8499TIP3    H249693   4.362   6.361  10.138
 8500TIP3   OH249694   5.318   7.591  11.691
 8500TIP3    H149695   5.339   7.596  11.598
 8500TIP3    H249696   5.403   7.579  11.735
 8501TIP3   OH249697   4.145   6.770  11.671
 8501TIP3    H149698   4.211   6.776  11.740
 8501TIP3    H249699   4.062   6.771  11.717
 8502TIP3   OH249700   4.721   6.316  10.930
 8502TIP3    H149701   4.797   6.277  10.886
 8502TIP3    H249702   4.695   6.252  10.995
 8503TIP3   OH249703   4.177   5.927  10.582
 8503TIP3    H149704   4.128   5.852  10.615
 8503TIP3    H249705   4.220   5.895  10.504
 8504TIP3   OH249706   4.614   6.166  11.154
 8504TIP3    H149707   4.529   6.210  11.155
 8504TIP3    H249708   4.661   6.203  11.228
 8505TIP3   OH249709   4.648   6.789  10.353
 8505TIP3    H149710   4.581   6.732  10.316
 8505TIP3    H249711   4.618   6.806  10.442
 8506TIP3   OH249712   5.366   6.716  11.208
 8506TIP3    H149713   5.421   6.772  11.153
 8506TIP3    H249714   5.290   6.696  11.152
 8507TIP3   OH249715   5.045   6.034  10.216
 8507TIP3    H149716   4.961   6.036  10.170
 8507TIP3    H249717   5.056   6.124  10.247
 8508TIP3   OH249718   4.783   6.799  11.476
 8508TIP3    H149719   4.788   6.770  11.567
 8508TIP3    H249720   4.768   6.893  11.482
 8509TIP3   OH249721   5.105   6.272  10.350
 8509TIP3    H149722   5.190   6.250  10.387
 8509TIP3    H249723   5.115   6.361  10.316
 8510TIP3   OH249724   4.169   6.697  10.893
 8510TIP3    H149725   4.227   6.692  10.818
 8510TIP3    H249726   4.205   6.635  10.956
 8511TIP3   OH249727   4.879   6.933  10.284
 8511TIP3    H149728   4.846   7.023  10.274
 8511TIP3    H249729   4.800   6.880  10.296
 8512TIP3   OH249730   3.889   6.535  11.460
 8512TIP3    H149731   3.873   6.489  11.542
 8512TIP3    H249732   3.818   6.506  11.402
 8513TIP3   OH249733   4.568   6.506  11.653
 8513TIP3    H149734   4.509   6.467  11.589
 8513TIP3    H249735   4.652   6.461  11.638
 8514TIP3   OH249736   5.030   7.061  11.475
 8514TIP3    H149737   4.936   7.069  11.457
 8514TIP3    H249738   5.038   7.082  11.568
 8515TIP3   OH249739   5.586   6.298  10.320
 8515TIP3    H149740   5.528   6.272  10.248
 8515TIP3    H249741   5.611   6.388  10.300
 8516TIP3   OH249742   5.621   6.865  11.573
 8516TIP3    H149743   5.531   6.872  11.541
 8516TIP3    H249744   5.673   6.847  11.495
 8517TIP3   OH249745   5.436   7.105  10.366
 8517TIP3    H149746   5.373   7.035  10.383
 8517TIP3    H249747   5.464   7.090  10.276
 8518TIP3   OH249748   5.148   6.630  11.031
 8518TIP3    H149749   5.054   6.614  11.021
 8518TIP3    H249750   5.189   6.554  10.991
 8519TIP3   OH249751   4.410   7.045  10.689
 8519TIP3    H149752   4.432   7.128  10.647
 8519TIP3    H249753   4.316   7.034  10.674
 8520TIP3   OH249754   3.996   6.527  10.118
 8520TIP3    H149755   4.047   6.594  10.163
 8520TIP3    H249756   3.906   6.543  10.146
 8521TIP3   OH249757   4.534   6.819  10.596
 8521TIP3    H149758   4.503   6.904  10.629
 8521TIP3    H249759   4.474   6.755  10.635
 8522TIP3   OH249760   4.605   7.226  11.284
 8522TIP3    H149761   4.625   7.315  11.313
 8522TIP3    H249762   4.668   7.171  11.330
 8523TIP3   OH249763   4.415   7.293  10.562
 8523TIP3    H149764   4.322   7.302  10.581
 8523TIP3    H249765   4.455   7.370  10.603
 8524TIP3   OH249766   4.901   6.834  11.230
 8524TIP3    H149767   4.863   6.817  11.316
 8524TIP3    H249768   4.972   6.770  11.222
 8525TIP3   OH249769   5.151   6.954  10.155
 8525TIP3    H149770   5.200   6.908  10.224
 8525TIP3    H249771   5.060   6.950  10.184
 8526TIP3   OH249772   5.227   7.278  11.453
 8526TIP3    H149773   5.155   7.217  11.440
 8526TIP3    H249774   5.214   7.346  11.386
 8527TIP3   OH249775   5.650   7.379  10.117
 8527TIP3    H149776   5.721   7.440  10.134
 8527TIP3    H249777   5.571   7.426  10.144
 8528TIP3   OH249778   4.048   6.023  11.427
 8528TIP3    H149779   3.980   6.068  11.478
 8528TIP3    H249780   4.059   5.939  11.471
 8529TIP3   OH249781   5.290   6.798  10.337
 8529TIP3    H149782   5.246   6.745  10.403
 8529TIP3    H249783   5.383   6.793  10.360
 8530TIP3   OH249784   4.021   7.174  11.263
 8530TIP3    H149785   4.049   7.094  11.309
 8530TIP3    H249786   4.030   7.243  11.328
 8531TIP3   OH249787   4.439   7.017  10.250
 8531TIP3    H149788   4.514   6.967  10.281
 8531TIP3    H249789   4.462   7.108  10.266
 8532TIP3   OH249790   4.103   6.719  10.290
 8532TIP3    H149791   4.032   6.762  10.336
 8532TIP3    H249792   4.149   6.791  10.245
 8533TIP3   OH249793   4.908   6.007  11.312
 8533TIP3    H149794   4.982   6.026  11.369
 8533TIP3    H249795   4.883   5.917  11.334
 8534TIP3   OH249796   5.003   5.917  10.462
 8534TIP3    H149797   5.017   5.952  10.374
 8534TIP3    H249798   5.039   5.984  10.520
 8535TIP3   OH249799   4.764   7.182  10.264
 8535TIP3    H149800   4.673   7.203  10.282
 8535TIP3    H249801   4.804   7.266  10.240
 8536TIP3   OH249802   4.710   6.150  10.511
 8536TIP3    H149803   4.780   6.213  10.524
 8536TIP3    H249804   4.691   6.116  10.598
 8537TIP3   OH249805   4.770   6.247  11.377
 8537TIP3    H149806   4.776   6.270  11.470
 8537TIP3    H249807   4.813   6.162  11.371
 8538TIP3   OH249808   4.769   5.822  10.570
 8538TIP3    H149809   4.740   5.890  10.631
 8538TIP3    H249810   4.854   5.853  10.538
 8539TIP3   OH249811   4.510   7.274  10.307
 8539TIP3    H149812   4.510   7.362  10.268
 8539TIP3    H249813   4.475   7.288  10.395
 8540TIP3   OH249814   4.369   5.963  10.284
 8540TIP3    H149815   4.373   6.045  10.333
 8540TIP3    H249816   4.453   5.920  10.303
 8541TIP3   OH249817   5.341   6.029  11.491
 8541TIP3    H149818   5.247   6.047  11.486
 8541TIP3    H249819   5.365   6.000  11.403
 8542TIP3   OH249820   5.251   6.397  10.908
 8542TIP3    H149821   5.168   6.351  10.893
 8542TIP3    H249822   5.303   6.335  10.959
 8543TIP3   OH249823   4.195   6.947  10.148
 8543TIP3    H149824   4.268   6.990  10.193
 8543TIP3    H249825   4.237   6.883  10.091
 8544TIP3   OH249826   4.052   6.263  10.110
 8544TIP3    H149827   4.033   6.357  10.112
 8544TIP3    H249828   4.007   6.232  10.031
 8545TIP3   OH249829   5.352   7.370  11.078
 8545TIP3    H149830   5.339   7.417  10.995
 8545TIP3    H249831   5.447   7.364  11.088
 8546TIP3   OH249832   4.084   5.748  10.945
 8546TIP3    H149833   4.073   5.736  10.851
 8546TIP3    H249834   4.057   5.664  10.983
 8547TIP3   OH249835   3.971   7.097  10.570
 8547TIP3    H149836   3.901   7.121  10.630
 8547TIP3    H249837   3.958   7.154  10.494
 8548TIP3   OH249838   3.898   7.384  11.676
 8548TIP3    H149839   3.959   7.378  11.750
 8548TIP3    H249840   3.862   7.295  11.669
 8549TIP3   OH249841   4.328   7.279  11.850
 8549TIP3    H149842   4.418   7.290  11.878
 8549TIP3    H249843   4.333   7.221  11.774
 8550TIP3   OH249844   4.791   7.176  19.929
 8550TIP3    H149845   4.753   7.089  19.919
 8550TIP3    H249846   4.858   7.166  19.997
 8551TIP3   OH249847   5.045   7.119  11.740
 8551TIP3    H149848   5.009   7.042  11.784
 8551TIP3    H249849   5.115   7.149  11.798
 8552TIP3   OH249850   5.226   7.207  10.058
 8552TIP3    H149851   5.201   7.119  10.085
 8552TIP3    H249852   5.317   7.199  10.029
 8553TIP3   OH249853   3.890   6.778  11.796
 8553TIP3    H149854   3.843   6.702  11.832
 8553TIP3    H249855   3.833   6.811  11.727
 8554TIP3   OH249856   4.347   6.744  10.049
 8554TIP3    H149857   4.376   6.701  10.130
 8554TIP3    H249858   4.428   6.757   9.999
 8555TIP3   OH249859   4.556   6.782  11.711
 8555TIP3    H149860   4.539   6.831  11.631
 8555TIP3    H249861   4.563   6.691  11.682
 8556TIP3   OH249862   5.132   6.795  11.503
 8556TIP3    H149863   5.221   6.822  11.484
 8556TIP3    H249864   5.079   6.873  11.488
 8557TIP3   OH249865   4.010   6.450  11.749
 8557TIP3    H149866   4.102   6.438  11.728
 8557TIP3    H249867   4.010   6.500  11.831
 8558TIP3   OH249868   4.457   6.611  10.266
 8558TIP3    H149869   4.397   6.575  10.331
 8558TIP3    H249870   4.494   6.535  10.222
 8559TIP3   OH249871   4.376   6.398  11.440
 8559TIP3    H149872   4.310   6.467  11.449
 8559TIP3    H249873   4.448   6.439  11.391
 8560TIP3   OH249874   4.576   6.425  10.099
 8560TIP3    H149875   4.582   6.431  10.004
 8560TIP3    H249876   4.667   6.415  10.129
 8561TIP3   OH249877   4.943   6.641  11.816
 8561TIP3    H149878   5.009   6.595  11.764
 8561TIP3    H249879   4.897   6.572  11.864
 8562TIP3   OH249880   5.483   6.604  20.012
 8562TIP3    H149881   5.566   6.610  19.963
 8562TIP3    H249882   5.447   6.693  20.009
 8563TIP3   OH249883   4.438   6.150  11.545
 8563TIP3    H149884   4.452   6.084  11.477
 8563TIP3    H249885   4.422   6.231  11.496
 8564TIP3   OH249886   4.477   5.977  11.322
 8564TIP3    H149887   4.531   6.021  11.256
 8564TIP3    H249888   4.389   5.976  11.284
 8565TIP3   OH249889   4.583   6.536  11.332
 8565TIP3    H149890   4.671   6.569  11.353
 8565TIP3    H249891   4.544   6.605  11.278
 8566TIP3   OH249892   5.043   6.304  11.814
 8566TIP3    H149893   5.024   6.216  11.783
 8566TIP3    H249894   5.130   6.324  11.780
 8567TIP3   OH249895   5.182   6.578  11.659
 8567TIP3    H149896   5.154   6.657  11.615
 8567TIP3    H249897   5.277   6.586  11.666
 8568TIP3   OH249898   4.271   6.223  11.761
 8568TIP3    H149899   4.195   6.167  11.752
 8568TIP3    H249900   4.325   6.204  11.684
 8569TIP3   OH249901   4.555   5.713  11.355
 8569TIP3    H149902   4.527   5.804  11.345
 8569TIP3    H249903   4.482   5.661  11.321
 8570TIP3   OH249904   4.650   6.127  11.725
 8570TIP3    H149905   4.610   6.093  11.806
 8570TIP3    H249906   4.578   6.129  11.662
 8571TIP3   OH249907   4.931   6.080  11.692
 8571TIP3    H149908   4.838   6.069  11.710
 8571TIP3    H249909   4.973   6.006  11.736
 8572TIP3   OH249910   5.115   5.924  11.838
 8572TIP3    H149911   5.102   5.829  11.829
 8572TIP3    H249912   5.084   5.944  11.926
 8573TIP3   OH249913   4.069   6.029  11.755
 8573TIP3    H149914   4.072   5.945  11.709
 8573TIP3    H249915   4.072   6.005  11.848
 8574TIP3   OH249916   4.556   5.668  11.626
 8574TIP3    H149917   4.602   5.584  11.628
 8574TIP3    H249918   4.549   5.689  11.532
 8575TIP3   OH249919   4.588   5.806  11.856
 8575TIP3    H149920   4.578   5.760  11.772
 8575TIP3    H249921   4.522   5.875  11.853
 8576TIP3   OH249922   4.559   7.508  10.172
 8576TIP3    H149923   4.654   7.498  10.162
 8576TIP3    H249924   4.531   7.552  10.091
 8577TIP3   OH249925   3.924   6.978  10.128
 8577TIP3    H149926   4.018   6.987  10.140
 8577TIP3    H249927   3.914   6.929  10.047
 8578TIP3   OH249928   3.786   7.478  10.622
 8578TIP3    H149929   3.724   7.438  10.561
 8578TIP3    H249930   3.795   7.414  10.692
 8579TIP3   OH249931   3.848   7.282  10.809
 8579TIP3    H149932   3.793   7.213  10.845
 8579TIP3    H249933   3.916   7.295  10.875
 8580TIP3   OH249934   5.621   7.395  11.070
 8580TIP3    H149935   5.654   7.453  11.139
 8580TIP3    H249936   5.673   7.418  10.993
 8581TIP3   OH249937   5.580   7.319  11.412
 8581TIP3    H149938   5.540   7.249  11.360
 8581TIP3    H249939   5.632   7.272  11.478
 8582TIP3   OH249940   5.414   6.918  11.852
 8582TIP3    H149941   5.341   6.968  11.816
 8582TIP3    H249942   5.468   6.983  11.897
 8583TIP3   OH249943   5.553   6.742  10.396
 8583TIP3    H149944   5.629   6.800  10.400
 8583TIP3    H249945   5.561   6.685  10.472
 8584TIP3   OH249946   5.598   6.562  10.599
 8584TIP3    H149947   5.517   6.521  10.629
 8584TIP3    H249948   5.650   6.576  10.678
 8585TIP3   OH249949   5.576   6.846  11.089
 8585TIP3    H149950   5.633   6.777  11.056
 8585TIP3    H249951   5.610   6.926  11.050
 8586TIP3   OH249952   5.412   7.118  11.316
 8586TIP3    H149953   5.346   7.171  11.360
 8586TIP3    H249954   5.376   7.103  11.229
 8587TIP3   OH249955   5.623   6.552  10.211
 8587TIP3    H149956   5.552   6.556  10.146
 8587TIP3    H249957   5.601   6.619  10.275
 8588TIP3   OH249958   5.429   6.262  10.104
 8588TIP3    H149959   5.371   6.319  10.053
 8588TIP3    H249960   5.415   6.175  10.069
 8589TIP3   OH249961   5.366   6.424  10.658
 8589TIP3    H149962   5.358   6.334  10.627
 8589TIP3    H249963   5.331   6.422  10.747
 8590TIP3   OH249964   3.849   6.627  11.047
 8590TIP3    H149965   3.858   6.607  10.954
 8590TIP3    H249966   3.930   6.593  11.086
 8591TIP3   OH249967   5.462   6.607  11.644
 8591TIP3    H149968   5.514   6.528  11.629
 8591TIP3    H249969   5.507   6.675  11.595
 8592TIP3   OH249970   5.588   6.368  11.629
 8592TIP3    H149971   5.502   6.327  11.635
 8592TIP3    H249972   5.650   6.298  11.644
 8593TIP3   OH249973   5.378   6.015  10.006
 8593TIP3    H149974   5.446   5.963  10.047
 8593TIP3    H249975   5.299   5.960  10.011
 8594TIP3   OH249976   5.345   6.188  10.485
 8594TIP3    H149977   5.365   6.095  10.494
 8594TIP3    H249978   5.420   6.225  10.439
 8595TIP3   OH249979   5.410   6.219  11.049
 8595TIP3    H149980   5.503   6.236  11.037
 8595TIP3    H249981   5.393   6.239  11.141
 8596TIP3   OH249982   5.411   6.315  11.313
 8596TIP3    H149983   5.329   6.350  11.348
 8596TIP3    H249984   5.466   6.392  11.299
 8597TIP3   OH249985   3.862   6.133  11.606
 8597TIP3    H149986   3.933   6.122  11.669
 8597TIP3    H249987   3.801   6.062  11.626
 8598TIP3   OH249988   5.631   5.733  11.819
 8598TIP3    H149989   5.686   5.662  11.786
 8598TIP3    H249990   5.632   5.798  11.749
 8599TIP3   OH249991   5.409   5.920  10.505
 8599TIP3    H149992   5.436   5.884  10.589
 8599TIP3    H249993   5.343   5.858  10.472
 8600TIP3   OH249994   3.940   5.980  10.992
 8600TIP3    H149995   3.983   5.895  10.987
 8600TIP3    H249996   4.013   6.043  10.996
 8601TIP3   OH249997   3.795   6.289  11.053
 8601TIP3    H149998   3.859   6.287  10.982
 8601TIP3    H249999   3.835   6.344  11.120
 8602TIP3   OH250000   5.575   5.915  11.620
 8602TIP3    H150001   5.495   5.955  11.656
 8602TIP3    H250002   5.543   5.856  11.551
 8603TIP3   OH250003   5.590   5.901  10.145
 8603TIP3    H150004   5.652   5.838  10.108
 8603TIP3    H250005   5.645   5.968  10.185
 8604TIP3   OH250006   3.809   5.879  10.431
 8604TIP3    H150007   3.723   5.903  10.466
 8604TIP3    H250008   3.841   5.959  10.389
 8605TIP3   OH250009   5.295   7.412  10.613
 8605TIP3    H150010   5.371   7.383  10.564
 8605TIP3    H250011   5.331   7.451  10.693
 8606TIP3   OH250012   3.814   5.754  11.284
 8606TIP3    H150013   3.752   5.753  11.356
 8606TIP3    H250014   3.774   5.810  11.217
 8607TIP3   OH250015   4.032   7.081  11.699
 8607TIP3    H150016   3.943   7.100  11.667
 8607TIP3    H250017   4.023   7.081  11.794
 8608TIP3   OH250018   4.337   7.202  11.341
 8608TIP3    H150019   4.309   7.289  11.313
 8608TIP3    H250020   4.432   7.201  11.326
 8609TIP3   OH250021   4.764   7.328  11.592
 8609TIP3    H150022   4.769   7.300  11.684
 8609TIP3    H250023   4.847   7.374  11.576
 8610TIP3   OH250024   5.004   7.456  11.553
 8610TIP3    H150025   5.072   7.398  11.518
 8610TIP3    H250026   5.026   7.466  11.645
 8611TIP3   OH250027   5.474   5.705  11.451
 8611TIP3    H150028   5.398   5.719  11.394
 8611TIP3    H250029   5.500   5.615  11.434
 8612TIP3   OH250030   4.049   7.487  11.358
 8612TIP3    H150031   3.969   7.515  11.312
 8612TIP3    H250032   4.034   7.511  11.449
 8613TIP3   OH250033   4.307   7.466  11.273
 8613TIP3    H150034   4.218   7.479  11.306
 8613TIP3    H250035   4.307   7.508  11.187
 8614TIP3   OH250036   4.813   7.455  11.125
 8614TIP3    H150037   4.736   7.481  11.075
 8614TIP3    H250038   4.818   7.520  11.196
 8615TIP3   OH250039   4.996   7.313  11.267
 8615TIP3    H150040   4.922   7.347  11.218
 8615TIP3    H250041   5.059   7.385  11.267
 8616TIP3   OH250042   5.212   7.496  11.274
 8616TIP3    H150043   5.188   7.584  11.246
 8616TIP3    H250044   5.257   7.458  11.199
 8617TIP3   OH250045   4.020   7.318  11.025
 8617TIP3    H150046   4.012   7.278  11.112
 8617TIP3    H250047   4.104   7.288  10.993
 8618TIP3   OH250048   4.248   7.230  10.909
 8618TIP3    H150049   4.233   7.138  10.929
 8618TIP3    H250050   4.334   7.249  10.946
 8619TIP3   OH250051   4.499   7.242  11.030
 8619TIP3    H150052   4.503   7.151  11.002
 8619TIP3    H250053   4.538   7.242  11.117
 8620TIP3   OH250054   4.813   5.842  10.904
 8620TIP3    H150055   4.746   5.778  10.927
 8620TIP3    H250056   4.880   5.792  10.857
 8621TIP3   OH250057   5.331   5.674  10.880
 8621TIP3    H150058   5.395   5.728  10.834
 8621TIP3    H250059   5.246   5.706  10.850
 8622TIP3   OH250060   5.519   5.793  10.721
 8622TIP3    H150061   5.580   5.726  10.689
 8622TIP3    H250062   5.575   5.868  10.742
 8623TIP3   OH250063   4.048   5.700  10.675
 8623TIP3    H150064   3.957   5.684  10.651
 8623TIP3    H250065   4.091   5.615  10.664
 8624TIP3   OH250066   3.928   5.695  10.268
 8624TIP3    H150067   3.996   5.751  10.229
 8624TIP3    H250068   3.887   5.751  10.334
 8625TIP3   OH250069   4.518   5.683  10.668
 8625TIP3    H150070   4.597   5.706  10.620
 8625TIP3    H250071   4.539   5.699  10.760
 8626TIP3   OH250072   5.072   5.729  10.785
 8626TIP3    H150073   5.081   5.724  10.690
 8626TIP3    H250074   5.029   5.647  10.809
 8627TIP3   OH250075   5.220   5.730  10.425
 8627TIP3    H150076   5.141   5.781  10.407
 8627TIP3    H250077   5.188   5.643  10.448
 8628TIP3   OH250078   3.919   7.260  10.362
 8628TIP3    H150079   3.833   7.260  10.320
 8628TIP3    H250080   3.963   7.337  10.327
 8629TIP3   OH250081   4.132   5.843  10.149
 8629TIP3    H150082   4.162   5.756  10.123
 8629TIP3    H250083   4.210   5.884  10.187
 8630TIP3   OH250084   4.643   5.938  10.347
 8630TIP3    H150085   4.673   5.865  10.401
 8630TIP3    H250086   4.666   6.016  10.397
 8631TIP3   OH250087   4.828   7.442  10.150
 8631TIP3    H150088   4.920   7.448  10.173
 8631TIP3    H250089   4.827   7.407  10.061
 8632TIP3   OH250090   5.510   7.348  10.452
 8632TIP3    H150091   5.485   7.258  10.431
 8632TIP3    H250092   5.488   7.397  10.373
 8633TIP3   OH250093   4.055   5.776  11.614
 8633TIP3    H150094   3.991   5.708  11.635
 8633TIP3    H250095   4.131   5.754  11.668
 8634TIP3   OH250096   4.241   5.697  11.804
 8634TIP3    H150097   4.329   5.664  11.785
 8634TIP3    H250098   4.196   5.623  11.844
 8635TIP3   OH250099   4.158   7.477  10.082
 8635TIP3    H150100   4.092   7.487  10.150
 8635TIP3    H250101   4.202   7.394  10.103
 8636TIP3   OH250102   5.109   5.649  11.796
 8636TIP3    H150103   5.099   5.599  11.877
 8636TIP3    H250104   5.202   5.641  11.774
 8637TIP3   OH250105   5.409   7.274  11.678
 8637TIP3    H150106   5.348   7.280  11.605
 8637TIP3    H250107   5.440   7.364  11.692
 8638TIP3   OH250108   6.866   6.650  10.670
 8638TIP3    H150109   6.840   6.736  10.703
 8638TIP3    H250110   6.801   6.630  10.603
 8639TIP3   OH250111   6.714   6.560  11.015
 8639TIP3    H150112   6.746   6.527  11.099
 8639TIP3    H250113   6.667   6.486  10.976
 8640TIP3   OH250114   5.954   6.511  11.176
 8640TIP3    H150115   5.967   6.423  11.212
 8640TIP3    H250116   6.020   6.565  11.220
 8641TIP3   OH250117   7.121   6.886  10.866
 8641TIP3    H150118   7.086   6.809  10.912
 8641TIP3    H250119   7.140   6.949  10.936
 8642TIP3   OH250120   6.085   6.970  10.974
 8642TIP3    H150121   6.055   6.882  10.952
 8642TIP3    H250122   6.176   6.958  11.002
 8643TIP3   OH250123   5.743   6.317  10.546
 8643TIP3    H150124   5.715   6.403  10.577
 8643TIP3    H250125   5.684   6.297  10.474
 8644TIP3   OH250126   5.797   6.557  10.797
 8644TIP3    H150127   5.825   6.468  10.820
 8644TIP3    H250128   5.878   6.608  10.796
 8645TIP3   OH250129   6.816   7.368  10.887
 8645TIP3    H150130   6.853   7.281  10.871
 8645TIP3    H250131   6.775   7.360  10.974
 8646TIP3   OH250132   6.585   6.809  11.047
 8646TIP3    H150133   6.619   6.725  11.014
 8646TIP3    H250134   6.649   6.837  11.112
 8647TIP3   OH250135   7.426   5.973  11.107
 8647TIP3    H150136   7.445   6.025  11.185
 8647TIP3    H250137   7.463   6.024  11.034
 8648TIP3   OH250138   6.921   6.242  11.078
 8648TIP3    H150139   6.938   6.149  11.090
 8648TIP3    H250140   6.905   6.252  10.985
 8649TIP3   OH250141   6.235   6.031  10.781
 8649TIP3    H150142   6.244   6.116  10.738
 8649TIP3    H250143   6.178   5.980  10.723
 8650TIP3   OH250144   6.994   6.097  10.632
 8650TIP3    H150145   7.034   6.060  10.710
 8650TIP3    H250146   7.068   6.135  10.583
 8651TIP3   OH250147   5.888   6.304  10.869
 8651TIP3    H150148   5.952   6.261  10.925
 8651TIP3    H250149   5.907   6.271  10.781
 8652TIP3   OH250150   6.376   6.434  10.818
 8652TIP3    H150151   6.456   6.391  10.848
 8652TIP3    H250152   6.334   6.369  10.762
 8653TIP3   OH250153   7.446   6.098  11.351
 8653TIP3    H150154   7.386   6.170  11.335
 8653TIP3    H250155   7.486   6.117  11.435
 8654TIP3   OH250156   6.112   5.965  11.209
 8654TIP3    H150157   6.082   6.023  11.139
 8654TIP3    H250158   6.043   5.969  11.275
 8655TIP3   OH250159   6.837   6.932  10.539
 8655TIP3    H150160   6.815   6.919  10.446
 8655TIP3    H250161   6.781   7.004  10.567
 8656TIP3   OH250162   6.353   6.732  11.176
 8656TIP3    H150163   6.304   6.803  11.217
 8656TIP3    H250164   6.426   6.775  11.131
 8657TIP3   OH250165   7.120   6.027  10.862
 8657TIP3    H150166   7.066   5.982  10.927
 8657TIP3    H250167   7.176   6.086  10.913
 8658TIP3   OH250168   6.075   6.129  10.987
 8658TIP3    H150169   6.137   6.183  11.036
 8658TIP3    H250170   6.127   6.088  10.918
 8659TIP3   OH250171   6.217   6.936  11.300
 8659TIP3    H150172   6.217   7.031  11.292
 8659TIP3    H250173   6.131   6.915  11.336
 8660TIP3   OH250174   5.789   6.884  10.389
 8660TIP3    H150175   5.785   6.934  10.308
 8660TIP3    H250176   5.816   6.949  10.455
 8661TIP3   OH250177   7.157   7.081  11.069
 8661TIP3    H150178   7.063   7.078  11.088
 8661TIP3    H250179   7.176   7.174  11.058
 8662TIP3   OH250180   7.176   5.851  11.184
 8662TIP3    H150181   7.100   5.897  11.149
 8662TIP3    H250182   7.252   5.898  11.148
 8663TIP3   OH250183   6.470   5.661  10.953
 8663TIP3    H150184   6.440   5.570  10.960
 8663TIP3    H250185   6.394   5.713  10.981
 8664TIP3   OH250186   6.971   7.211  10.699
 8664TIP3    H150187   7.012   7.125  10.687
 8664TIP3    H250188   7.044   7.273  10.691
 8665TIP3   OH250189   7.100   6.979  10.605
 8665TIP3    H150190   7.012   6.949  10.582
 8665TIP3    H250191   7.118   6.939  10.690
 8666TIP3   OH250192   7.250   6.862  11.423
 8666TIP3    H150193   7.239   6.801  11.350
 8666TIP3    H250194   7.264   6.947  11.382
 8667TIP3   OH250195   6.728   6.592  10.435
 8667TIP3    H150196   6.658   6.653  10.414
 8667TIP3    H250197   6.783   6.590  10.357
 8668TIP3   OH250198   6.750   6.423  10.123
 8668TIP3    H150199   6.821   6.460  10.175
 8668TIP3    H250200   6.774   6.332  10.109
 8669TIP3   OH250201   7.411   6.503  11.220
 8669TIP3    H150202   7.341   6.569  11.219
 8669TIP3    H250203   7.469   6.529  11.148
 8670TIP3   OH250204   7.082   6.619  10.507
 8670TIP3    H150205   7.012   6.639  10.569
 8670TIP3    H250206   7.139   6.559  10.554
 8671TIP3   OH250207   7.029   6.393  11.432
 8671TIP3    H150208   7.027   6.463  11.498
 8671TIP3    H250209   6.968   6.423  11.365
 8672TIP3   OH250210   6.234   6.638  10.692
 8672TIP3    H150211   6.201   6.603  10.610
 8672TIP3    H250212   6.286   6.567  10.730
 8673TIP3   OH250213   6.372   6.978  10.957
 8673TIP3    H150214   6.364   6.984  10.861
 8673TIP3    H250215   6.448   6.922  10.971
 8674TIP3   OH250216   6.238   6.524  11.040
 8674TIP3    H150217   6.293   6.504  10.965
 8674TIP3    H250218   6.283   6.595  11.085
 8675TIP3   OH250219   6.896   7.067  11.142
 8675TIP3    H150220   6.880   7.138  11.203
 8675TIP3    H250221   6.851   6.992  11.180
 8676TIP3   OH250222   6.387   6.975  11.520
 8676TIP3    H150223   6.325   7.027  11.570
 8676TIP3    H250224   6.338   6.947  11.442
 8677TIP3   OH250225   6.964   6.531  10.275
 8677TIP3    H150226   7.000   6.566  10.357
 8677TIP3    H250227   7.030   6.552  10.209
 8678TIP3   OH250228   6.052   6.581  11.455
 8678TIP3    H150229   6.060   6.650  11.520
 8678TIP3    H250230   5.959   6.562  11.451
 8679TIP3   OH250231   6.708   7.172  10.595
 8679TIP3    H150232   6.773   7.203  10.658
 8679TIP3    H250233   6.653   7.248  10.577
 8680TIP3   OH250234   6.177   7.137  11.609
 8680TIP3    H150235   6.175   7.166  11.518
 8680TIP3    H250236   6.086   7.119  11.632
 8681TIP3   OH250237   7.318   5.663  10.240
 8681TIP3    H150238   7.225   5.665  10.262
 8681TIP3    H250239   7.348   5.753  10.253
 8682TIP3   OH250240   6.140   6.544  10.443
 8682TIP3    H150241   6.087   6.609  10.396
 8682TIP3    H250242   6.105   6.460  10.416
 8683TIP3   OH250243   7.471   7.072  10.112
 8683TIP3    H150244   7.480   7.167  10.122
 8683TIP3    H250245   7.558   7.038  10.130
 8684TIP3   OH250246   5.753   6.791  11.343
 8684TIP3    H150247   5.709   6.793  11.258
 8684TIP3    H250248   5.764   6.698  11.362
 8685TIP3   OH250249   5.737   7.061  11.005
 8685TIP3    H150250   5.830   7.039  11.007
 8685TIP3    H250251   5.727   7.129  11.072
 8686TIP3   OH250252   7.540   7.140  11.604
 8686TIP3    H150253   7.528   7.045  11.602
 8686TIP3    H250254   7.459   7.173  11.643
 8687TIP3   OH250255   6.635   7.084  11.473
 8687TIP3    H150256   6.640   7.164  11.526
 8687TIP3    H250257   6.548   7.048  11.494
 8688TIP3   OH250258   6.697   7.476  10.460
 8688TIP3    H150259   6.661   7.497  10.373
 8688TIP3    H250260   6.656   7.540  10.519
 8689TIP3   OH250261   6.047   7.283  10.649
 8689TIP3    H150262   6.071   7.266  10.740
 8689TIP3    H250263   5.985   7.214  10.627
 8690TIP3   OH250264   6.960   7.415  10.188
 8690TIP3    H150265   6.977   7.349  10.121
 8690TIP3    H250266   6.952   7.365  10.270
 8691TIP3   OH250267   6.924   7.326  10.440
 8691TIP3    H150268   6.843   7.374  10.457
 8691TIP3    H250269   6.935   7.269  10.517
 8692TIP3   OH250270   7.244   6.274  11.598
 8692TIP3    H150271   7.155   6.305  11.583
 8692TIP3    H250272   7.234   6.181  11.617
 8693TIP3   OH250273   5.973   6.932  11.424
 8693TIP3    H150274   5.991   6.900  11.512
 8693TIP3    H250275   5.896   6.884  11.395
 8694TIP3   OH250276   6.230   5.783  11.031
 8694TIP3    H150277   6.150   5.771  10.980
 8694TIP3    H250278   6.208   5.853  11.093
 8695TIP3   OH250279   6.715   5.742  11.370
 8695TIP3    H150280   6.760   5.699  11.443
 8695TIP3    H250281   6.622   5.730  11.389
 8696TIP3   OH250282   7.003   6.116  11.466
 8696TIP3    H150283   6.942   6.107  11.538
 8696TIP3    H250284   7.004   6.210  11.446
 8697TIP3   OH250285   7.136   6.637  10.088
 8697TIP3    H150286   7.069   6.668  10.026
 8697TIP3    H250287   7.146   6.709  10.151
 8698TIP3   OH250288   6.658   6.034  10.121
 8698TIP3    H150289   6.619   5.994  10.198
 8698TIP3    H250290   6.587   6.040  10.057
 8699TIP3   OH250291   6.241   6.274  11.152
 8699TIP3    H150292   6.175   6.275  11.221
 8699TIP3    H250293   6.241   6.363  11.117
 8700TIP3   OH250294   6.235   6.270  10.648
 8700TIP3    H150295   6.140   6.262  10.640
 8700TIP3    H250296   6.269   6.248  10.562
 8701TIP3   OH250297   6.786   6.340  10.541
 8701TIP3    H150298   6.761   6.426  10.508
 8701TIP3    H250299   6.850   6.307  10.478
 8702TIP3   OH250300   6.667   6.336  11.644
 8702TIP3    H150301   6.624   6.257  11.678
 8702TIP3    H250302   6.748   6.343  11.696
 8703TIP3   OH250303   6.875   6.297  10.811
 8703TIP3    H150304   6.838   6.370  10.760
 8703TIP3    H250305   6.894   6.230  10.746
 8704TIP3   OH250306   6.015   6.273  11.315
 8704TIP3    H150307   6.044   6.313  11.398
 8704TIP3    H250308   5.975   6.190  11.341
 8705TIP3   OH250309   6.356   6.047  10.036
 8705TIP3    H150310   6.320   6.021  10.121
 8705TIP3    H250311   6.285   6.033   9.975
 8706TIP3   OH250312   5.688   6.001  10.758
 8706TIP3    H150313   5.733   6.004  10.842
 8706TIP3    H250314   5.745   6.050  10.698
 8707TIP3   OH250315   5.764   6.090  10.267
 8707TIP3    H150316   5.845   6.125  10.230
 8707TIP3    H250317   5.712   6.168  10.287
 8708TIP3   OH250318   6.823   6.435  11.240
 8708TIP3    H150319   6.864   6.370  11.184
 8708TIP3    H250320   6.756   6.387  11.289
 8709TIP3   OH250321   6.523   6.001  10.744
 8709TIP3    H150322   6.432   6.003  10.773
 8709TIP3    H250323   6.572   5.969  10.820
 8710TIP3   OH250324   5.972   6.194  10.629
 8710TIP3    H150325   5.894   6.226  10.583
 8710TIP3    H250326   5.982   6.103  10.599
 8711TIP3   OH250327   6.326   6.197  10.403
 8711TIP3    H150328   6.421   6.206  10.410
 8711TIP3    H250329   6.301   6.254  10.331
 8712TIP3   OH250330   6.930   5.958  11.068
 8712TIP3    H150331   6.882   5.967  11.150
 8712TIP3    H250332   6.866   5.920  11.007
 8713TIP3   OH250333   6.206   6.335  10.202
 8713TIP3    H150334   6.122   6.304  10.167
 8713TIP3    H250335   6.262   6.345  10.124
 8714TIP3   OH250336   7.242   7.517  11.711
 8714TIP3    H150337   7.263   7.535  11.619
 8714TIP3    H250338   7.326   7.525  11.757
 8715TIP3   OH250339   6.027   6.776  11.661
 8715TIP3    H150340   6.091   6.782  11.732
 8715TIP3    H250341   5.943   6.767  11.706
 8716TIP3   OH250342   6.600   6.309  10.931
 8716TIP3    H150343   6.682   6.271  10.898
 8716TIP3    H250344   6.572   6.249  11.000
 8717TIP3   OH250345   6.055   5.927  10.588
 8717TIP3    H150346   6.005   5.852  10.621
 8717TIP3    H250347   6.094   5.896  10.507
 8718TIP3   OH250348   6.498   6.169  11.157
 8718TIP3    H150349   6.413   6.213  11.161
 8718TIP3    H250350   6.547   6.207  11.230
 8719TIP3   OH250351   6.539   6.792  10.355
 8719TIP3    H150352   6.475   6.730  10.319
 8719TIP3    H250353   6.509   6.808  10.445
 8720TIP3   OH250354   7.225   6.706  11.200
 8720TIP3    H150355   7.287   6.752  11.144
 8720TIP3    H250356   7.148   6.692  11.144
 8721TIP3   OH250357   6.925   6.032  10.206
 8721TIP3    H150358   6.840   6.033  10.163
 8721TIP3    H250359   6.936   6.120  10.241
 8722TIP3   OH250360   6.674   6.789  11.501
 8722TIP3    H150361   6.704   6.746  11.581
 8722TIP3    H250362   6.662   6.881  11.526
 8723TIP3   OH250363   6.980   6.265  10.348
 8723TIP3    H150364   7.065   6.243  10.386
 8723TIP3    H250365   6.990   6.356  10.319
 8724TIP3   OH250366   6.056   6.698  10.899
 8724TIP3    H150367   6.117   6.690  10.826
 8724TIP3    H250368   6.088   6.635  10.964
 8725TIP3   OH250369   6.771   6.929  10.262
 8725TIP3    H150370   6.736   7.018  10.255
 8725TIP3    H250371   6.694   6.875  10.280
 8726TIP3   OH250372   5.777   6.534  11.457
 8726TIP3    H150373   5.767   6.491  11.542
 8726TIP3    H250374   5.702   6.503  11.405
 8727TIP3   OH250375   6.451   6.508  11.658
 8727TIP3    H150376   6.390   6.472  11.594
 8727TIP3    H250377   6.532   6.460  11.643
 8728TIP3   OH250378   6.913   7.056  11.479
 8728TIP3    H150379   6.820   7.062  11.457
 8728TIP3    H250380   6.918   7.082  11.571
 8729TIP3   OH250381   7.434   6.273  10.313
 8729TIP3    H150382   7.392   6.248  10.231
 8729TIP3    H250383   7.483   6.352  10.292
 8730TIP3   OH250384   7.480   6.870  11.565
 8730TIP3    H150385   7.387   6.881  11.543
 8730TIP3    H250386   7.520   6.838  11.484
 8731TIP3   OH250387   7.268   7.107  10.360
 8731TIP3    H150388   7.212   7.075  10.431
 8731TIP3    H250389   7.342   7.047  10.359
 8732TIP3   OH250390   7.029   6.657  11.009
 8732TIP3    H150391   6.934   6.643  11.009
 8732TIP3    H250392   7.064   6.577  10.969
 8733TIP3   OH250393   6.299   7.046  10.689
 8733TIP3    H150394   6.319   7.129  10.647
 8733TIP3    H250395   6.204   7.036  10.680
 8734TIP3   OH250396   5.885   6.524  10.124
 8734TIP3    H150397   5.933   6.593  10.171
 8734TIP3    H250398   5.794   6.537  10.150
 8735TIP3   OH250399   6.425   6.820  10.599
 8735TIP3    H150400   6.393   6.904  10.631
 8735TIP3    H250401   6.365   6.756  10.636
 8736TIP3   OH250402   6.493   7.234  11.279
 8736TIP3    H150403   6.514   7.323  11.307
 8736TIP3    H250404   6.557   7.179  11.325
 8737TIP3   OH250405   6.304   7.292  10.556
 8737TIP3    H150406   6.210   7.299  10.573
 8737TIP3    H250407   6.342   7.370  10.597
 8738TIP3   OH250408   6.781   6.828  11.249
 8738TIP3    H150409   6.737   6.819  11.333
 8738TIP3    H250410   6.855   6.768  11.253
 8739TIP3   OH250411   7.061   6.943  10.140
 8739TIP3    H150412   7.095   6.903  10.221
 8739TIP3    H250413   6.966   6.941  10.151
 8740TIP3   OH250414   7.107   7.268  11.452
 8740TIP3    H150415   7.032   7.209  11.444
 8740TIP3    H250416   7.091   7.336  11.387
 8741TIP3   OH250417   7.492   7.343  10.133
 8741TIP3    H150418   7.569   7.398  10.114
 8741TIP3    H250419   7.426   7.405  10.163
 8742TIP3   OH250420   5.912   6.022  11.398
 8742TIP3    H150421   5.818   6.033  11.386
 8742TIP3    H250422   5.920   5.956  11.467
 8743TIP3   OH250423   7.196   6.791  10.320
 8743TIP3    H150424   7.148   6.750  10.393
 8743TIP3    H250425   7.288   6.781  10.344
 8744TIP3   OH250426   5.913   7.170  11.260
 8744TIP3    H150427   5.936   7.089  11.305
 8744TIP3    H250428   5.924   7.238  11.327
 8745TIP3   OH250429   6.346   6.987  10.229
 8745TIP3    H150430   6.409   6.940  10.285
 8745TIP3    H250431   6.359   7.079  10.251
 8746TIP3   OH250432   5.990   6.722  10.291
 8746TIP3    H150433   5.917   6.762  10.337
 8746TIP3    H250434   6.032   6.794  10.244
 8747TIP3   OH250435   6.804   5.999  11.310
 8747TIP3    H150436   6.878   6.016  11.369
 8747TIP3    H250437   6.772   5.913  11.337
 8748TIP3   OH250438   6.882   5.910  10.453
 8748TIP3    H150439   6.894   5.947  10.365
 8748TIP3    H250440   6.915   5.978  10.512
 8749TIP3   OH250441   6.658   7.181  10.246
 8749TIP3    H150442   6.565   7.182  10.267
 8749TIP3    H250443   6.686   7.272  10.256
 8750TIP3   OH250444   6.586   6.150  10.517
 8750TIP3    H150445   6.656   6.213  10.534
 8750TIP3    H250446   6.566   6.112  10.602
 8751TIP3   OH250447   6.666   6.249  11.372
 8751TIP3    H150448   6.667   6.273  11.464
 8751TIP3    H250449   6.709   6.164  11.368
 8752TIP3   OH250450   6.645   5.812  10.564
 8752TIP3    H150451   6.617   5.879  10.627
 8752TIP3    H250452   6.729   5.843  10.532
 8753TIP3   OH250453   6.396   7.246  10.303
 8753TIP3    H150454   6.388   7.329  10.257
 8753TIP3    H250455   6.362   7.263  10.391
 8754TIP3   OH250456   6.249   5.957  10.282
 8754TIP3    H150457   6.252   6.040  10.330
 8754TIP3    H250458   6.333   5.916  10.301
 8755TIP3   OH250459   7.241   5.980  11.506
 8755TIP3    H150460   7.157   6.017  11.483
 8755TIP3    H250461   7.302   6.013  11.440
 8756TIP3   OH250462   7.115   6.415  10.896
 8756TIP3    H150463   7.029   6.378  10.877
 8756TIP3    H250464   7.159   6.349  10.949
 8757TIP3   OH250465   6.082   6.944  10.144
 8757TIP3    H150466   6.156   6.984  10.189
 8757TIP3    H250467   6.122   6.884  10.082
 8758TIP3   OH250468   5.945   6.261  10.112
 8758TIP3    H150469   5.925   6.354  10.116
 8758TIP3    H250470   5.899   6.230  10.034
 8759TIP3   OH250471   7.269   7.339  11.081
 8759TIP3    H150472   7.255   7.392  11.002
 8759TIP3    H250473   7.363   7.343  11.097
 8760TIP3   OH250474   5.968   5.745  10.943
 8760TIP3    H150475   5.955   5.733  10.849
 8760TIP3    H250476   5.939   5.663  10.983
 8761TIP3   OH250477   5.855   7.099  10.564
 8761TIP3    H150478   5.783   7.120  10.623
 8761TIP3    H250479   5.842   7.156  10.489
 8762TIP3   OH250480   5.810   7.400  11.689
 8762TIP3    H150481   5.880   7.399  11.755
 8762TIP3    H250482   5.790   7.307  11.675
 8763TIP3   OH250483   6.255   7.251  11.850
 8763TIP3    H150484   6.336   7.203  11.867
 8763TIP3    H250485   6.226   7.218  11.765
 8764TIP3   OH250486   6.684   7.190  19.949
 8764TIP3    H150487   6.631   7.112  19.932
 8764TIP3    H250488   6.761   7.157  19.996
 8765TIP3   OH250489   6.906   7.141  11.737
 8765TIP3    H150490   6.866   7.061  11.773
 8765TIP3    H250491   6.975   7.163  11.799
 8766TIP3   OH250492   7.137   7.208  10.058
 8766TIP3    H150493   7.077   7.168  10.121
 8766TIP3    H250494   7.168   7.288  10.102
 8767TIP3   OH250495   5.772   6.774  11.787
 8767TIP3    H150496   5.739   6.687  11.807
 8767TIP3    H250497   5.714   6.807  11.718
 8768TIP3   OH250498   6.269   6.766  10.052
 8768TIP3    H150499   6.285   6.699  10.118
 8768TIP3    H250500   6.324   6.840  10.078
 8769TIP3   OH250501   6.439   6.786  11.720
 8769TIP3    H150502   6.434   6.834  11.637
 8769TIP3    H250503   6.455   6.695  11.694
 8770TIP3   OH250504   6.997   6.785  11.492
 8770TIP3    H150505   7.090   6.807  11.479
 8770TIP3    H250506   6.952   6.869  11.488
 8771TIP3   OH250507   5.889   6.469  11.740
 8771TIP3    H150508   5.974   6.425  11.729
 8771TIP3    H250509   5.892   6.505  11.829
 8772TIP3   OH250510   6.355   6.609  10.267
 8772TIP3    H150511   6.290   6.571  10.325
 8772TIP3    H250512   6.387   6.535  10.215
 8773TIP3   OH250513   6.265   6.401  11.447
 8773TIP3    H150514   6.197   6.469  11.448
 8773TIP3    H250515   6.336   6.440  11.396
 8774TIP3   OH250516   6.473   6.434  10.087
 8774TIP3    H150517   6.471   6.430   9.992
 8774TIP3    H250518   6.566   6.433  10.109
 8775TIP3   OH250519   6.779   6.652  11.758
 8775TIP3    H150520   6.862   6.614  11.729
 8775TIP3    H250521   6.750   6.595  11.829
 8776TIP3   OH250522   7.375   6.657  19.992
 8776TIP3    H150523   7.303   6.630  19.934
 8776TIP3    H250524   7.429   6.714  19.938
 8777TIP3   OH250525   6.320   6.149  11.546
 8777TIP3    H150526   6.333   6.084  11.477
 8777TIP3    H250527   6.306   6.231  11.500
 8778TIP3   OH250528   6.361   5.978  11.323
 8778TIP3    H150529   6.416   6.023  11.258
 8778TIP3    H250530   6.274   5.975  11.283
 8779TIP3   OH250531   6.469   6.539  11.334
 8779TIP3    H150532   6.550   6.578  11.367
 8779TIP3    H250533   6.431   6.607  11.278
 8780TIP3   OH250534   6.882   6.299  11.824
 8780TIP3    H150535   6.892   6.211  11.788
 8780TIP3    H250536   6.969   6.321  11.858
 8781TIP3   OH250537   7.037   6.580  11.664
 8781TIP3    H150538   7.019   6.655  11.607
 8781TIP3    H250539   7.132   6.569  11.660
 8782TIP3   OH250540   6.159   6.218  11.769
 8782TIP3    H150541   6.083   6.161  11.759
 8782TIP3    H250542   6.211   6.204  11.690
 8783TIP3   OH250543   6.436   5.714  11.361
 8783TIP3    H150544   6.411   5.805  11.349
 8783TIP3    H250545   6.364   5.664  11.323
 8784TIP3   OH250546   6.537   6.107  11.718
 8784TIP3    H150547   6.495   6.080  11.800
 8784TIP3    H250548   6.465   6.113  11.656
 8785TIP3   OH250549   6.819   6.068  11.660
 8785TIP3    H150550   6.726   6.060  11.684
 8785TIP3    H250551   6.863   6.004  11.715
 8786TIP3   OH250552   6.971   5.917  11.826
 8786TIP3    H150553   6.971   5.821  11.825
 8786TIP3    H250554   6.957   5.940  11.918
 8787TIP3   OH250555   5.960   6.021  11.758
 8787TIP3    H150556   5.957   5.939  11.708
 8787TIP3    H250557   5.962   5.993  11.850
 8788TIP3   OH250558   6.446   5.673  11.634
 8788TIP3    H150559   6.495   5.591  11.631
 8788TIP3    H250560   6.431   5.694  11.542
 8789TIP3   OH250561   6.475   5.804  11.871
 8789TIP3    H150562   6.469   5.761  11.786
 8789TIP3    H250563   6.415   5.878  11.866
 8790TIP3   OH250564   6.415   7.482  10.165
 8790TIP3    H150565   6.510   7.496  10.164
 8790TIP3    H250566   6.381   7.544  10.101
 8791TIP3   OH250567   5.810   6.979  10.126
 8791TIP3    H150568   5.905   6.986  10.136
 8791TIP3    H250569   5.797   6.930  10.045
 8792TIP3   OH250570   5.676   7.481  10.621
 8792TIP3    H150571   5.613   7.443  10.559
 8792TIP3    H250572   5.684   7.416  10.690
 8793TIP3   OH250573   5.735   7.284  10.807
 8793TIP3    H150574   5.676   7.216  10.839
 8793TIP3    H250575   5.803   7.292  10.874
 8794TIP3   OH250576   7.558   7.362  11.080
 8794TIP3    H150577   7.577   7.339  11.171
 8794TIP3    H250578   7.544   7.457  11.081
 8795TIP3   OH250579   7.480   7.295  11.377
 8795TIP3    H150580   7.419   7.227  11.350
 8795TIP3    H250581   7.522   7.261  11.456
 8796TIP3   OH250582   7.293   6.914  11.854
 8796TIP3    H150583   7.210   6.916  11.902
 8796TIP3    H250584   7.346   6.983  11.894
 8797TIP3   OH250585   7.465   6.746  10.385
 8797TIP3    H150586   7.552   6.785  10.394
 8797TIP3    H250587   7.459   6.681  10.454
 8798TIP3   OH250588   7.463   6.557  10.585
 8798TIP3    H150589   7.377   6.519  10.608
 8798TIP3    H250590   7.505   6.572  10.670
 8799TIP3   OH250591   7.448   6.798  11.078
 8799TIP3    H150592   7.499   6.736  11.026
 8799TIP3    H250593   7.465   6.883  11.036
 8800TIP3   OH250594   7.288   7.109  11.310
 8800TIP3    H150595   7.223   7.157  11.361
 8800TIP3    H250596   7.247   7.094  11.226
 8801TIP3   OH250597   7.480   6.537  10.194
 8801TIP3    H150598   7.392   6.527  10.158
 8801TIP3    H250599   7.474   6.615  10.251
 8802TIP3   OH250600   7.328   6.257  10.066
 8802TIP3    H150601   7.349   6.295   9.981
 8802TIP3    H250602   7.292   6.170  10.046
 8803TIP3   OH250603   7.230   6.430  10.646
 8803TIP3    H150604   7.224   6.340  10.615
 8803TIP3    H250605   7.195   6.427  10.735
 8804TIP3   OH250606   5.739   6.629  11.057
 8804TIP3    H150607   5.746   6.610  10.964
 8804TIP3    H250608   5.822   6.597  11.094
 8805TIP3   OH250609   7.305   6.606  11.604
 8805TIP3    H150610   7.374   6.544  11.627
 8805TIP3    H250611   7.350   6.689  11.591
 8806TIP3   OH250612   7.474   6.397  11.662
 8806TIP3    H150613   7.386   6.362  11.652
 8806TIP3    H250614   7.528   6.321  11.683
 8807TIP3   OH250615   7.244   6.007  10.004
 8807TIP3    H150616   7.305   5.936  10.026
 8807TIP3    H250617   7.157   5.970  10.020
 8808TIP3   OH250618   7.220   6.191  10.480
 8808TIP3    H150619   7.235   6.097  10.492
 8808TIP3    H250620   7.294   6.221  10.428
 8809TIP3   OH250621   7.244   6.211  11.026
 8809TIP3    H150622   7.339   6.220  11.012
 8809TIP3    H250623   7.233   6.223  11.120
 8810TIP3   OH250624   7.258   6.286  11.290
 8810TIP3    H150625   7.189   6.317  11.349
 8810TIP3    H250626   7.310   6.364  11.273
 8811TIP3   OH250627   5.732   6.139  11.661
 8811TIP3    H150628   5.818   6.113  11.694
 8811TIP3    H250629   5.683   6.057  11.655
 8812TIP3   OH250630   7.542   5.649  11.809
 8812TIP3    H150631   7.619   5.614  11.764
 8812TIP3    H250632   7.525   5.732  11.766
 8813TIP3   OH250633   7.253   5.919  10.509
 8813TIP3    H150634   7.275   5.887  10.596
 8813TIP3    H250635   7.195   5.851  10.472
 8814TIP3   OH250636   5.831   5.982  10.991
 8814TIP3    H150637   5.872   5.896  10.986
 8814TIP3    H250638   5.904   6.043  10.997
 8815TIP3   OH250639   5.677   6.290  11.054
 8815TIP3    H150640   5.741   6.290  10.983
 8815TIP3    H250641   5.719   6.340  11.125
 8816TIP3   OH250642   7.450   5.882  11.692
 8816TIP3    H150643   7.377   5.914  11.746
 8816TIP3    H250644   7.409   5.857  11.609
 8817TIP3   OH250645   7.523   5.903  10.148
 8817TIP3    H150646   7.577   5.827  10.125
 8817TIP3    H250647   7.580   5.978  10.132
 8818TIP3   OH250648   5.703   5.882  10.438
 8818TIP3    H150649   5.612   5.896  10.464
 8818TIP3    H250650   5.726   5.960  10.389
 8819TIP3   OH250651   7.161   7.398  10.636
 8819TIP3    H150652   7.232   7.382  10.574
 8819TIP3    H250653   7.205   7.434  10.713
 8820TIP3   OH250654   5.703   5.758  11.285
 8820TIP3    H150655   5.632   5.742  11.348
 8820TIP3    H250656   5.663   5.814  11.219
 8821TIP3   OH250657   5.918   7.097  11.696
 8821TIP3    H150658   5.828   7.103  11.663
 8821TIP3    H250659   5.908   7.068  11.786
 8822TIP3   OH250660   6.227   7.207  11.342
 8822TIP3    H150661   6.199   7.295  11.315
 8822TIP3    H250662   6.322   7.207  11.326
 8823TIP3   OH250663   6.658   7.326  11.602
 8823TIP3    H150664   6.655   7.302  11.695
 8823TIP3    H250665   6.746   7.364  11.590
 8824TIP3   OH250666   6.906   7.449  11.578
 8824TIP3    H150667   6.977   7.389  11.556
 8824TIP3    H250668   6.920   7.470  11.671
 8825TIP3   OH250669   7.345   5.696  11.482
 8825TIP3    H150670   7.264   5.727  11.442
 8825TIP3    H250671   7.358   5.609  11.443
 8826TIP3   OH250672   5.940   7.498  11.349
 8826TIP3    H150673   5.859   7.522  11.304
 8826TIP3    H250674   5.919   7.507  11.442
 8827TIP3   OH250675   6.199   7.470  11.272
 8827TIP3    H150676   6.110   7.486  11.304
 8827TIP3    H250677   6.200   7.510  11.185
 8828TIP3   OH250678   6.688   7.450  11.139
 8828TIP3    H150679   6.614   7.481  11.087
 8828TIP3    H250680   6.697   7.513  11.210
 8829TIP3   OH250681   6.884   7.312  11.270
 8829TIP3    H150682   6.803   7.345  11.230
 8829TIP3    H250683   6.944   7.387  11.268
 8830TIP3   OH250684   7.113   7.480  11.261
 8830TIP3    H150685   7.104   7.571  11.232
 8830TIP3    H250686   7.163   7.437  11.192
 8831TIP3   OH250687   5.910   7.313  11.023
 8831TIP3    H150688   5.903   7.272  11.109
 8831TIP3    H250689   5.994   7.284  10.988
 8832TIP3   OH250690   6.137   7.229  10.903
 8832TIP3    H150691   6.121   7.137  10.926
 8832TIP3    H250692   6.223   7.248  10.940
 8833TIP3   OH250693   6.388   7.244  11.025
 8833TIP3    H150694   6.390   7.152  10.999
 8833TIP3    H250695   6.424   7.245  11.113
 8834TIP3   OH250696   6.693   5.848  10.908
 8834TIP3    H150697   6.630   5.779  10.926
 8834TIP3    H250698   6.767   5.803  10.867
 8835TIP3   OH250699   7.193   5.661  10.891
 8835TIP3    H150700   7.251   5.726  10.851
 8835TIP3    H250701   7.105   5.698  10.882
 8836TIP3   OH250702   7.363   5.805  10.735
 8836TIP3    H150703   7.421   5.736  10.704
 8836TIP3    H250704   7.420   5.881  10.746
 8837TIP3   OH250705   5.931   5.696  10.674
 8837TIP3    H150706   5.840   5.681  10.648
 8837TIP3    H250707   5.974   5.611  10.662
 8838TIP3   OH250708   5.815   5.700  10.265
 8838TIP3    H150709   5.880   5.758  10.228
 8838TIP3    H250710   5.774   5.751  10.335
 8839TIP3   OH250711   6.412   5.669  10.664
 8839TIP3    H150712   6.484   5.717  10.623
 8839TIP3    H250713   6.429   5.676  10.758
 8840TIP3   OH250714   6.926   5.730  10.807
 8840TIP3    H150715   6.948   5.717  10.715
 8840TIP3    H250716   6.894   5.644  10.836
 8841TIP3   OH250717   7.090   5.723  10.410
 8841TIP3    H150718   7.010   5.775  10.408
 8841TIP3    H250719   7.060   5.634  10.431
 8842TIP3   OH250720   5.804   7.261  10.357
 8842TIP3    H150721   5.714   7.260  10.323
 8842TIP3    H250722   5.840   7.343  10.324
 8843TIP3   OH250723   6.024   5.844  10.152
 8843TIP3    H150724   6.052   5.756  10.129
 8843TIP3    H250725   6.099   5.883  10.195
 8844TIP3   OH250726   6.525   5.942  10.347
 8844TIP3    H150727   6.555   5.870  10.402
 8844TIP3    H250728   6.542   6.021  10.398
 8845TIP3   OH250729   6.691   7.458  10.162
 8845TIP3    H150730   6.785   7.474  10.173
 8845TIP3    H250731   6.684   7.413  10.078
 8846TIP3   OH250732   7.364   7.358  10.455
 8846TIP3    H150733   7.341   7.273  10.420
 8846TIP3    H250734   7.366   7.416  10.379
 8847TIP3   OH250735   5.935   5.771  11.621
 8847TIP3    H150736   5.872   5.702  11.640
 8847TIP3    H250737   6.012   5.749  11.674
 8848TIP3   OH250738   6.124   5.698  11.810
 8848TIP3    H150739   6.213   5.668  11.793
 8848TIP3    H250740   6.080   5.620  11.845
 8849TIP3   OH250741   6.044   7.491  10.088
 8849TIP3    H150742   5.970   7.497  10.150
 8849TIP3    H250743   6.081   7.404  10.104
 8850TIP3   OH250744   6.994   5.644  11.809
 8850TIP3    H150745   6.980   5.597  11.891
 8850TIP3    H250746   7.087   5.632  11.789
 8851TIP3   OH250747   7.289   7.244  11.668
 8851TIP3    H150748   7.223   7.238  11.600
 8851TIP3    H250749   7.283   7.334  11.701
 8852TIP3   OH250750   7.568   6.294  10.551
 8852TIP3    H150751   7.525   6.379  10.563
 8852TIP3    H250752   7.519   6.253  10.479
 8853TIP3   OH250753   7.568   6.758  11.331
 8853TIP3    H150754   7.515   6.766  11.252
 8853TIP3    H250755   7.560   6.666  11.356
 8854TIP3   OH250756   7.526   7.047  10.986
 8854TIP3    H150757   7.622   7.054  10.983
 8854TIP3    H250758   7.500   7.103  11.059
 8855TIP3   OH250759   7.536   6.010  10.700
 8855TIP3    H150760   7.618   6.054  10.721
 8855TIP3    H250761   7.535   6.007  10.604
 8856TIP3   OH250762   7.587   6.496  11.433
 8856TIP3    H150763   7.554   6.463  11.517
 8856TIP3    H250764   7.522   6.466  11.369
 8857TIP3   OH250765   7.607   6.728  11.759
 8857TIP3    H150766   7.539   6.686  11.810
 8857TIP3    H250767   7.560   6.783  11.696
 8858TIP3   OH250768   7.478   7.508  10.662
 8858TIP3    H150769   7.436   7.463  10.588
 8858TIP3    H250770   7.492   7.439  10.727
 8859TIP3   OH250771   7.528   7.281  10.817
 8859TIP3    H150772   7.495   7.192  10.828
 8859TIP3    H250773   7.545   7.312  10.906
 8860TIP3   OH250774   7.601   6.569  11.019
 8860TIP3    H150775   7.644   6.533  10.941
 8860TIP3    H250776   7.669   6.618  11.064
 8861TIP3   OH250777   7.543   6.131  11.608
 8861TIP3    H150778   7.638   6.122  11.609
 8861TIP3    H250779   7.511   6.050  11.648
 8862TIP3   OH250780   7.510   6.267  11.009
 8862TIP3    H150781   7.602   6.247  11.024
 8862TIP3    H250782   7.504   6.362  11.020
 8863TIP3   OH250783   7.512   5.947  10.424
 8863TIP3    H150784   7.421   5.934  10.450
 8863TIP3    H250785   7.510   5.940  10.329
 8864TIP3   OH250786   7.490   5.740  11.236
 8864TIP3    H150787   7.443   5.747  11.319
 8864TIP3    H250788   7.460   5.815  11.185
 8865TIP3   OH250789   0.824   7.526  10.990
 8865TIP3    H150790   0.828   7.440  10.947
 8865TIP3    H250791   0.733   7.534  11.018
 8866TIP3   OH250792   1.673   7.495  10.241
 8866TIP3    H150793   1.577   7.491  10.248
 8866TIP3    H250794   1.694   7.587  10.253
 8867TIP3   OH250795   0.561   7.599  11.028
 8867TIP3    H150796   0.478   7.594  10.980
 8867TIP3    H250797   0.578   7.692  11.036
 8868TIP3   OH250798   1.054   7.584  11.404
 8868TIP3    H150799   1.126   7.552  11.457
 8868TIP3    H250800   0.979   7.531  11.431
 8869TIP3   OH250801   0.316   7.582  10.912
 8869TIP3    H150802   0.302   7.580  10.817
 8869TIP3    H250803   0.248   7.525  10.948
 8870TIP3   OH250804   0.780   7.498  11.356
 8870TIP3    H150805   0.779   7.594  11.349
 8870TIP3    H250806   0.698   7.471  11.315
 8871TIP3   OH250807   0.739   7.445  11.622
 8871TIP3    H150808   0.821   7.402  11.645
 8871TIP3    H250809   0.741   7.451  11.526
 8872TIP3   OH250810   1.813   7.562  11.786
 8872TIP3    H150811   1.884   7.503  11.760
 8872TIP3    H250812   1.857   7.638  11.825
 8873TIP3   OH250813   0.084   7.620  11.241
 8873TIP3    H150814  -0.012   7.615  11.240
 8873TIP3    H250815   0.103   7.713  11.254
 8874TIP3   OH250816   1.675   7.541  11.436
 8874TIP3    H150817   1.600   7.521  11.380
 8874TIP3    H250818   1.724   7.459  11.441
 8875TIP3   OH250819   1.550   7.530  10.861
 8875TIP3    H150820   1.573   7.619  10.887
 8875TIP3    H250821   1.457   7.534  10.839
 8876TIP3   OH250822   0.286   7.562  10.639
 8876TIP3    H150823   0.205   7.539  10.594
 8876TIP3    H250824   0.346   7.489  10.620
 8877TIP3   OH250825   0.178   7.536  10.204
 8877TIP3    H150826   0.205   7.560  10.116
 8877TIP3    H250827   0.154   7.619  10.245
 8878TIP3   OH250828   0.723   7.519  10.697
 8878TIP3    H150829   0.744   7.600  10.651
 8878TIP3    H250830   0.688   7.546  10.781
 8879TIP3   OH250831   1.291   7.538  10.761
 8879TIP3    H150832   1.322   7.497  10.680
 8879TIP3    H250833   1.230   7.474  10.798
 8880TIP3   OH250834   1.425   7.565  10.397
 8880TIP3    H150835   1.378   7.513  10.331
 8880TIP3    H250836   1.445   7.503  10.466
 8881TIP3   OH250837   0.484   7.535  11.704
 8881TIP3    H150838   0.566   7.486  11.691
 8881TIP3    H250839   0.429   7.475  11.755
 8882TIP3   OH250840   1.321   7.453  11.818
 8882TIP3    H150841   1.324   7.419  11.907
 8882TIP3    H250842   1.413   7.464  11.793
 8883TIP3   OH250843   2.696   7.517  10.991
 8883TIP3    H150844   2.690   7.424  10.968
 8883TIP3    H250845   2.607   7.541  11.017
 8884TIP3   OH250846   3.563   7.512  10.244
 8884TIP3    H150847   3.471   7.514  10.269
 8884TIP3    H250848   3.591   7.604  10.247
 8885TIP3   OH250849   2.443   7.610  11.029
 8885TIP3    H150850   2.357   7.596  10.990
 8885TIP3    H250851   2.456   7.705  11.025
 8886TIP3   OH250852   2.945   7.587  11.383
 8886TIP3    H150853   3.012   7.554  11.443
 8886TIP3    H250854   2.868   7.532  11.402
 8887TIP3   OH250855   2.194   7.574  10.929
 8887TIP3    H150856   2.179   7.563  10.836
 8887TIP3    H250857   2.155   7.496  10.969
 8888TIP3   OH250858   2.680   7.499  11.349
 8888TIP3    H150859   2.683   7.594  11.335
 8888TIP3    H250860   2.593   7.473  11.320
 8889TIP3   OH250861   2.618   7.476  11.617
 8889TIP3    H150862   2.675   7.417  11.667
 8889TIP3    H250863   2.645   7.464  11.526
 8890TIP3   OH250864   3.679   7.525  11.767
 8890TIP3    H150865   3.756   7.480  11.733
 8890TIP3    H250866   3.714   7.604  11.809
 8891TIP3   OH250867   1.917   7.579  11.274
 8891TIP3    H150868   1.843   7.570  11.334
 8891TIP3    H250869   1.932   7.673  11.268
 8892TIP3   OH250870   3.541   7.547  11.438
 8892TIP3    H150871   3.468   7.526  11.379
 8892TIP3    H250872   3.593   7.467  11.440
 8893TIP3   OH250873   3.437   7.522  10.861
 8893TIP3    H150874   3.464   7.611  10.884
 8893TIP3    H250875   3.344   7.529  10.842
 8894TIP3   OH250876   2.160   7.544  10.658
 8894TIP3    H150877   2.069   7.523  10.636
 8894TIP3    H250878   2.209   7.464  10.640
 8895TIP3   OH250879   2.066   7.529  10.285
 8895TIP3    H150880   2.093   7.621  10.281
 8895TIP3    H250881   1.993   7.528  10.346
 8896TIP3   OH250882   2.605   7.517  10.691
 8896TIP3    H150883   2.621   7.605  10.656
 8896TIP3    H250884   2.567   7.532  10.777
 8897TIP3   OH250885   3.178   7.541  10.762
 8897TIP3    H150886   3.212   7.497  10.685
 8897TIP3    H250887   3.115   7.479  10.800
 8898TIP3   OH250888   3.323   7.562  10.384
 8898TIP3    H150889   3.267   7.516  10.321
 8898TIP3    H250890   3.330   7.502  10.459
 8899TIP3   OH250891   2.353   7.519  11.703
 8899TIP3    H150892   2.440   7.484  11.682
 8899TIP3    H250893   2.319   7.460  11.771
 8900TIP3   OH250894   3.184   7.459  11.814
 8900TIP3    H150895   3.184   7.417  11.900
 8900TIP3    H250896   3.276   7.465  11.791
 8901TIP3   OH250897   4.572   7.512  10.994
 8901TIP3    H150898   4.564   7.417  10.984
 8901TIP3    H250899   4.485   7.540  11.022
 8902TIP3   OH250900   5.446   7.510  10.242
 8902TIP3    H150901   5.353   7.511  10.267
 8902TIP3    H250902   5.472   7.603  10.244
 8903TIP3   OH250903   4.321   7.605  11.040
 8903TIP3    H150904   4.236   7.591  10.998
 8903TIP3    H250905   4.335   7.699  11.036
 8904TIP3   OH250906   4.834   7.578  11.377
 8904TIP3    H150907   4.901   7.547  11.437
 8904TIP3    H250908   4.757   7.526  11.398
 8905TIP3   OH250909   4.075   7.568  10.928
 8905TIP3    H150910   4.062   7.555  10.835
 8905TIP3    H250911   4.044   7.487  10.969
 8906TIP3   OH250912   4.566   7.493  11.359
 8906TIP3    H150913   4.568   7.588  11.350
 8906TIP3    H250914   4.478   7.468  11.331
 8907TIP3   OH250915   4.511   7.475  11.632
 8907TIP3    H150916   4.579   7.432  11.683
 8907TIP3    H250917   4.537   7.459  11.541
 8908TIP3   OH250918   5.574   7.526  11.754
 8908TIP3    H150919   5.654   7.480  11.729
 8908TIP3    H250920   5.604   7.609  11.791
 8909TIP3   OH250921   3.805   7.581  11.268
 8909TIP3    H150922   3.737   7.572  11.335
 8909TIP3    H250923   3.825   7.675  11.267
 8910TIP3   OH250924   5.440   7.551  11.429
 8910TIP3    H150925   5.362   7.530  11.378
 8910TIP3    H250926   5.489   7.469  11.433
 8911TIP3   OH250927   5.325   7.528  10.859
 8911TIP3    H150928   5.348   7.617  10.884
 8911TIP3    H250929   5.231   7.532  10.839
 8912TIP3   OH250930   4.045   7.542  10.654
 8912TIP3    H150931   3.954   7.520  10.634
 8912TIP3    H250932   4.094   7.460  10.639
 8913TIP3   OH250933   3.956   7.523  10.278
 8913TIP3    H150934   3.977   7.616  10.269
 8913TIP3    H250935   3.896   7.519  10.353
 8914TIP3   OH250936   4.492   7.518  10.686
 8914TIP3    H150937   4.503   7.608  10.655
 8914TIP3    H250938   4.470   7.527  10.779
 8915TIP3   OH250939   5.066   7.538  10.759
 8915TIP3    H150940   5.100   7.491  10.683
 8915TIP3    H250941   5.000   7.479  10.796
 8916TIP3   OH250942   5.209   7.562  10.388
 8916TIP3    H150943   5.151   7.516  10.327
 8916TIP3    H250944   5.217   7.503  10.462
 8917TIP3   OH250945   4.242   7.525  11.704
 8917TIP3    H150946   4.330   7.501  11.678
 8917TIP3    H250947   4.210   7.450  11.754
 8918TIP3   OH250948   5.110   7.448  11.798
 8918TIP3    H150949   5.109   7.420  11.890
 8918TIP3    H250950   5.196   7.487  11.786
 8919TIP3   OH250951   6.461   7.510  10.987
 8919TIP3    H150952   6.453   7.415  10.980
 8919TIP3    H250953   6.374   7.540  11.015
 8920TIP3   OH250954   7.308   7.521  10.238
 8920TIP3    H150955   7.229   7.530  10.291
 8920TIP3    H250956   7.328   7.610  10.208
 8921TIP3   OH250957   6.211   7.603  11.035
 8921TIP3    H150958   6.124   7.586  10.997
 8921TIP3    H250959   6.223   7.697  11.027
 8922TIP3   OH250960   6.733   7.565  11.394
 8922TIP3    H150961   6.800   7.534  11.455
 8922TIP3    H250962   6.654   7.517  11.420
 8923TIP3   OH250963   5.960   7.567  10.936
 8923TIP3    H150964   5.948   7.553  10.842
 8923TIP3    H250965   5.930   7.485  10.976
 8924TIP3   OH250966   6.455   7.500  11.364
 8924TIP3    H150967   6.461   7.593  11.343
 8924TIP3    H250968   6.366   7.475  11.341
 8925TIP3   OH250969   6.411   7.482  11.637
 8925TIP3    H150970   6.470   7.426  11.686
 8925TIP3    H250971   6.433   7.467  11.545
 8926TIP3   OH250972   7.507   7.512  11.776
 8926TIP3    H150973   7.558   7.442  11.816
 8926TIP3    H250974   7.539   7.592  11.818
 8927TIP3   OH250975   5.692   7.581  11.260
 8927TIP3    H150976   5.617   7.569  11.317
 8927TIP3    H250977   5.708   7.675  11.260
 8928TIP3   OH250978   7.324   7.523  11.439
 8928TIP3    H150979   7.246   7.497  11.390
 8928TIP3    H250980   7.380   7.445  11.437
 8929TIP3   OH250981   7.223   7.510  10.878
 8929TIP3    H150982   7.265   7.594  10.897
 8929TIP3    H250983   7.131   7.531  10.864
 8930TIP3   OH250984   5.936   7.537  10.663
 8930TIP3    H150985   5.845   7.518  10.638
 8930TIP3    H250986   5.983   7.456  10.643
 8931TIP3   OH250987   5.831   7.527  10.278
 8931TIP3    H150988   5.864   7.617  10.283
 8931TIP3    H250989   5.761   7.524  10.343
 8932TIP3   OH250990   6.382   7.515  10.685
 8932TIP3    H150991   6.378   7.608  10.662
 8932TIP3    H250992   6.374   7.514  10.781
 8933TIP3   OH250993   6.967   7.558  10.769
 8933TIP3    H150994   7.004   7.501  10.702
 8933TIP3    H250995   6.903   7.503  10.814
 8934TIP3   OH250996   7.083   7.563  10.390
 8934TIP3    H150997   7.024   7.534  10.321
 8934TIP3    H250998   7.068   7.501  10.462
 8935TIP3   OH250999   6.141   7.532  11.692
 8935TIP3    H151000   6.229   7.498  11.677
 8935TIP3    H251001   6.101   7.470  11.753
 8936TIP3   OH251002   6.985   7.476  11.840
 8936TIP3    H151003   6.970   7.429  11.922
 8936TIP3    H251004   7.080   7.469  11.826
 8937TIP3   OH251005   7.475   7.589  11.204
 8937TIP3    H151006   7.431   7.565  11.286
 8937TIP3    H251007   7.485   7.684  11.209
 8938TIP3   OH251008   1.221   0.988  12.566
 8938TIP3    H151009   1.218   1.082  12.546
 8938TIP3    H251010   1.155   0.949  12.509
 8939TIP3   OH251011   1.477   1.229  12.706
 8939TIP3    H151012   1.389   1.220  12.742
 8939TIP3    H251013   1.534   1.243  12.782
 8940TIP3   OH251014   0.490   1.316  12.849
 8940TIP3    H151015   0.427   1.249  12.821
 8940TIP3    H251016   0.557   1.267  12.896
 8941TIP3   OH251017   0.149   0.739  12.391
 8941TIP3    H151018   0.147   0.788  12.473
 8941TIP3    H251019   0.060   0.706  12.381
 8942TIP3   OH251020   0.179   0.868  12.630
 8942TIP3    H151021   0.204   0.786  12.671
 8942TIP3    H251022   0.261   0.915  12.617
 8943TIP3   OH251023   1.373   0.415  12.582
 8943TIP3    H151024   1.431   0.371  12.519
 8943TIP3    H251025   1.311   0.464  12.528
 8944TIP3   OH251026   0.247   0.614  12.717
 8944TIP3    H151027   0.301   0.576  12.785
 8944TIP3    H251028   0.206   0.539  12.674
 8945TIP3   OH251029   0.752   0.810  12.694
 8945TIP3    H151030   0.817   0.765  12.748
 8945TIP3    H251031   0.712   0.740  12.641
 8946TIP3   OH251032   1.207   1.247  12.455
 8946TIP3    H151033   1.178   1.242  12.364
 8946TIP3    H251034   1.147   1.308  12.497
 8947TIP3   OH251035   0.135   1.215  12.275
 8947TIP3    H151036   0.116   1.253  12.189
 8947TIP3    H251037   0.157   1.290  12.330
 8948TIP3   OH251038   1.476   1.333  12.438
 8948TIP3    H151039   1.382   1.321  12.448
 8948TIP3    H251040   1.513   1.315  12.524
 8949TIP3   OH251041   1.080   0.899  12.336
 8949TIP3    H151042   0.995   0.935  12.313
 8949TIP3    H251043   1.130   0.901  12.255
 8950TIP3   OH251044   1.090   0.783  11.997
 8950TIP3    H151045   1.168   0.799  12.048
 8950TIP3    H251046   1.121   0.735  11.920
 8951TIP3   OH251047   1.427   0.925  12.394
 8951TIP3    H151048   1.361   0.949  12.460
 8951TIP3    H251049   1.492   0.875  12.443
 8952TIP3   OH251050   0.577   1.000  12.597
 8952TIP3    H151051   0.528   0.960  12.525
 8952TIP3    H251052   0.638   0.932  12.625
 8953TIP3   OH251053   1.307   0.860  12.155
 8953TIP3    H151054   1.349   0.888  12.236
 8953TIP3    H251055   1.358   0.902  12.086
 8954TIP3   OH251056   1.688   0.100  12.186
 8954TIP3    H151057   1.596   0.124  12.193
 8954TIP3    H251058   1.723   0.160  12.120
 8955TIP3   OH251059   0.411   0.903  12.396
 8955TIP3    H151060   0.400   0.968  12.326
 8955TIP3    H251061   0.339   0.842  12.383
 8956TIP3   OH251062   1.798   1.450  12.032
 8956TIP3    H151063   1.817   1.543  12.036
 8956TIP3    H251064   1.883   1.408  12.028
 8957TIP3   OH251065   0.086   1.458  12.886
 8957TIP3    H151066   0.104   1.384  12.944
 8957TIP3    H251067   0.148   1.526  12.914
 8958TIP3   OH251068   0.406   1.671  12.525
 8958TIP3    H151069   0.427   1.640  12.613
 8958TIP3    H251070   0.321   1.630  12.506
 8959TIP3   OH251071   1.475   0.950  11.953
 8959TIP3    H151072   1.433   0.958  11.868
 8959TIP3    H251073   1.522   0.867  11.949
 8960TIP3   OH251074   1.016   0.332  12.044
 8960TIP3    H151075   0.941   0.317  12.101
 8960TIP3    H251076   0.978   0.344  11.957
 8961TIP3   OH251077   0.634   0.621  12.537
 8961TIP3    H151078   0.558   0.569  12.562
 8961TIP3    H251079   0.645   0.603  12.443
 8962TIP3   OH251080   1.165   0.641  12.414
 8962TIP3    H151081   1.131   0.729  12.397
 8962TIP3    H251082   1.232   0.629  12.347
 8963TIP3   OH251083   0.633   0.410  11.934
 8963TIP3    H151084   0.658   0.318  11.946
 8963TIP3    H251085   0.593   0.412  11.846
 8964TIP3   OH251086   0.872   0.389  12.715
 8964TIP3    H151087   0.803   0.344  12.667
 8964TIP3    H251088   0.849   0.376  12.807
 8965TIP3   OH251089   0.655   0.562  12.267
 8965TIP3    H151090   0.710   0.490  12.236
 8965TIP3    H251091   0.626   0.605  12.187
 8966TIP3   OH251092   0.570   0.694  12.033
 8966TIP3    H151093   0.524   0.663  11.954
 8966TIP3    H251094   0.657   0.717  12.002
 8967TIP3   OH251095   0.930   0.641  12.835
 8967TIP3    H151096   0.912   0.559  12.789
 8967TIP3    H251097   0.909   0.623  12.926
 8968TIP3   OH251098   0.868   1.146  12.235
 8968TIP3    H151099   0.808   1.085  12.193
 8968TIP3    H251100   0.836   1.155  12.324
 8969TIP3   OH251101   1.265   0.439  12.030
 8969TIP3    H151102   1.174   0.413  12.040
 8969TIP3    H251103   1.288   0.482  12.112
 8970TIP3   OH251104   1.367   0.592  12.237
 8970TIP3    H151105   1.456   0.578  12.269
 8970TIP3    H251106   1.372   0.674  12.187
 8971TIP3   OH251107   0.382   1.075  12.789
 8971TIP3    H151108   0.440   1.034  12.724
 8971TIP3    H251109   0.348   1.001  12.840
 8972TIP3   OH251110   1.122   1.235  12.187
 8972TIP3    H151111   1.128   1.233  12.092
 8972TIP3    H251112   1.034   1.201  12.206
 8973TIP3   OH251113   1.797   0.640  12.188
 8973TIP3    H151114   1.740   0.626  12.112
 8973TIP3    H251115   1.837   0.725  12.172
 8974TIP3   OH251116   1.546   1.477  12.182
 8974TIP3    H151117   1.535   1.446  12.273
 8974TIP3    H251118   1.640   1.471  12.166
 8975TIP3   OH251119   0.650   1.428  12.522
 8975TIP3    H151120   0.674   1.515  12.490
 8975TIP3    H251121   0.555   1.432  12.532
 8976TIP3   OH251122   0.209   0.928  11.998
 8976TIP3    H151123   0.262   0.967  12.068
 8976TIP3    H251124   0.121   0.921  12.036
 8977TIP3   OH251125   0.760   1.180  12.482
 8977TIP3    H151126   0.726   1.268  12.495
 8977TIP3    H251127   0.693   1.122  12.518
 8978TIP3   OH251128   0.657   1.692  12.422
 8978TIP3    H151129   0.565   1.697  12.445
 8978TIP3    H251130   0.696   1.771  12.460
 8979TIP3   OH251131   1.390   1.267  12.003
 8979TIP3    H151132   1.381   1.255  12.097
 8979TIP3    H251133   1.302   1.255  11.968
 8980TIP3   OH251134   1.848   1.718  12.046
 8980TIP3    H151135   1.910   1.786  12.021
 8980TIP3    H251136   1.779   1.764  12.094
 8981TIP3   OH251137   1.477   1.146  12.239
 8981TIP3    H151138   1.460   1.068  12.292
 8981TIP3    H251139   1.489   1.216  12.303
 8982TIP3   OH251140   0.843   1.406  11.871
 8982TIP3    H151141   0.825   1.333  11.812
 8982TIP3    H251142   0.791   1.388  11.949
 8983TIP3   OH251143   0.710   1.349  12.103
 8983TIP3    H151144   0.760   1.290  12.159
 8983TIP3    H251145   0.723   1.436  12.142
 8984TIP3   OH251146   0.352   1.079  12.188
 8984TIP3    H151147   0.275   1.117  12.230
 8984TIP3    H251148   0.393   1.153  12.142
 8985TIP3   OH251149   1.176   0.284  12.285
 8985TIP3    H151150   1.135   0.276  12.200
 8985TIP3    H251151   1.129   0.356  12.328
 8986TIP3   OH251152   0.981   0.442  12.453
 8986TIP3    H151153   1.033   0.522  12.440
 8986TIP3    H251154   0.935   0.458  12.535
 8987TIP3   OH251155   1.048   0.178  12.524
 8987TIP3    H151156   1.012   0.266  12.522
 8987TIP3    H251157   1.093   0.169  12.439
 8988TIP3   OH251158   0.741   1.610  12.175
 8988TIP3    H151159   0.689   1.659  12.112
 8988TIP3    H251160   0.712   1.641  12.261
 8989TIP3   OH251161   0.435   1.307  12.037
 8989TIP3    H151162   0.516   1.345  12.071
 8989TIP3    H251163   0.463   1.257  11.960
 8990TIP3   OH251164   0.200   1.460  12.395
 8990TIP3    H151165   0.116   1.494  12.425
 8990TIP3    H251166   0.224   1.516  12.321
 8991TIP3   OH251167   1.034   1.599  11.857
 8991TIP3    H151168   0.963   1.535  11.866
 8991TIP3    H251169   1.105   1.551  11.816
 8992TIP3   OH251170   1.454   1.580  11.906
 8992TIP3    H151171   1.484   1.535  11.985
 8992TIP3    H251172   1.529   1.577  11.846
 8993TIP3   OH251173   0.572   1.130  11.874
 8993TIP3    H151174   0.595   1.077  11.950
 8993TIP3    H251175   0.655   1.151  11.833
 8994TIP3   OH251176   1.130   1.245  11.901
 8994TIP3    H151177   1.040   1.270  11.880
 8994TIP3    H251178   1.141   1.159  11.860
 8995TIP3   OH251179   0.693   0.969  12.119
 8995TIP3    H151180   0.623   0.919  12.160
 8995TIP3    H251181   0.739   0.906  12.063
 8996TIP3   OH251182   0.816   0.792  11.950
 8996TIP3    H151183   0.816   0.820  11.859
 8996TIP3    H251184   0.909   0.780  11.972
 8997TIP3   OH251185   1.752   1.026  11.883
 8997TIP3    H151186   1.722   0.988  11.800
 8997TIP3    H251187   1.781   1.114  11.860
 8998TIP3   OH251188   0.153   1.319  12.021
 8998TIP3    H151189   0.246   1.340  12.031
 8998TIP3    H251190   0.150   1.262  11.945
 8999TIP3   OH251191   0.080   1.823  12.461
 8999TIP3    H151192  -0.010   1.852  12.471
 8999TIP3    H251193   0.091   1.753  12.526
 9000TIP3   OH251194   0.143   1.626  12.654
 9000TIP3    H151195   0.159   1.534  12.677
 9000TIP3    H251196   0.177   1.675  12.729
 9001TIP3   OH251197   1.774   1.113  12.212
 9001TIP3    H151198   1.854   1.163  12.225
 9001TIP3    H251199   1.761   1.067  12.295
 9002TIP3   OH251200   1.800   0.954  12.438
 9002TIP3    H151201   1.724   0.916  12.483
 9002TIP3    H251202   1.870   0.952  12.503
 9003TIP3   OH251203   1.871   1.238  12.959
 9003TIP3    H151204   1.960   1.210  12.938
 9003TIP3    H251205   1.860   1.215  13.052
 9004TIP3   OH251206   1.867   0.885  12.092
 9004TIP3    H151207   1.825   0.909  12.010
 9004TIP3    H251208   1.845   0.957  12.152
 9005TIP3   OH251209   1.659   0.656  11.952
 9005TIP3    H151210   1.714   0.690  11.882
 9005TIP3    H251211   1.630   0.571  11.920
 9006TIP3   OH251212   1.608   0.760  12.529
 9006TIP3    H151213   1.600   0.686  12.469
 9006TIP3    H251214   1.687   0.740  12.580
 9007TIP3   OH251215   0.258   0.904  12.984
 9007TIP3    H151216   0.170   0.932  13.009
 9007TIP3    H251217   0.307   0.901  13.067
 9008TIP3   OH251218   1.621   0.401  11.858
 9008TIP3    H151219   1.662   0.346  11.924
 9008TIP3    H251220   1.535   0.361  11.845
 9009TIP3   OH251221   1.613   0.537  12.367
 9009TIP3    H151222   1.630   0.445  12.388
 9009TIP3    H251223   1.686   0.563  12.311
 9010TIP3   OH251224   1.633   0.261  12.435
 9010TIP3    H151225   1.707   0.203  12.417
 9010TIP3    H251226   1.563   0.229  12.378
 9011TIP3   OH251227   0.086   0.671  13.025
 9011TIP3    H151228   0.161   0.708  12.979
 9011TIP3    H251229   0.072   0.731  13.099
 9012TIP3   OH251230   1.811   0.285  12.033
 9012TIP3    H151231   1.856   0.232  11.967
 9012TIP3    H251232   1.876   0.351  12.058
 9013TIP3   OH251233   0.266   1.683  12.900
 9013TIP3    H151234   0.298   1.706  12.987
 9013TIP3    H251235   0.342   1.648  12.854
 9014TIP3   OH251236   0.481   1.577  12.772
 9014TIP3    H151237   0.484   1.485  12.799
 9014TIP3    H251238   0.566   1.612  12.798
 9015TIP3   OH251239   0.735   1.657  12.865
 9015TIP3    H151240   0.816   1.624  12.825
 9015TIP3    H251241   0.751   1.650  12.959
 9016TIP3   OH251242   1.569   0.088  12.698
 9016TIP3    H151243   1.661   0.104  12.678
 9016TIP3    H251244   1.528   0.070  12.613
 9017TIP3   OH251245   0.151   0.104  12.086
 9017TIP3    H151246   0.061   0.078  12.068
 9017TIP3    H251247   0.154   0.116  12.181
 9018TIP3   OH251248   0.764   0.130  12.543
 9018TIP3    H151249   0.857   0.108  12.545
 9018TIP3    H251250   0.720   0.047  12.524
 9019TIP3   OH251251   1.432   0.166  12.276
 9019TIP3    H151252   1.345   0.205  12.271
 9019TIP3    H251253   1.416   0.071  12.273
 9020TIP3   OH251254   0.189   1.661  12.210
 9020TIP3    H151255   0.094   1.665  12.198
 9020TIP3    H251256   0.216   1.753  12.212
 9021TIP3   OH251257   0.838   0.309  12.254
 9021TIP3    H151258   0.802   0.230  12.295
 9021TIP3    H251259   0.880   0.356  12.326
 9022TIP3   OH251260   1.742   1.692  12.341
 9022TIP3    H151261   1.666   1.658  12.388
 9022TIP3    H251262   1.707   1.765  12.290
 9023TIP3   OH251263   0.320   1.749  11.926
 9023TIP3    H151264   0.280   1.785  12.005
 9023TIP3    H251265   0.358   1.665  11.954
 9024TIP3   OH251266   3.113   1.016  12.539
 9024TIP3    H151267   3.076   1.099  12.509
 9024TIP3    H251268   3.043   0.952  12.524
 9025TIP3   OH251269   3.295   1.209  12.778
 9025TIP3    H151270   3.267   1.118  12.768
 9025TIP3    H251271   3.358   1.222  12.707
 9026TIP3   OH251272   1.926   0.655  12.471
 9026TIP3    H151273   1.957   0.726  12.527
 9026TIP3    H251274   1.901   0.698  12.389
 9027TIP3   OH251275   1.984   0.884  12.641
 9027TIP3    H151276   2.013   0.810  12.695
 9027TIP3    H251277   2.031   0.959  12.678
 9028TIP3   OH251278   2.811   1.093  13.014
 9028TIP3    H151279   2.850   1.063  12.932
 9028TIP3    H251280   2.813   1.189  13.008
 9029TIP3   OH251281   2.409   0.415  12.700
 9029TIP3    H151282   2.441   0.480  12.637
 9029TIP3    H251283   2.377   0.342  12.646
 9030TIP3   OH251284   3.228   0.424  12.515
 9030TIP3    H151285   3.238   0.339  12.558
 9030TIP3    H251286   3.254   0.487  12.581
 9031TIP3   OH251287   2.061   0.645  12.751
 9031TIP3    H151288   2.119   0.661  12.826
 9031TIP3    H251289   2.105   0.577  12.701
 9032TIP3   OH251290   2.639   0.740  12.691
 9032TIP3    H151291   2.712   0.752  12.751
 9032TIP3    H251292   2.645   0.649  12.663
 9033TIP3   OH251293   3.027   1.247  12.412
 9033TIP3    H151294   3.028   1.235  12.318
 9033TIP3    H251295   3.042   1.341  12.424
 9034TIP3   OH251296   2.276   0.531  12.906
 9034TIP3    H151297   2.336   0.560  12.974
 9034TIP3    H251298   2.333   0.495  12.837
 9035TIP3   OH251299   2.018   1.233  12.260
 9035TIP3    H151300   2.026   1.282  12.178
 9035TIP3    H251301   2.040   1.296  12.328
 9036TIP3   OH251302   2.955   0.914  12.297
 9036TIP3    H151303   2.896   0.986  12.273
 9036TIP3    H251304   3.033   0.929  12.244
 9037TIP3   OH251305   2.971   0.811  11.967
 9037TIP3    H151306   3.020   0.832  12.046
 9037TIP3    H251307   3.026   0.748  11.921
 9038TIP3   OH251308   3.322   0.939  12.383
 9038TIP3    H151309   3.256   0.963  12.447
 9038TIP3    H251310   3.378   0.876  12.428
 9039TIP3   OH251311   3.187   0.893  12.149
 9039TIP3    H151312   3.240   0.910  12.227
 9039TIP3    H251313   3.237   0.932  12.078
 9040TIP3   OH251314   3.005   1.529  12.459
 9040TIP3    H151315   2.960   1.495  12.536
 9040TIP3    H251316   2.935   1.554  12.399
 9041TIP3   OH251317   3.550   0.078  12.119
 9041TIP3    H151318   3.470   0.108  12.162
 9041TIP3    H251319   3.597   0.158  12.096
 9042TIP3   OH251320   2.381   0.873  12.282
 9042TIP3    H151321   2.330   0.950  12.255
 9042TIP3    H251322   2.320   0.822  12.337
 9043TIP3   OH251323   2.912   1.801  12.349
 9043TIP3    H151324   2.908   1.805  12.253
 9043TIP3    H251325   2.911   1.892  12.377
 9044TIP3   OH251326   2.273   1.676  12.591
 9044TIP3    H151327   2.278   1.674  12.686
 9044TIP3    H251328   2.200   1.619  12.569
 9045TIP3   OH251329   3.208   1.744  12.066
 9045TIP3    H151330   3.253   1.671  12.026
 9045TIP3    H251331   3.214   1.728  12.160
 9046TIP3   OH251332   3.211   1.707  12.344
 9046TIP3    H151333   3.123   1.682  12.371
 9046TIP3    H251334   3.269   1.657  12.401
 9047TIP3   OH251335   2.459   0.086  12.853
 9047TIP3    H151336   2.365   0.077  12.838
 9047TIP3    H251337   2.473   0.179  12.868
 9048TIP3   OH251338   3.327   0.992  11.939
 9048TIP3    H151339   3.316   0.964  11.849
 9048TIP3    H251340   3.422   1.001  11.950
 9049TIP3   OH251341   2.457   0.605  12.501
 9049TIP3    H151342   2.361   0.615  12.502
 9049TIP3    H251343   2.490   0.693  12.521
 9050TIP3   OH251344   3.029   0.657  12.371
 9050TIP3    H151345   3.001   0.745  12.347
 9050TIP3    H251346   3.101   0.637  12.312
 9051TIP3   OH251347   3.028   0.627  12.645
 9051TIP3    H151348   3.034   0.635  12.550
 9051TIP3    H251349   3.046   0.534  12.662
 9052TIP3   OH251350   2.539   0.374  11.876
 9052TIP3    H151351   2.464   0.320  11.902
 9052TIP3    H251352   2.500   0.458  11.852
 9053TIP3   OH251353   1.996   0.453  12.153
 9053TIP3    H151354   2.055   0.497  12.091
 9053TIP3    H251355   1.934   0.521  12.179
 9054TIP3   OH251356   2.178   0.530  12.493
 9054TIP3    H151357   2.089   0.564  12.482
 9054TIP3    H251358   2.171   0.437  12.473
 9055TIP3   OH251359   2.443   0.664  11.994
 9055TIP3    H151360   2.406   0.653  11.906
 9055TIP3    H251361   2.527   0.707  11.979
 9056TIP3   OH251362   2.860   0.705  12.851
 9056TIP3    H151363   2.922   0.688  12.780
 9056TIP3    H251364   2.902   0.669  12.929
 9057TIP3   OH251365   2.760   1.116  12.222
 9057TIP3    H151366   2.692   1.063  12.180
 9057TIP3    H251367   2.730   1.128  12.312
 9058TIP3   OH251368   3.113   0.441  12.027
 9058TIP3    H151369   3.082   0.381  12.095
 9058TIP3    H251370   3.163   0.507  12.075
 9059TIP3   OH251371   3.244   0.613  12.190
 9059TIP3    H151372   3.322   0.586  12.239
 9059TIP3    H251373   3.260   0.706  12.170
 9060TIP3   OH251374   2.964   1.269  12.126
 9060TIP3    H151375   2.934   1.357  12.149
 9060TIP3    H251376   2.893   1.212  12.155
 9061TIP3   OH251377   3.698   0.639  12.182
 9061TIP3    H151378   3.649   0.617  12.102
 9061TIP3    H251379   3.721   0.731  12.171
 9062TIP3   OH251380   2.526   1.405  12.501
 9062TIP3    H151381   2.531   1.498  12.478
 9062TIP3    H251382   2.439   1.395  12.540
 9063TIP3   OH251383   2.119   0.914  11.985
 9063TIP3    H151384   2.173   0.966  12.044
 9063TIP3    H251385   2.036   0.902  12.031
 9064TIP3   OH251386   2.652   1.162  12.464
 9064TIP3    H151387   2.612   1.247  12.483
 9064TIP3    H251388   2.636   1.110  12.543
 9065TIP3   OH251389   2.504   1.680  12.436
 9065TIP3    H151390   2.419   1.683  12.480
 9065TIP3    H251391   2.548   1.760  12.463
 9066TIP3   OH251392   3.320   1.302  12.016
 9066TIP3    H151393   3.351   1.262  12.098
 9066TIP3    H251394   3.242   1.252  11.993
 9067TIP3   OH251395   3.405   1.164  12.235
 9067TIP3    H151396   3.366   1.097  12.291
 9067TIP3    H251397   3.500   1.151  12.244
 9068TIP3   OH251398   2.696   1.413  11.858
 9068TIP3    H151399   2.704   1.330  11.810
 9068TIP3    H251400   2.654   1.388  11.941
 9069TIP3   OH251401   2.578   1.354  12.102
 9069TIP3    H151402   2.623   1.293  12.160
 9069TIP3    H251403   2.587   1.439  12.145
 9070TIP3   OH251404   2.233   1.080  12.175
 9070TIP3    H151405   2.162   1.121  12.225
 9070TIP3    H251406   2.281   1.153  12.136
 9071TIP3   OH251407   3.089   0.327  12.286
 9071TIP3    H151408   3.137   0.387  12.343
 9071TIP3    H251409   3.040   0.271  12.345
 9072TIP3   OH251410   2.868   1.522  12.185
 9072TIP3    H151411   2.775   1.544  12.191
 9072TIP3    H251412   2.911   1.602  12.155
 9073TIP3   OH251413   2.609   1.613  12.190
 9073TIP3    H151414   2.611   1.697  12.144
 9073TIP3    H251415   2.569   1.634  12.275
 9074TIP3   OH251416   2.314   1.306  12.016
 9074TIP3    H151417   2.388   1.350  12.059
 9074TIP3    H251418   2.354   1.245  11.954
 9075TIP3   OH251419   2.092   0.629  11.969
 9075TIP3    H151420   2.143   0.706  11.994
 9075TIP3    H251421   2.060   0.649  11.881
 9076TIP3   OH251422   2.190   0.085  12.781
 9076TIP3    H151423   2.194   0.095  12.686
 9076TIP3    H251424   2.177  -0.009  12.795
 9077TIP3   OH251425   2.075   1.451  12.418
 9077TIP3    H151426   2.031   1.488  12.495
 9077TIP3    H251427   2.079   1.523  12.356
 9078TIP3   OH251428   2.897   1.603  11.860
 9078TIP3    H151429   2.829   1.536  11.870
 9078TIP3    H251430   2.974   1.555  11.832
 9079TIP3   OH251431   3.339   1.555  11.920
 9079TIP3    H151432   3.342   1.468  11.959
 9079TIP3    H251433   3.403   1.552  11.849
 9080TIP3   OH251434   2.448   1.114  11.875
 9080TIP3    H151435   2.476   1.065  11.952
 9080TIP3    H251436   2.527   1.127  11.824
 9081TIP3   OH251437   3.027   1.269  11.858
 9081TIP3    H151438   3.000   1.263  11.949
 9081TIP3    H251439   3.023   1.178  11.826
 9082TIP3   OH251440   2.558   0.971  12.095
 9082TIP3    H151441   2.507   0.927  12.162
 9082TIP3    H251442   2.604   0.900  12.049
 9083TIP3   OH251443   2.688   0.788  11.932
 9083TIP3    H151444   2.685   0.815  11.840
 9083TIP3    H251445   2.781   0.788  11.954
 9084TIP3   OH251446   3.597   1.023  11.887
 9084TIP3    H151447   3.606   0.999  11.795
 9084TIP3    H251448   3.618   1.117  11.890
 9085TIP3   OH251449   2.669   1.854  12.066
 9085TIP3    H151450   2.763   1.836  12.071
 9085TIP3    H251451   2.661   1.919  11.996
 9086TIP3   OH251452   2.040   1.316  11.993
 9086TIP3    H151453   2.135   1.323  12.005
 9086TIP3    H251454   2.029   1.246  11.928
 9087TIP3   OH251455   1.925   1.825  12.500
 9087TIP3    H151456   1.867   1.777  12.441
 9087TIP3    H251457   1.946   1.762  12.569
 9088TIP3   OH251458   1.982   1.604  12.661
 9088TIP3    H151459   1.896   1.588  12.700
 9088TIP3    H251460   2.045   1.581  12.729
 9089TIP3   OH251461   3.669   1.096  12.271
 9089TIP3    H151462   3.753   1.140  12.282
 9089TIP3    H251463   3.668   1.029  12.340
 9090TIP3   OH251464   3.688   0.895  12.449
 9090TIP3    H151465   3.613   0.844  12.481
 9090TIP3    H251466   3.748   0.899  12.523
 9091TIP3   OH251467   3.732   0.898  12.093
 9091TIP3    H151468   3.683   0.922  12.014
 9091TIP3    H251469   3.704   0.961  12.159
 9092TIP3   OH251470   3.563   0.628  11.944
 9092TIP3    H151471   3.608   0.672  11.872
 9092TIP3    H251472   3.535   0.544  11.907
 9093TIP3   OH251473   3.468   0.742  12.518
 9093TIP3    H151474   3.465   0.668  12.458
 9093TIP3    H251475   3.450   0.705  12.604
 9094TIP3   OH251476   3.511   0.378  11.842
 9094TIP3    H151477   3.555   0.335  11.915
 9094TIP3    H251478   3.421   0.344  11.844
 9095TIP3   OH251479   3.479   0.549  12.323
 9095TIP3    H151480   3.490   0.456  12.340
 9095TIP3    H251481   3.559   0.575  12.277
 9096TIP3   OH251482   3.532   0.284  12.356
 9096TIP3    H151483   3.545   0.249  12.445
 9096TIP3    H251484   3.453   0.240  12.325
 9097TIP3   OH251485   2.096   0.347  12.800
 9097TIP3    H151486   2.139   0.261  12.808
 9097TIP3    H251487   2.152   0.406  12.851
 9098TIP3   OH251488   3.705   0.279  12.019
 9098TIP3    H151489   3.759   0.220  11.966
 9098TIP3    H251490   3.768   0.331  12.068
 9099TIP3   OH251491   1.928   0.255  12.332
 9099TIP3    H151492   1.848   0.239  12.282
 9099TIP3    H251493   1.968   0.331  12.289
 9100TIP3   OH251494   3.467   0.019  12.797
 9100TIP3    H151495   3.415   0.068  12.734
 9100TIP3    H251496   3.414   0.016  12.876
 9101TIP3   OH251497   3.611   0.181  12.594
 9101TIP3    H151498   3.636   0.093  12.619
 9101TIP3    H251499   3.687   0.235  12.614
 9102TIP3   OH251500   2.179   0.111  12.510
 9102TIP3    H151501   2.095   0.131  12.469
 9102TIP3    H251502   2.201   0.023  12.477
 9103TIP3   OH251503   2.099   0.127  12.139
 9103TIP3    H151504   2.048   0.175  12.074
 9103TIP3    H251505   2.055   0.145  12.222
 9104TIP3   OH251506   3.220   0.180  12.646
 9104TIP3    H151507   3.154   0.147  12.586
 9104TIP3    H251508   3.182   0.167  12.733
 9105TIP3   OH251509   3.315   0.154  12.250
 9105TIP3    H151510   3.233   0.202  12.263
 9105TIP3    H251511   3.291   0.062  12.265
 9106TIP3   OH251512   2.058   1.652  12.232
 9106TIP3    H151513   1.966   1.649  12.206
 9106TIP3    H251514   2.084   1.743  12.216
 9107TIP3   OH251515   2.295   0.245  11.970
 9107TIP3    H151516   2.325   0.177  11.909
 9107TIP3    H251517   2.254   0.196  12.042
 9108TIP3   OH251518   2.935   1.778  12.067
 9108TIP3    H151519   3.031   1.785  12.066
 9108TIP3    H251520   2.915   1.727  11.988
 9109TIP3   OH251521   2.208   1.727  11.914
 9109TIP3    H151522   2.175   1.732  12.004
 9109TIP3    H251523   2.284   1.669  11.920
 9110TIP3   OH251524   3.850   0.618  12.443
 9110TIP3    H151525   3.857   0.696  12.498
 9110TIP3    H251526   3.788   0.644  12.374
 9111TIP3   OH251527   3.874   0.892  12.649
 9111TIP3    H151528   3.874   0.867  12.741
 9111TIP3    H251529   3.940   0.962  12.643
 9112TIP3   OH251530   5.143   0.439  12.511
 9112TIP3    H151531   5.178   0.398  12.590
 9112TIP3    H251532   5.219   0.482  12.471
 9113TIP3   OH251533   3.990   0.581  12.741
 9113TIP3    H151534   4.006   0.497  12.783
 9113TIP3    H251535   4.031   0.573  12.655
 9114TIP3   OH251536   4.478   0.712  12.757
 9114TIP3    H151537   4.568   0.691  12.733
 9114TIP3    H251538   4.426   0.685  12.681
 9115TIP3   OH251539   5.291   0.332  12.718
 9115TIP3    H151540   5.245   0.338  12.801
 9115TIP3    H251541   5.382   0.319  12.741
 9116TIP3   OH251542   3.904   1.237  12.288
 9116TIP3    H151543   3.901   1.292  12.209
 9116TIP3    H251544   3.893   1.299  12.360
 9117TIP3   OH251545   4.577   0.130  12.840
 9117TIP3    H151546   4.607   0.040  12.830
 9117TIP3    H251547   4.507   0.140  12.775
 9118TIP3   OH251548   4.863   0.926  12.258
 9118TIP3    H151549   4.779   0.972  12.251
 9118TIP3    H251550   4.911   0.973  12.326
 9119TIP3   OH251551   4.851   0.802  11.974
 9119TIP3    H151552   4.866   0.818  12.067
 9119TIP3    H251553   4.916   0.737  11.949
 9120TIP3   OH251554   4.312   0.962  12.573
 9120TIP3    H151555   4.287   0.934  12.485
 9120TIP3    H251556   4.405   0.941  12.579
 9121TIP3   OH251557   5.493   0.034  12.191
 9121TIP3    H151558   5.409   0.048  12.235
 9121TIP3    H251559   5.517   0.121  12.158
 9122TIP3   OH251560   4.265   0.897  12.301
 9122TIP3    H151561   4.199   0.955  12.262
 9122TIP3    H251562   4.233   0.809  12.282
 9123TIP3   OH251563   5.573   1.435  12.017
 9123TIP3    H151564   5.521   1.464  11.942
 9123TIP3    H251565   5.655   1.403  11.980
 9124TIP3   OH251566   4.134   1.641  12.448
 9124TIP3    H151567   4.216   1.607  12.484
 9124TIP3    H251568   4.080   1.661  12.525
 9125TIP3   OH251569   5.096   1.768  12.056
 9125TIP3    H151570   5.157   1.696  12.044
 9125TIP3    H251571   5.120   1.806  12.140
 9126TIP3   OH251572   5.018   1.644  12.340
 9126TIP3    H151573   4.982   1.718  12.388
 9126TIP3    H251574   5.021   1.573  12.403
 9127TIP3   OH251575   4.745   0.346  12.011
 9127TIP3    H151576   4.700   0.335  12.095
 9127TIP3    H251577   4.718   0.271  11.959
 9128TIP3   OH251578   4.344   0.633  12.542
 9128TIP3    H151579   4.260   0.587  12.540
 9128TIP3    H251580   4.380   0.621  12.454
 9129TIP3   OH251581   4.900   0.669  12.358
 9129TIP3    H151582   4.877   0.759  12.336
 9129TIP3    H251583   4.990   0.659  12.327
 9130TIP3   OH251584   4.419   0.367  11.900
 9130TIP3    H151585   4.391   0.362  11.992
 9130TIP3    H251586   4.366   0.437  11.863
 9131TIP3   OH251587   3.837   0.335  12.611
 9131TIP3    H151588   3.857   0.428  12.604
 9131TIP3    H251589   3.848   0.302  12.522
 9132TIP3   OH251590   3.882   0.429  12.166
 9132TIP3    H151591   3.946   0.470  12.108
 9132TIP3    H251592   3.825   0.502  12.192
 9133TIP3   OH251593   4.624   0.445  12.672
 9133TIP3    H151594   4.564   0.385  12.627
 9133TIP3    H251595   4.702   0.392  12.689
 9134TIP3   OH251596   4.109   0.499  12.508
 9134TIP3    H151597   4.039   0.503  12.444
 9134TIP3    H251598   4.159   0.421  12.484
 9135TIP3   OH251599   4.426   0.596  12.286
 9135TIP3    H151600   4.518   0.571  12.293
 9135TIP3    H251601   4.413   0.612  12.192
 9136TIP3   OH251602   5.165   0.322  12.965
 9136TIP3    H151603   5.124   0.397  13.009
 9136TIP3    H251604   5.092   0.270  12.932
 9137TIP3   OH251605   4.363   0.666  12.023
 9137TIP3    H151606   4.308   0.640  11.949
 9137TIP3    H251607   4.434   0.717  11.984
 9138TIP3   OH251608   4.652   1.110  12.260
 9138TIP3    H151609   4.569   1.083  12.219
 9138TIP3    H251610   4.625   1.160  12.337
 9139TIP3   OH251611   4.998   0.427  12.078
 9139TIP3    H151612   4.906   0.412  12.057
 9139TIP3    H251613   5.001   0.516  12.113
 9140TIP3   OH251614   5.132   0.649  12.201
 9140TIP3    H151615   5.195   0.606  12.260
 9140TIP3    H251616   5.181   0.661  12.119
 9141TIP3   OH251617   4.078   1.077  12.671
 9141TIP3    H151618   4.163   1.051  12.635
 9141TIP3    H251619   4.100   1.132  12.746
 9142TIP3   OH251620   4.845   1.243  12.114
 9142TIP3    H151621   4.873   1.301  12.185
 9142TIP3    H251622   4.781   1.184  12.155
 9143TIP3   OH251623   5.582   0.630  12.195
 9143TIP3    H151624   5.524   0.615  12.120
 9143TIP3    H251625   5.627   0.712  12.174
 9144TIP3   OH251626   5.558   1.462  12.294
 9144TIP3    H151627   5.473   1.493  12.324
 9144TIP3    H251628   5.552   1.461  12.199
 9145TIP3   OH251629   5.169   0.910  12.874
 9145TIP3    H151630   5.102   0.954  12.823
 9145TIP3    H251631   5.136   0.821  12.887
 9146TIP3   OH251632   3.999   0.869  12.044
 9146TIP3    H151633   4.041   0.942  12.089
 9146TIP3    H251634   3.906   0.876  12.068
 9147TIP3   OH251635   4.595   1.367  11.875
 9147TIP3    H151636   4.557   1.326  11.797
 9147TIP3    H251637   4.655   1.302  11.909
 9148TIP3   OH251638   4.104   1.086  12.175
 9148TIP3    H151639   4.038   1.128  12.229
 9148TIP3    H251640   4.146   1.158  12.129
 9149TIP3   OH251641   4.981   0.311  12.337
 9149TIP3    H151642   4.983   0.364  12.257
 9149TIP3    H251643   5.021   0.366  12.404
 9150TIP3   OH251644   4.678   0.517  12.399
 9150TIP3    H151645   4.760   0.565  12.390
 9150TIP3    H251646   4.665   0.509  12.494
 9151TIP3   OH251647   4.777   0.165  12.442
 9151TIP3    H151648   4.782   0.191  12.534
 9151TIP3    H251649   4.849   0.210  12.399
 9152TIP3   OH251650   4.349   0.324  12.165
 9152TIP3    H151651   4.312   0.373  12.239
 9152TIP3    H251652   4.440   0.307  12.191
 9153TIP3   OH251653   4.206   1.317  12.024
 9153TIP3    H151654   4.282   1.339  12.078
 9153TIP3    H251655   4.241   1.259  11.956
 9154TIP3   OH251656   3.999   0.600  11.988
 9154TIP3    H151657   4.014   0.690  12.017
 9154TIP3    H251658   3.959   0.610  11.902
 9155TIP3   OH251659   4.768   1.586  11.873
 9155TIP3    H151660   4.714   1.508  11.874
 9155TIP3    H251661   4.854   1.556  11.843
 9156TIP3   OH251662   5.303   1.606  11.957
 9156TIP3    H151663   5.288   1.527  11.905
 9156TIP3    H251664   5.327   1.673  11.893
 9157TIP3   OH251665   4.329   1.128  11.873
 9157TIP3    H151666   4.355   1.074  11.948
 9157TIP3    H251667   4.407   1.130  11.818
 9158TIP3   OH251668   4.875   1.258  11.843
 9158TIP3    H151669   4.872   1.253  11.938
 9158TIP3    H251670   4.897   1.169  11.814
 9159TIP3   OH251671   4.440   0.999  12.105
 9159TIP3    H151672   4.389   0.952  12.172
 9159TIP3    H251673   4.485   0.930  12.057
 9160TIP3   OH251674   4.571   0.823  11.931
 9160TIP3    H151675   4.566   0.841  11.838
 9160TIP3    H251676   4.665   0.810  11.948
 9161TIP3   OH251677   3.933   1.332  12.027
 9161TIP3    H151678   4.028   1.322  12.018
 9161TIP3    H251679   3.896   1.272  11.962
 9162TIP3   OH251680   5.589   0.898  12.408
 9162TIP3    H151681   5.512   0.861  12.451
 9162TIP3    H251682   5.651   0.913  12.480
 9163TIP3   OH251683   5.652   0.892  12.129
 9163TIP3    H151684   5.563   0.894  12.093
 9163TIP3    H251685   5.641   0.916  12.221
 9164TIP3   OH251686   5.440   0.631  11.960
 9164TIP3    H151687   5.479   0.675  11.885
 9164TIP3    H251688   5.414   0.545  11.927
 9165TIP3   OH251689   5.369   0.782  12.527
 9165TIP3    H151690   5.321   0.703  12.501
 9165TIP3    H251691   5.333   0.804  12.613
 9166TIP3   OH251692   5.390   0.373  11.867
 9166TIP3    H151693   5.430   0.321  11.937
 9166TIP3    H251694   5.298   0.347  11.867
 9167TIP3   OH251695   5.346   0.548  12.348
 9167TIP3    H151696   5.379   0.458  12.349
 9167TIP3    H251697   5.423   0.600  12.325
 9168TIP3   OH251698   5.453   0.295  12.360
 9168TIP3    H151699   5.464   0.250  12.444
 9168TIP3    H251700   5.372   0.260  12.324
 9169TIP3   OH251701   3.814   0.621  12.955
 9169TIP3    H151702   3.866   0.617  12.875
 9169TIP3    H251703   3.801   0.714  12.971
 9170TIP3   OH251704   5.580   0.250  12.035
 9170TIP3    H151705   5.627   0.186  11.981
 9170TIP3    H251706   5.648   0.310  12.066
 9171TIP3   OH251707   3.814   0.236  12.350
 9171TIP3    H151708   3.720   0.246  12.342
 9171TIP3    H251709   3.851   0.296  12.285
 9172TIP3   OH251710   4.804   0.240  12.713
 9172TIP3    H151711   4.743   0.189  12.767
 9172TIP3    H251712   4.884   0.187  12.712
 9173TIP3   OH251713   5.315  -0.022  12.671
 9173TIP3    H151714   5.362   0.059  12.652
 9173TIP3    H251715   5.276  -0.008  12.757
 9174TIP3   OH251716   5.528   0.154  12.583
 9174TIP3    H151717   5.575   0.070  12.583
 9174TIP3    H251718   5.592   0.218  12.614
 9175TIP3   OH251719   5.018   0.072  12.711
 9175TIP3    H151720   5.065   0.041  12.633
 9175TIP3    H251721   5.073   0.045  12.784
 9176TIP3   OH251722   5.221   0.183  12.288
 9176TIP3    H151723   5.135   0.224  12.302
 9176TIP3    H251724   5.205   0.090  12.302
 9177TIP3   OH251725   4.109   0.216  11.996
 9177TIP3    H151726   4.169   0.175  11.933
 9177TIP3    H251727   4.166   0.251  12.064
 9178TIP3   OH251728   4.613   0.297  12.249
 9178TIP3    H151729   4.632   0.222  12.306
 9178TIP3    H251730   4.635   0.374  12.301
 9179TIP3   OH251731   4.814   1.786  12.060
 9179TIP3    H151732   4.908   1.783  12.078
 9179TIP3    H251733   4.801   1.720  11.992
 9180TIP3   OH251734   4.131   1.719  11.915
 9180TIP3    H151735   4.120   1.732  12.009
 9180TIP3    H251736   4.141   1.624  11.905
 9181TIP3   OH251737   6.861   1.013  12.534
 9181TIP3    H151738   6.839   1.105  12.522
 9181TIP3    H251739   6.794   0.966  12.483
 9182TIP3   OH251740   6.748   0.883  12.904
 9182TIP3    H151741   6.807   0.813  12.873
 9182TIP3    H251742   6.675   0.882  12.842
 9183TIP3   OH251743   5.759   0.640  12.412
 9183TIP3    H151744   5.740   0.722  12.457
 9183TIP3    H251745   5.686   0.628  12.351
 9184TIP3   OH251746   5.798   0.881  12.603
 9184TIP3    H151747   5.806   0.808  12.664
 9184TIP3    H251748   5.885   0.919  12.599
 9185TIP3   OH251749   6.867   1.749  12.762
 9185TIP3    H151750   6.886   1.677  12.702
 9185TIP3    H251751   6.846   1.706  12.845
 9186TIP3   OH251752   6.560   1.201  12.953
 9186TIP3    H151753   6.521   1.114  12.959
 9186TIP3    H251754   6.641   1.195  13.004
 9187TIP3   OH251755   6.254   0.384  12.650
 9187TIP3    H151756   6.264   0.477  12.627
 9187TIP3    H251757   6.189   0.350  12.589
 9188TIP3   OH251758   6.994   0.446  12.577
 9188TIP3    H151759   7.014   0.409  12.663
 9188TIP3    H251760   7.079   0.475  12.543
 9189TIP3   OH251761   5.879   0.654  12.743
 9189TIP3    H151762   5.900   0.601  12.820
 9189TIP3    H251763   5.940   0.622  12.676
 9190TIP3   OH251764   6.388   0.801  12.683
 9190TIP3    H151765   6.437   0.753  12.749
 9190TIP3    H251766   6.345   0.733  12.631
 9191TIP3   OH251767   6.792   1.262  12.435
 9191TIP3    H151768   6.791   1.268  12.339
 9191TIP3    H251769   6.745   1.340  12.465
 9192TIP3   OH251770   5.779   1.227  12.226
 9192TIP3    H151771   5.754   1.265  12.142
 9192TIP3    H251772   5.793   1.302  12.284
 9193TIP3   OH251773   6.972   1.574  12.569
 9193TIP3    H151774   7.010   1.489  12.546
 9193TIP3    H251775   7.047   1.631  12.579
 9194TIP3   OH251776   7.101   1.345  12.487
 9194TIP3    H151777   7.107   1.301  12.403
 9194TIP3    H251778   7.078   1.276  12.549
 9195TIP3   OH251779   6.717   0.913  12.312
 9195TIP3    H151780   6.654   0.982  12.294
 9195TIP3    H251781   6.784   0.923  12.244
 9196TIP3   OH251782   6.743   0.804  11.952
 9196TIP3    H151783   6.795   0.836  12.026
 9196TIP3    H251784   6.799   0.737  11.911
 9197TIP3   OH251785   7.070   0.934  12.375
 9197TIP3    H151786   7.008   0.954  12.445
 9197TIP3    H251787   7.136   0.879  12.417
 9198TIP3   OH251788   6.219   0.987  12.559
 9198TIP3    H151789   6.207   0.933  12.481
 9198TIP3    H251790   6.268   0.930  12.620
 9199TIP3   OH251791   6.354   1.360  12.848
 9199TIP3    H151792   6.343   1.312  12.765
 9199TIP3    H251793   6.422   1.311  12.895
 9200TIP3   OH251794   6.935   0.885  12.144
 9200TIP3    H151795   6.984   0.898  12.225
 9200TIP3    H251796   6.991   0.924  12.076
 9201TIP3   OH251797   6.705   1.530  12.494
 9201TIP3    H151798   6.792   1.545  12.531
 9201TIP3    H251799   6.685   1.609  12.445
 9202TIP3   OH251800   7.316   0.088  12.139
 9202TIP3    H151801   7.223   0.108  12.130
 9202TIP3    H251802   7.360   0.163  12.099
 9203TIP3   OH251803   6.157   0.882  12.295
 9203TIP3    H151804   6.104   0.957  12.269
 9203TIP3    H251805   6.102   0.806  12.278
 9204TIP3   OH251806   7.461   1.461  11.991
 9204TIP3    H151807   7.468   1.556  12.001
 9204TIP3    H251808   7.552   1.431  11.983
 9205TIP3   OH251809   6.700   1.778  12.353
 9205TIP3    H151810   6.684   1.790  12.259
 9205TIP3    H251811   6.680   1.863  12.391
 9206TIP3   OH251812   6.044   1.736  12.526
 9206TIP3    H151813   6.034   1.777  12.612
 9206TIP3    H251814   5.961   1.755  12.481
 9207TIP3   OH251815   6.986   1.734  12.038
 9207TIP3    H151816   7.037   1.666  11.995
 9207TIP3    H251817   6.996   1.718  12.131
 9208TIP3   OH251818   6.964   1.712  12.313
 9208TIP3    H151819   6.872   1.729  12.333
 9208TIP3    H251820   6.990   1.646  12.378
 9209TIP3   OH251821   7.110   0.985  11.968
 9209TIP3    H151822   7.090   0.976  11.875
 9209TIP3    H251823   7.205   0.970  11.974
 9210TIP3   OH251824   6.634   0.328  12.041
 9210TIP3    H151825   6.576   0.312  12.115
 9210TIP3    H251826   6.601   0.272  11.971
 9211TIP3   OH251827   6.264   0.624  12.515
 9211TIP3    H151828   6.168   0.618  12.520
 9211TIP3    H251829   6.284   0.614  12.422
 9212TIP3   OH251830   6.794   0.660  12.397
 9212TIP3    H151831   6.764   0.746  12.369
 9212TIP3    H251832   6.869   0.641  12.340
 9213TIP3   OH251833   6.846   0.656  12.695
 9213TIP3    H151834   6.826   0.690  12.607
 9213TIP3    H251835   6.889   0.572  12.679
 9214TIP3   OH251836   6.310   0.377  11.889
 9214TIP3    H151837   6.276   0.362  11.978
 9214TIP3    H251838   6.255   0.447  11.854
 9215TIP3   OH251839   5.717   0.345  12.634
 9215TIP3    H151840   5.765   0.408  12.688
 9215TIP3    H251841   5.749   0.360  12.545
 9216TIP3   OH251842   5.767   0.432  12.137
 9216TIP3    H151843   5.827   0.480  12.080
 9216TIP3    H251844   5.703   0.498  12.165
 9217TIP3   OH251845   6.000   0.555  12.506
 9217TIP3    H151846   5.916   0.580  12.468
 9217TIP3    H251847   6.017   0.468  12.472
 9218TIP3   OH251848   6.323   0.578  12.251
 9218TIP3    H151849   6.416   0.588  12.235
 9218TIP3    H251850   6.281   0.614  12.173
 9219TIP3   OH251851   6.233   0.673  12.012
 9219TIP3    H151852   6.182   0.647  11.935
 9219TIP3    H251853   6.310   0.717  11.976
 9220TIP3   OH251854   6.587   0.629  12.814
 9220TIP3    H151855   6.677   0.628  12.780
 9220TIP3    H251856   6.597   0.639  12.909
 9221TIP3   OH251857   6.096   0.301  12.437
 9221TIP3    H151858   6.029   0.242  12.471
 9221TIP3    H251859   6.163   0.243  12.400
 9222TIP3   OH251860   6.534   1.123  12.236
 9222TIP3    H151861   6.465   1.072  12.193
 9222TIP3    H251862   6.502   1.138  12.325
 9223TIP3   OH251863   6.898   0.368  12.098
 9223TIP3    H151864   6.804   0.367  12.078
 9223TIP3    H251865   6.918   0.459  12.116
 9224TIP3   OH251866   6.992   0.615  12.179
 9224TIP3    H151867   7.087   0.614  12.182
 9224TIP3    H251868   6.970   0.704  12.152
 9225TIP3   OH251869   6.751   1.255  12.133
 9225TIP3    H151870   6.725   1.346  12.145
 9225TIP3    H251871   6.677   1.203  12.165
 9226TIP3   OH251872   7.615   0.615  12.118
 9226TIP3    H151873   7.524   0.596  12.138
 9226TIP3    H251874   7.617   0.709  12.099
 9227TIP3   OH251875   7.301   1.475  12.221
 9227TIP3    H151876   7.256   1.393  12.241
 9227TIP3    H251877   7.350   1.456  12.141
 9228TIP3   OH251878   6.284   1.397  12.533
 9228TIP3    H151879   6.307   1.485  12.504
 9228TIP3    H251880   6.202   1.377  12.487
 9229TIP3   OH251881   5.904   0.899  12.012
 9229TIP3    H151882   5.955   0.962  12.063
 9229TIP3    H251883   5.816   0.904  12.049
 9230TIP3   OH251884   6.416   1.161  12.474
 9230TIP3    H151885   6.388   1.246  12.508
 9230TIP3    H251886   6.355   1.098  12.514
 9231TIP3   OH251887   6.297   1.665  12.443
 9231TIP3    H151888   6.206   1.687  12.460
 9231TIP3    H251889   6.346   1.745  12.463
 9232TIP3   OH251890   7.081   1.301  12.027
 9232TIP3    H151891   7.101   1.254  12.108
 9232TIP3    H251892   6.991   1.273  12.006
 9233TIP3   OH251893   7.491   1.730  12.029
 9233TIP3    H151894   7.521   1.789  11.960
 9233TIP3    H251895   7.424   1.781  12.076
 9234TIP3   OH251896   7.160   1.178  12.265
 9234TIP3    H151897   7.115   1.097  12.289
 9234TIP3    H251898   7.253   1.156  12.271
 9235TIP3   OH251899   6.464   1.413  11.855
 9235TIP3    H151900   6.466   1.334  11.801
 9235TIP3    H251901   6.426   1.385  11.938
 9236TIP3   OH251902   6.358   1.336  12.100
 9236TIP3    H151903   6.409   1.274  12.152
 9236TIP3    H251904   6.374   1.421  12.142
 9237TIP3   OH251905   6.009   1.087  12.185
 9237TIP3    H151906   5.927   1.123  12.217
 9237TIP3    H251907   6.051   1.161  12.140
 9238TIP3   OH251908   6.887   0.294  12.373
 9238TIP3    H151909   6.893   0.342  12.290
 9238TIP3    H251910   6.923   0.353  12.438
 9239TIP3   OH251911   6.661   1.506  12.167
 9239TIP3    H151912   6.570   1.526  12.189
 9239TIP3    H251913   6.700   1.590  12.145
 9240TIP3   OH251914   6.580   0.486  12.427
 9240TIP3    H151915   6.659   0.540  12.418
 9240TIP3    H251916   6.522   0.538  12.483
 9241TIP3   OH251917   6.654   0.226  12.500
 9241TIP3    H151918   6.625   0.317  12.493
 9241TIP3    H251919   6.742   0.226  12.462
 9242TIP3   OH251920   6.399   1.589  12.196
 9242TIP3    H151921   6.398   1.672  12.147
 9242TIP3    H251922   6.365   1.612  12.282
 9243TIP3   OH251923   6.227   0.319  12.149
 9243TIP3    H151924   6.202   0.392  12.206
 9243TIP3    H251925   6.313   0.292  12.181
 9244TIP3   OH251926   7.100   0.772  12.759
 9244TIP3    H151927   7.010   0.742  12.755
 9244TIP3    H251928   7.146   0.705  12.810
 9245TIP3   OH251929   6.083   1.304  12.020
 9245TIP3    H151930   6.155   1.351  12.060
 9245TIP3    H251931   6.124   1.247  11.955
 9246TIP3   OH251932   5.874   0.625  11.974
 9246TIP3    H151933   5.904   0.711  12.004
 9246TIP3    H251934   5.835   0.642  11.888
 9247TIP3   OH251935   6.000   0.017  12.814
 9247TIP3    H151936   5.990   0.098  12.764
 9247TIP3    H251937   5.977  -0.052  12.752
 9248TIP3   OH251938   5.831   1.466  12.362
 9248TIP3    H151939   5.736   1.478  12.366
 9248TIP3    H251940   5.864   1.509  12.441
 9249TIP3   OH251941   6.667   1.604  11.860
 9249TIP3    H151942   6.603   1.533  11.869
 9249TIP3    H251943   6.746   1.561  11.827
 9250TIP3   OH251944   7.119   1.540  11.898
 9250TIP3    H151945   7.120   1.459  11.948
 9250TIP3    H251946   7.192   1.531  11.836
 9251TIP3   OH251947   6.219   1.119  11.873
 9251TIP3    H151948   6.254   1.078  11.952
 9251TIP3    H251949   6.295   1.129  11.815
 9252TIP3   OH251950   6.802   1.275  11.863
 9252TIP3    H151951   6.774   1.266  11.954
 9252TIP3    H251952   6.789   1.189  11.825
 9253TIP3   OH251953   6.338   0.982  12.103
 9253TIP3    H151954   6.285   0.937  12.169
 9253TIP3    H251955   6.376   0.911  12.051
 9254TIP3   OH251956   6.460   0.805  11.924
 9254TIP3    H151957   6.454   0.828  11.832
 9254TIP3    H251958   6.554   0.800  11.942
 9255TIP3   OH251959   7.391   0.997  11.892
 9255TIP3    H151960   7.357   0.965  11.808
 9255TIP3    H251961   7.366   1.090  11.894
 9256TIP3   OH251962   6.445   1.833  12.069
 9256TIP3    H151963   6.540   1.822  12.076
 9256TIP3    H251964   6.433   1.900  12.002
 9257TIP3   OH251965   5.815   1.316  11.947
 9257TIP3    H151966   5.904   1.313  11.982
 9257TIP3    H251967   5.805   1.234  11.900
 9258TIP3   OH251968   7.423   1.109  12.304
 9258TIP3    H151969   7.500   1.092  12.249
 9258TIP3    H251970   7.440   1.059  12.384
 9259TIP3   OH251971   7.465   0.940  12.538
 9259TIP3    H151972   7.380   0.896  12.530
 9259TIP3    H251973   7.528   0.878  12.501
 9260TIP3   OH251974   7.544   0.890  12.098
 9260TIP3    H151975   7.502   0.926  12.020
 9260TIP3    H251976   7.474   0.848  12.147
 9261TIP3   OH251977   7.384   0.639  11.872
 9261TIP3    H151978   7.362   0.659  11.963
 9261TIP3    H251979   7.328   0.563  11.850
 9262TIP3   OH251980   7.244   0.782  12.532
 9262TIP3    H151981   7.241   0.691  12.503
 9262TIP3    H251982   7.194   0.782  12.614
 9263TIP3   OH251983   5.764   0.800  12.953
 9263TIP3    H151984   5.784   0.745  12.878
 9263TIP3    H251985   5.844   0.797  13.007
 9264TIP3   OH251986   7.256   0.380  11.854
 9264TIP3    H151987   7.256   0.378  11.950
 9264TIP3    H251988   7.164   0.372  11.829
 9265TIP3   OH251989   7.223   0.517  12.434
 9265TIP3    H151990   7.238   0.424  12.413
 9265TIP3    H251991   7.246   0.563  12.354
 9266TIP3   OH251992   7.258   0.590  12.882
 9266TIP3    H151993   7.347   0.620  12.899
 9266TIP3    H251994   7.228   0.555  12.966
 9267TIP3   OH251995   7.272   0.247  12.372
 9267TIP3    H151996   7.297   0.205  12.454
 9267TIP3    H251997   7.277   0.178  12.306
 9268TIP3   OH251998   7.497   0.279  12.041
 9268TIP3    H151999   7.534   0.216  11.979
 9268TIP3    H252000   7.505   0.364  11.996
 9269TIP3   OH252001   5.734   0.265  12.350
 9269TIP3    H152002   5.638   0.267  12.354
 9269TIP3    H252003   5.757   0.332  12.286
 9270TIP3   OH252004   7.184   1.750  12.566
 9270TIP3    H152005   7.232   1.730  12.486
 9270TIP3    H252006   7.208   1.841  12.586
 9271TIP3   OH252007   7.167   0.176  12.737
 9271TIP3    H152008   7.242   0.158  12.680
 9271TIP3    H252009   7.097   0.120  12.704
 9272TIP3   OH252010   7.396   0.128  12.586
 9272TIP3    H152011   7.438   0.046  12.558
 9272TIP3    H252012   7.469   0.189  12.597
 9273TIP3   OH252013   5.919   0.123  12.530
 9273TIP3    H152014   5.838   0.144  12.484
 9273TIP3    H252015   5.912   0.030  12.548
 9274TIP3   OH252016   5.854   0.105  12.150
 9274TIP3    H152017   5.894   0.174  12.096
 9274TIP3    H252018   5.811   0.152  12.221
 9275TIP3   OH252019   6.424   0.083  12.552
 9275TIP3    H152020   6.503   0.136  12.558
 9275TIP3    H252021   6.424   0.032  12.633
 9276TIP3   OH252022   6.971   7.694  12.639
 9276TIP3    H152023   6.878   7.706  12.624
 9276TIP3    H252024   6.981   7.600  12.657
 9277TIP3   OH252025   7.044   0.130  12.196
 9277TIP3    H152026   6.985   0.189  12.150
 9277TIP3    H252027   7.038   0.156  12.288
 9278TIP3   OH252028   6.016   0.255  11.980
 9278TIP3    H152029   6.062   0.195  11.922
 9278TIP3    H252030   6.080   0.278  12.047
 9279TIP3   OH252031   6.476   0.280  12.269
 9279TIP3    H152032   6.484   0.216  12.340
 9279TIP3    H252033   6.504   0.363  12.308
 9280TIP3   OH252034   6.714   1.769  12.071
 9280TIP3    H152035   6.809   1.780  12.063
 9280TIP3    H252036   6.689   1.723  11.991
 9281TIP3   OH252037   7.338   1.718  12.338
 9281TIP3    H152038   7.327   1.631  12.300
 9281TIP3    H252039   7.328   1.778  12.264
 9282TIP3   OH252040   7.548   0.690  12.421
 9282TIP3    H152041   7.489   0.686  12.346
 9282TIP3    H252042   7.523   0.614  12.475
 9283TIP3   OH252043   7.568   0.356  12.591
 9283TIP3    H152044   7.663   0.366  12.601
 9283TIP3    H252045   7.555   0.352  12.496
 9284TIP3   OH252046   7.491   1.827  12.534
 9284TIP3    H152047   7.444   1.797  12.456
 9284TIP3    H252048   7.504   1.748  12.586
 9285TIP3   OH252049   7.553   1.599  12.666
 9285TIP3    H152050   7.539   1.505  12.651
 9285TIP3    H252051   7.648   1.609  12.668
 9286TIP3   OH252052   7.519   0.682  12.897
 9286TIP3    H152053   7.560   0.617  12.839
 9286TIP3    H252054   7.579   0.688  12.972
 9287TIP3   OH252055   7.531   0.325  12.319
 9287TIP3    H152056   7.438   0.312  12.337
 9287TIP3    H252057   7.540   0.310  12.225
 9288TIP3   OH252058   1.147   2.882  12.577
 9288TIP3    H152059   1.190   2.965  12.601
 9288TIP3    H252060   1.123   2.894  12.485
 9289TIP3   OH252061   1.100   2.775  12.881
 9289TIP3    H152062   1.092   2.777  12.976
 9289TIP3    H252063   1.194   2.784  12.864
 9290TIP3   OH252064   1.418   3.040  12.707
 9290TIP3    H152065   1.380   2.990  12.779
 9290TIP3    H252066   1.460   3.115  12.749
 9291TIP3   OH252067   0.153   2.519  12.329
 9291TIP3    H152068   0.189   2.606  12.348
 9291TIP3    H252069   0.064   2.521  12.365
 9292TIP3   OH252070   0.192   2.836  12.690
 9292TIP3    H152071   0.230   2.751  12.713
 9292TIP3    H252072   0.188   2.836  12.595
 9293TIP3   OH252073   1.143   3.573  12.720
 9293TIP3    H152074   1.227   3.530  12.704
 9293TIP3    H252075   1.144   3.593  12.814
 9294TIP3   OH252076   0.913   3.037  12.901
 9294TIP3    H152077   0.942   2.950  12.875
 9294TIP3    H252078   0.986   3.073  12.951
 9295TIP3   OH252079   1.287   2.290  12.521
 9295TIP3    H152080   1.310   2.232  12.593
 9295TIP3    H252081   1.334   2.372  12.540
 9296TIP3   OH252082   0.320   2.601  12.725
 9296TIP3    H152083   0.251   2.561  12.780
 9296TIP3    H252084   0.329   2.540  12.652
 9297TIP3   OH252085   0.820   2.659  12.672
 9297TIP3    H152086   0.784   2.614  12.748
 9297TIP3    H252087   0.755   2.645  12.603
 9298TIP3   OH252088   1.169   3.158  12.408
 9298TIP3    H152089   1.143   3.156  12.316
 9298TIP3    H252090   1.129   3.238  12.443
 9299TIP3   OH252091   0.113   3.123  12.260
 9299TIP3    H152092   0.106   3.168  12.176
 9299TIP3    H252093   0.138   3.192  12.322
 9300TIP3   OH252094   0.773   1.946  12.822
 9300TIP3    H152095   0.756   1.853  12.832
 9300TIP3    H252096   0.702   1.989  12.870
 9301TIP3   OH252097   1.371   3.446  12.632
 9301TIP3    H152098   1.396   3.370  12.580
 9301TIP3    H252099   1.442   3.509  12.619
 9302TIP3   OH252100   1.440   3.213  12.490
 9302TIP3    H152101   1.368   3.192  12.432
 9302TIP3    H252102   1.442   3.141  12.553
 9303TIP3   OH252103   1.068   2.843  12.312
 9303TIP3    H152104   1.001   2.903  12.282
 9303TIP3    H252105   1.134   2.843  12.243
 9304TIP3   OH252106   1.099   2.692  11.970
 9304TIP3    H152107   1.151   2.724  12.044
 9304TIP3    H252108   1.149   2.616  11.938
 9305TIP3   OH252109   1.403   2.852  12.390
 9305TIP3    H152110   1.352   2.860  12.471
 9305TIP3    H252111   1.481   2.803  12.416
 9306TIP3   OH252112   0.716   3.241  12.818
 9306TIP3    H152113   0.737   3.262  12.727
 9306TIP3    H252114   0.788   3.185  12.846
 9307TIP3   OH252115   1.292   2.776  12.153
 9307TIP3    H152116   1.335   2.807  12.232
 9307TIP3    H252117   1.347   2.810  12.082
 9308TIP3   OH252118   1.065   3.411  12.491
 9308TIP3    H152119   1.084   3.457  12.573
 9308TIP3    H252120   1.039   3.481  12.430
 9309TIP3   OH252121   1.656   1.885  12.154
 9309TIP3    H152122   1.586   1.913  12.214
 9309TIP3    H252123   1.629   1.918  12.069
 9310TIP3   OH252124   0.323   2.765  12.374
 9310TIP3    H152125   0.345   2.836  12.314
 9310TIP3    H252126   0.406   2.722  12.393
 9311TIP3   OH252127   1.791   3.338  12.010
 9311TIP3    H152128   1.807   3.432  12.016
 9311TIP3    H252129   1.878   3.298  12.014
 9312TIP3   OH252130   0.110   3.354  12.930
 9312TIP3    H152131   0.123   3.262  12.908
 9312TIP3    H252132   0.109   3.356  13.026
 9313TIP3   OH252133   1.039   3.660  12.348
 9313TIP3    H152134   1.031   3.678  12.255
 9313TIP3    H252135   1.027   3.744  12.391
 9314TIP3   OH252136   0.392   3.532  12.550
 9314TIP3    H152137   0.325   3.564  12.611
 9314TIP3    H252138   0.344   3.477  12.489
 9315TIP3   OH252139   1.335   3.621  12.037
 9315TIP3    H152140   1.389   3.554  11.997
 9315TIP3    H252141   1.346   3.608  12.131
 9316TIP3   OH252142   1.308   3.600  12.318
 9316TIP3    H152143   1.217   3.621  12.337
 9316TIP3    H252144   1.333   3.536  12.385
 9317TIP3   OH252145   0.542   2.053  12.962
 9317TIP3    H152146   0.456   2.040  12.921
 9317TIP3    H252147   0.535   2.138  13.007
 9318TIP3   OH252148   1.450   2.854  11.946
 9318TIP3    H152149   1.431   2.849  11.852
 9318TIP3    H252150   1.543   2.876  11.951
 9319TIP3   OH252151   1.012   2.196  11.994
 9319TIP3    H152152   0.959   2.185  12.073
 9319TIP3    H252153   0.961   2.153  11.925
 9320TIP3   OH252154   0.602   2.570  12.513
 9320TIP3    H152155   0.511   2.548  12.534
 9320TIP3    H252156   0.637   2.490  12.472
 9321TIP3   OH252157   1.123   2.605  12.451
 9321TIP3    H152158   1.098   2.680  12.397
 9321TIP3    H252159   1.190   2.560  12.400
 9322TIP3   OH252160   0.629   2.279  11.867
 9322TIP3    H152161   0.611   2.249  11.956
 9322TIP3    H252162   0.542   2.287  11.826
 9323TIP3   OH252163   0.121   2.203  12.593
 9323TIP3    H152164   0.212   2.228  12.613
 9323TIP3    H252165   0.124   2.174  12.502
 9324TIP3   OH252166   0.120   2.320  12.139
 9324TIP3    H152167   0.168   2.359  12.066
 9324TIP3    H252168   0.121   2.387  12.207
 9325TIP3   OH252169   0.895   2.275  12.586
 9325TIP3    H152170   0.803   2.279  12.559
 9325TIP3    H252171   0.893   2.238  12.674
 9326TIP3   OH252172   0.351   2.445  12.507
 9326TIP3    H152173   0.282   2.450  12.440
 9326TIP3    H252174   0.376   2.352  12.508
 9327TIP3   OH252175   0.751   2.557  12.215
 9327TIP3    H152176   0.822   2.502  12.249
 9327TIP3    H252177   0.671   2.514  12.243
 9328TIP3   OH252178   1.304   2.181  12.911
 9328TIP3    H152179   1.226   2.145  12.953
 9328TIP3    H252180   1.350   2.104  12.877
 9329TIP3   OH252181   0.530   2.597  12.002
 9329TIP3    H152182   0.513   2.507  11.973
 9329TIP3    H252183   0.626   2.605  12.002
 9330TIP3   OH252184   0.406   2.180  12.532
 9330TIP3    H152185   0.395   2.085  12.541
 9330TIP3    H252186   0.489   2.190  12.486
 9331TIP3   OH252187   0.858   3.027  12.236
 9331TIP3    H152188   0.797   2.963  12.198
 9331TIP3    H252189   0.827   3.040  12.326
 9332TIP3   OH252190   1.261   2.304  12.036
 9332TIP3    H152191   1.169   2.278  12.031
 9332TIP3    H252192   1.266   2.364  12.110
 9333TIP3   OH252193   1.328   2.505  12.230
 9333TIP3    H152194   1.412   2.502  12.277
 9333TIP3    H252195   1.322   2.595  12.198
 9334TIP3   OH252196   1.074   3.151  12.127
 9334TIP3    H152197   1.052   3.244  12.136
 9334TIP3    H252198   0.996   3.105  12.160
 9335TIP3   OH252199   1.616   3.371  12.234
 9335TIP3    H152200   1.566   3.294  12.262
 9335TIP3    H252201   1.660   3.343  12.154
 9336TIP3   OH252202   0.627   3.301  12.542
 9336TIP3    H152203   0.661   3.385  12.509
 9336TIP3    H252204   0.539   3.294  12.506
 9337TIP3   OH252205   0.238   2.794  11.995
 9337TIP3    H152206   0.302   2.833  12.056
 9337TIP3    H252207   0.162   2.776  12.050
 9338TIP3   OH252208   0.756   3.063  12.485
 9338TIP3    H152209   0.715   3.146  12.506
 9338TIP3    H252210   0.773   3.022  12.570
 9339TIP3   OH252211   0.653   3.564  12.448
 9339TIP3    H152212   0.562   3.571  12.476
 9339TIP3    H252213   0.693   3.646  12.475
 9340TIP3   OH252214   1.423   3.187  11.995
 9340TIP3    H152215   1.438   3.142  12.078
 9340TIP3    H252216   1.334   3.163  11.971
 9341TIP3   OH252217   1.848   3.606  12.042
 9341TIP3    H152218   1.907   3.675  12.012
 9341TIP3    H252219   1.773   3.653  12.078
 9342TIP3   OH252220   1.501   3.057  12.224
 9342TIP3    H152221   1.457   2.998  12.286
 9342TIP3    H252222   1.594   3.036  12.232
 9343TIP3   OH252223   0.817   3.300  11.856
 9343TIP3    H152224   0.817   3.217  11.808
 9343TIP3    H252225   0.772   3.280  11.938
 9344TIP3   OH252226   0.697   3.239  12.099
 9344TIP3    H152227   0.750   3.184  12.157
 9344TIP3    H252228   0.707   3.327  12.136
 9345TIP3   OH252229   0.339   2.978  12.184
 9345TIP3    H152230   0.258   3.015  12.220
 9345TIP3    H252231   0.381   3.051  12.139
 9346TIP3   OH252232   1.220   2.123  12.319
 9346TIP3    H152233   1.184   2.176  12.248
 9346TIP3    H252234   1.240   2.185  12.388
 9347TIP3   OH252235   0.989   3.404  12.160
 9347TIP3    H152236   0.899   3.433  12.176
 9347TIP3    H252237   1.037   3.485  12.145
 9348TIP3   OH252238   0.980   2.390  12.339
 9348TIP3    H152239   1.026   2.454  12.392
 9348TIP3    H252240   0.923   2.344  12.400
 9349TIP3   OH252241   0.972   2.056  12.439
 9349TIP3    H152242   0.957   2.137  12.488
 9349TIP3    H252243   1.065   2.059  12.418
 9350TIP3   OH252244   0.730   3.496  12.188
 9350TIP3    H152245   0.736   3.578  12.139
 9350TIP3    H252246   0.703   3.523  12.275
 9351TIP3   OH252247   0.583   2.163  12.111
 9351TIP3    H152248   0.577   2.210  12.194
 9351TIP3    H252249   0.664   2.112  12.118
 9352TIP3   OH252250   0.431   3.196  12.022
 9352TIP3    H152251   0.512   3.232  12.057
 9352TIP3    H252252   0.459   3.137  11.952
 9353TIP3   OH252253   0.250   2.487  11.959
 9353TIP3    H152254   0.305   2.555  11.999
 9353TIP3    H252255   0.187   2.536  11.905
 9354TIP3   OH252256   1.612   3.504  12.974
 9354TIP3    H152257   1.588   3.538  12.888
 9354TIP3    H252258   1.653   3.578  13.019
 9355TIP3   OH252259   0.256   1.968  12.864
 9355TIP3    H152260   0.275   1.983  12.771
 9355TIP3    H252261   0.272   1.875  12.877
 9356TIP3   OH252262   0.204   3.369  12.411
 9356TIP3    H152263   0.125   3.392  12.459
 9356TIP3    H252264   0.204   3.427  12.335
 9357TIP3   OH252265   1.013   3.498  11.859
 9357TIP3    H152266   0.949   3.427  11.870
 9357TIP3    H252267   1.092   3.454  11.827
 9358TIP3   OH252268   1.469   3.434  11.885
 9358TIP3    H152269   1.471   3.350  11.931
 9358TIP3    H252270   1.546   3.432  11.827
 9359TIP3   OH252271   0.566   3.004  11.876
 9359TIP3    H152272   0.585   2.952  11.954
 9359TIP3    H252273   0.650   3.015  11.832
 9360TIP3   OH252274   1.167   3.145  11.870
 9360TIP3    H152275   1.124   3.145  11.955
 9360TIP3    H252276   1.147   3.060  11.832
 9361TIP3   OH252277   0.695   2.838  12.127
 9361TIP3    H152278   0.669   2.778  12.197
 9361TIP3    H252279   0.728   2.781  12.057
 9362TIP3   OH252280   0.820   2.707  11.916
 9362TIP3    H152281   0.852   2.795  11.894
 9362TIP3    H252282   0.895   2.664  11.958
 9363TIP3   OH252283   1.727   2.897  11.873
 9363TIP3    H152284   1.708   2.866  11.784
 9363TIP3    H252285   1.708   2.991  11.870
 9364TIP3   OH252286   0.797   3.737  12.071
 9364TIP3    H152287   0.892   3.728  12.078
 9364TIP3    H252288   0.785   3.803  12.002
 9365TIP3   OH252289   0.153   3.227  12.005
 9365TIP3    H152290   0.246   3.246  12.021
 9365TIP3    H252291   0.154   3.153  11.944
 9366TIP3   OH252292   0.092   3.717  12.487
 9366TIP3    H152293  -0.001   3.740  12.487
 9366TIP3    H252294   0.102   3.655  12.559
 9367TIP3   OH252295   0.143   3.531  12.695
 9367TIP3    H152296   0.144   3.440  12.723
 9367TIP3    H252297   0.057   3.563  12.723
 9368TIP3   OH252298   1.765   2.977  12.271
 9368TIP3    H152299   1.844   3.030  12.280
 9368TIP3    H252300   1.753   2.937  12.357
 9369TIP3   OH252301   1.862   2.794  12.085
 9369TIP3    H152302   1.810   2.817  12.008
 9369TIP3    H252303   1.825   2.848  12.156
 9370TIP3   OH252304   0.102   2.119  12.323
 9370TIP3    H152305   0.007   2.117  12.331
 9370TIP3    H252306   0.119   2.188  12.258
 9371TIP3   OH252307   1.573   3.627  12.604
 9371TIP3    H152308   1.621   3.633  12.522
 9371TIP3    H252309   1.603   3.703  12.655
 9372TIP3   OH252310   0.524   3.464  12.829
 9372TIP3    H152311   0.514   3.465  12.733
 9372TIP3    H252312   0.593   3.400  12.845
 9373TIP3   OH252313   1.008   2.107  12.794
 9373TIP3    H152314   0.935   2.047  12.811
 9373TIP3    H252315   1.074   2.054  12.749
 9374TIP3   OH252316   1.773   2.058  12.478
 9374TIP3    H152317   1.816   1.977  12.506
 9374TIP3    H252318   1.807   2.125  12.537
 9375TIP3   OH252319   0.306   1.924  12.589
 9375TIP3    H152320   0.227   1.927  12.535
 9375TIP3    H252321   0.354   1.847  12.558
 9376TIP3   OH252322   0.221   1.927  12.151
 9376TIP3    H152323   0.253   1.995  12.093
 9376TIP3    H252324   0.180   1.974  12.224
 9377TIP3   OH252325   0.752   1.917  12.540
 9377TIP3    H152326   0.821   1.967  12.497
 9377TIP3    H252327   0.757   1.941  12.632
 9378TIP3   OH252328   1.437   1.953  12.295
 9378TIP3    H152329   1.366   2.015  12.311
 9378TIP3    H252330   1.439   1.899  12.374
 9379TIP3   OH252331   0.173   3.552  12.214
 9379TIP3    H152332   0.083   3.547  12.180
 9379TIP3    H252333   0.193   3.646  12.213
 9380TIP3   OH252334   0.353   2.100  11.978
 9380TIP3    H152335   0.399   2.041  11.918
 9380TIP3    H252336   0.420   2.128  12.041
 9381TIP3   OH252337   0.850   2.123  12.203
 9381TIP3    H152338   0.893   2.080  12.277
 9381TIP3    H252339   0.797   2.192  12.243
 9382TIP3   OH252340   1.064   3.665  12.070
 9382TIP3    H152341   1.159   3.674  12.062
 9382TIP3    H252342   1.038   3.621  11.989
 9383TIP3   OH252343   1.712   3.599  12.359
 9383TIP3    H152344   1.678   3.516  12.324
 9383TIP3    H252345   1.699   3.662  12.288
 9384TIP3   OH252346   0.321   3.626  11.930
 9384TIP3    H152347   0.283   3.657  12.012
 9384TIP3    H252348   0.388   3.563  11.956
 9385TIP3   OH252349   3.097   2.891  12.513
 9385TIP3    H152350   3.069   2.976  12.478
 9385TIP3    H252351   3.028   2.866  12.574
 9386TIP3   OH252352   1.985   2.552  12.446
 9386TIP3    H152353   2.014   2.632  12.489
 9386TIP3    H252354   1.902   2.530  12.488
 9387TIP3   OH252355   3.051   3.685  12.744
 9387TIP3    H152356   3.090   3.621  12.683
 9387TIP3    H252357   3.041   3.636  12.826
 9388TIP3   OH252358   3.215   2.306  12.522
 9388TIP3    H152359   3.261   2.263  12.594
 9388TIP3    H252360   3.284   2.355  12.476
 9389TIP3   OH252361   2.126   2.586  12.740
 9389TIP3    H152362   2.127   2.539  12.824
 9389TIP3    H252363   2.159   2.522  12.677
 9390TIP3   OH252364   2.548   2.670  12.696
 9390TIP3    H152365   2.640   2.654  12.717
 9390TIP3    H252366   2.519   2.589  12.653
 9391TIP3   OH252367   3.037   3.137  12.399
 9391TIP3    H152368   3.014   3.134  12.306
 9391TIP3    H252369   2.995   3.216  12.432
 9392TIP3   OH252370   2.006   3.122  12.274
 9392TIP3    H152371   2.002   3.160  12.186
 9392TIP3    H252372   2.029   3.195  12.331
 9393TIP3   OH252373   3.196   3.462  12.595
 9393TIP3    H152374   3.238   3.389  12.549
 9393TIP3    H252375   3.268   3.509  12.636
 9394TIP3   OH252376   3.302   3.218  12.506
 9394TIP3    H152377   3.244   3.185  12.438
 9394TIP3    H252378   3.386   3.178  12.487
 9395TIP3   OH252379   2.937   2.784  12.232
 9395TIP3    H152380   2.892   2.867  12.246
 9395TIP3    H252381   3.029   2.809  12.221
 9396TIP3   OH252382   2.951   2.684  11.967
 9396TIP3    H152383   2.956   2.706  12.060
 9396TIP3    H252384   3.026   2.628  11.951
 9397TIP3   OH252385   3.334   2.819  12.396
 9397TIP3    H152386   3.256   2.835  12.450
 9397TIP3    H252387   3.390   2.763  12.450
 9398TIP3   OH252388   2.432   2.883  12.561
 9398TIP3    H152389   2.410   2.834  12.482
 9398TIP3    H252390   2.468   2.818  12.622
 9399TIP3   OH252391   2.635   3.270  12.864
 9399TIP3    H152392   2.621   3.185  12.823
 9399TIP3    H252393   2.706   3.254  12.927
 9400TIP3   OH252394   2.463   2.849  12.905
 9400TIP3    H152395   2.479   2.772  12.850
 9400TIP3    H252396   2.550   2.874  12.936
 9401TIP3   OH252397   3.202   2.770  12.162
 9401TIP3    H152398   3.259   2.786  12.237
 9401TIP3    H252399   3.253   2.803  12.087
 9402TIP3   OH252400   2.954   3.393  12.471
 9402TIP3    H152401   3.029   3.428  12.518
 9402TIP3    H252402   2.909   3.470  12.436
 9403TIP3   OH252403   2.361   2.771  12.311
 9403TIP3    H152404   2.310   2.842  12.273
 9403TIP3    H252405   2.303   2.695  12.305
 9404TIP3   OH252406   3.693   3.345  11.999
 9404TIP3    H152407   3.720   3.437  12.002
 9404TIP3    H252408   3.775   3.296  12.001
 9405TIP3   OH252409   2.910   3.649  12.338
 9405TIP3    H152410   2.930   3.675  12.248
 9405TIP3    H252411   2.891   3.731  12.384
 9406TIP3   OH252412   2.256   3.581  12.523
 9406TIP3    H152413   2.289   3.547  12.606
 9406TIP3    H252414   2.184   3.522  12.500
 9407TIP3   OH252415   3.350   2.857  11.951
 9407TIP3    H152416   3.331   2.853  11.857
 9407TIP3    H252417   3.445   2.871  11.956
 9408TIP3   OH252418   2.858   2.224  11.957
 9408TIP3    H152419   2.832   2.220  12.049
 9408TIP3    H252420   2.820   2.146  11.917
 9409TIP3   OH252421   2.480   2.446  12.544
 9409TIP3    H152422   2.385   2.436  12.555
 9409TIP3    H252423   2.494   2.443  12.450
 9410TIP3   OH252424   2.994   2.575  12.403
 9410TIP3    H152425   2.964   2.655  12.360
 9410TIP3    H252426   3.063   2.541  12.346
 9411TIP3   OH252427   3.087   2.515  12.655
 9411TIP3    H152428   3.042   2.562  12.585
 9411TIP3    H252429   3.115   2.433  12.615
 9412TIP3   OH252430   2.524   2.260  11.878
 9412TIP3    H152431   2.513   2.232  11.968
 9412TIP3    H252432   2.478   2.344  11.873
 9413TIP3   OH252433   1.904   2.268  12.615
 9413TIP3    H152434   1.856   2.344  12.647
 9413TIP3    H252435   1.958   2.241  12.690
 9414TIP3   OH252436   2.756   2.276  12.628
 9414TIP3    H152437   2.661   2.266  12.635
 9414TIP3    H252438   2.792   2.209  12.685
 9415TIP3   OH252439   2.206   2.410  12.532
 9415TIP3    H152440   2.124   2.440  12.493
 9415TIP3    H252441   2.220   2.323  12.495
 9416TIP3   OH252442   2.533   2.435  12.269
 9416TIP3    H152443   2.627   2.449  12.279
 9416TIP3    H252444   2.509   2.485  12.191
 9417TIP3   OH252445   2.471   2.547  12.022
 9417TIP3    H152446   2.412   2.542  11.947
 9417TIP3    H252447   2.545   2.600  11.992
 9418TIP3   OH252448   2.279   2.169  12.419
 9418TIP3    H152449   2.238   2.091  12.457
 9418TIP3    H252450   2.364   2.139  12.388
 9419TIP3   OH252451   2.766   3.013  12.241
 9419TIP3    H152452   2.695   2.965  12.198
 9419TIP3    H252453   2.732   3.030  12.329
 9420TIP3   OH252454   3.164   2.287  11.994
 9420TIP3    H152455   3.091   2.328  12.041
 9420TIP3    H252456   3.242   2.323  12.035
 9421TIP3   OH252457   3.172   2.501  12.203
 9421TIP3    H152458   3.260   2.471  12.184
 9421TIP3    H252459   3.173   2.595  12.184
 9422TIP3   OH252460   2.963   3.151  12.110
 9422TIP3    H152461   2.936   3.242  12.123
 9422TIP3    H252462   2.891   3.099  12.145
 9423TIP3   OH252463   3.742   2.464  12.161
 9423TIP3    H152464   3.649   2.443  12.148
 9423TIP3    H252465   3.741   2.554  12.193
 9424TIP3   OH252466   3.499   3.374  12.194
 9424TIP3    H152467   3.493   3.293  12.245
 9424TIP3    H252468   3.569   3.357  12.131
 9425TIP3   OH252469   3.283   2.802  12.931
 9425TIP3    H152470   3.234   2.758  13.001
 9425TIP3    H252471   3.302   2.732  12.868
 9426TIP3   OH252472   2.505   3.297  12.560
 9426TIP3    H152473   2.557   3.376  12.552
 9426TIP3    H252474   2.443   3.302  12.487
 9427TIP3   OH252475   2.125   2.774  12.018
 9427TIP3    H152476   2.169   2.842  12.070
 9427TIP3    H252477   2.034   2.777  12.047
 9428TIP3   OH252478   2.628   3.059  12.473
 9428TIP3    H152479   2.605   3.141  12.517
 9428TIP3    H252480   2.567   2.995  12.508
 9429TIP3   OH252481   2.518   3.555  12.436
 9429TIP3    H152482   2.425   3.572  12.452
 9429TIP3    H252483   2.562   3.633  12.470
 9430TIP3   OH252484   3.305   3.188  12.029
 9430TIP3    H152485   3.335   3.145  12.109
 9430TIP3    H252486   3.213   3.163  12.022
 9431TIP3   OH252487   3.757   3.625  12.034
 9431TIP3    H152488   3.824   3.683  12.069
 9431TIP3    H252489   3.726   3.669  11.955
 9432TIP3   OH252490   3.405   3.054  12.260
 9432TIP3    H152491   3.365   2.978  12.302
 9432TIP3    H252492   3.499   3.033  12.256
 9433TIP3   OH252493   2.701   3.310  11.864
 9433TIP3    H152494   2.707   3.229  11.812
 9433TIP3    H252495   2.656   3.283  11.944
 9434TIP3   OH252496   2.575   3.236  12.102
 9434TIP3    H152497   2.622   3.179  12.164
 9434TIP3    H252498   2.585   3.324  12.139
 9435TIP3   OH252499   2.225   2.975  12.183
 9435TIP3    H152500   2.152   3.016  12.229
 9435TIP3    H252501   2.269   3.047  12.138
 9436TIP3   OH252502   3.118   2.171  12.296
 9436TIP3    H152503   3.144   2.213  12.214
 9436TIP3    H252504   3.150   2.230  12.364
 9437TIP3   OH252505   2.871   3.402  12.163
 9437TIP3    H152506   2.779   3.427  12.169
 9437TIP3    H252507   2.918   3.469  12.212
 9438TIP3   OH252508   2.811   2.374  12.381
 9438TIP3    H152509   2.876   2.444  12.387
 9438TIP3    H252510   2.786   2.357  12.472
 9439TIP3   OH252511   2.904   2.067  12.430
 9439TIP3    H152512   2.867   2.145  12.470
 9439TIP3    H252513   2.981   2.098  12.382
 9440TIP3   OH252514   2.611   3.490  12.188
 9440TIP3    H152515   2.619   3.575  12.144
 9440TIP3    H252516   2.579   3.512  12.276
 9441TIP3   OH252517   2.480   2.193  12.141
 9441TIP3    H152518   2.474   2.272  12.194
 9441TIP3    H252519   2.566   2.157  12.161
 9442TIP3   OH252520   3.324   2.561  12.784
 9442TIP3    H152521   3.241   2.558  12.737
 9442TIP3    H252522   3.302   2.538  12.874
 9443TIP3   OH252523   2.307   3.197  12.021
 9443TIP3    H152524   2.381   3.242  12.062
 9443TIP3    H252525   2.346   3.143  11.953
 9444TIP3   OH252526   2.059   2.490  11.961
 9444TIP3    H152527   2.104   2.547  12.023
 9444TIP3    H252528   2.060   2.539  11.879
 9445TIP3   OH252529   2.064   3.355  12.417
 9445TIP3    H152530   2.004   3.394  12.481
 9445TIP3    H252531   2.067   3.419  12.346
 9446TIP3   OH252532   2.910   3.500  11.867
 9446TIP3    H152533   2.841   3.436  11.882
 9446TIP3    H252534   2.983   3.449  11.832
 9447TIP3   OH252535   3.349   3.446  11.892
 9447TIP3    H152536   3.357   3.374  11.955
 9447TIP3    H252537   3.425   3.436  11.834
 9448TIP3   OH252538   2.446   3.016  11.871
 9448TIP3    H152539   2.479   2.978  11.953
 9448TIP3    H252540   2.525   3.032  11.819
 9449TIP3   OH252541   3.023   3.144  11.840
 9449TIP3    H152542   2.992   3.142  11.930
 9449TIP3    H252543   3.022   3.052  11.812
 9450TIP3   OH252544   2.560   2.876  12.113
 9450TIP3    H152545   2.507   2.829  12.176
 9450TIP3    H252546   2.600   2.807  12.059
 9451TIP3   OH252547   2.678   2.701  11.931
 9451TIP3    H152548   2.673   2.737  11.842
 9451TIP3    H252549   2.772   2.690  11.947
 9452TIP3   OH252550   3.624   2.901  11.879
 9452TIP3    H152551   3.607   2.868  11.791
 9452TIP3    H252552   3.600   2.993  11.875
 9453TIP3   OH252553   2.682   3.729  12.073
 9453TIP3    H152554   2.776   3.722  12.085
 9453TIP3    H252555   2.671   3.796  12.005
 9454TIP3   OH252556   2.033   3.202  12.005
 9454TIP3    H152557   2.128   3.209  12.014
 9454TIP3    H252558   2.021   3.135  11.938
 9455TIP3   OH252559   1.913   3.725  12.503
 9455TIP3    H152560   1.843   3.692  12.448
 9455TIP3    H252561   1.926   3.657  12.569
 9456TIP3   OH252562   1.981   3.520  12.684
 9456TIP3    H152563   1.897   3.507  12.728
 9456TIP3    H252564   2.041   3.545  12.755
 9457TIP3   OH252565   3.667   2.969  12.283
 9457TIP3    H152566   3.748   3.021  12.281
 9457TIP3    H252567   3.674   2.917  12.363
 9458TIP3   OH252568   3.699   2.803  12.497
 9458TIP3    H152569   3.630   2.742  12.526
 9458TIP3    H252570   3.774   2.781  12.553
 9459TIP3   OH252571   3.738   2.774  12.092
 9459TIP3    H152572   3.696   2.818  12.018
 9459TIP3    H252573   3.717   2.828  12.168
 9460TIP3   OH252574   3.628   2.554  11.882
 9460TIP3    H152575   3.677   2.606  11.947
 9460TIP3    H252576   3.565   2.504  11.934
 9461TIP3   OH252577   3.479   2.631  12.555
 9461TIP3    H152578   3.476   2.548  12.507
 9461TIP3    H252579   3.437   2.611  12.639
 9462TIP3   OH252580   3.492   2.213  11.845
 9462TIP3    H152581   3.479   2.265  11.924
 9462TIP3    H252582   3.405   2.182  11.821
 9463TIP3   OH252583   3.449   2.388  12.406
 9463TIP3    H152584   3.488   2.302  12.415
 9463TIP3    H252585   3.451   2.406  12.312
 9464TIP3   OH252586   3.525   2.116  12.424
 9464TIP3    H152587   3.582   2.056  12.472
 9464TIP3    H252588   3.464   2.060  12.378
 9465TIP3   OH252589   3.775   2.140  12.012
 9465TIP3    H152590   3.747   2.062  11.965
 9465TIP3    H252591   3.702   2.201  12.003
 9466TIP3   OH252592   2.165   3.565  12.909
 9466TIP3    H152593   2.166   3.512  12.989
 9466TIP3    H252594   2.239   3.533  12.858
 9467TIP3   OH252595   2.371   3.473  12.752
 9467TIP3    H152596   2.403   3.387  12.722
 9467TIP3    H252597   2.447   3.513  12.794
 9468TIP3   OH252598   2.609   3.540  12.881
 9468TIP3    H152599   2.625   3.446  12.873
 9468TIP3    H252600   2.620   3.559  12.974
 9469TIP3   OH252601   2.906   2.093  12.772
 9469TIP3    H152602   2.923   2.027  12.838
 9469TIP3    H252603   2.985   2.092  12.716
 9470TIP3   OH252604   2.181   1.931  12.503
 9470TIP3    H152605   2.087   1.912  12.511
 9470TIP3    H252606   2.224   1.853  12.539
 9471TIP3   OH252607   2.070   1.914  12.120
 9471TIP3    H152608   2.125   1.979  12.075
 9471TIP3    H252609   2.046   1.956  12.202
 9472TIP3   OH252610   2.634   1.902  12.541
 9472TIP3    H152611   2.728   1.906  12.524
 9472TIP3    H252612   2.626   1.897  12.636
 9473TIP3   OH252613   3.159   1.935  12.680
 9473TIP3    H152614   3.177   1.984  12.600
 9473TIP3    H252615   3.185   1.845  12.659
 9474TIP3   OH252616   3.344   1.949  12.306
 9474TIP3    H152617   3.275   1.991  12.255
 9474TIP3    H252618   3.309   1.862  12.326
 9475TIP3   OH252619   2.052   3.549  12.227
 9475TIP3    H152620   1.971   3.546  12.176
 9475TIP3    H252621   2.077   3.642  12.228
 9476TIP3   OH252622   2.248   2.106  11.998
 9476TIP3    H152623   2.299   2.051  11.938
 9476TIP3    H252624   2.313   2.138  12.061
 9477TIP3   OH252625   2.753   2.173  12.207
 9477TIP3    H152626   2.783   2.097  12.258
 9477TIP3    H252627   2.771   2.248  12.263
 9478TIP3   OH252628   2.962   3.686  12.067
 9478TIP3    H152629   2.996   3.756  12.011
 9478TIP3    H252630   2.943   3.614  12.006
 9479TIP3   OH252631   2.186   3.624  11.915
 9479TIP3    H152632   2.156   3.655  12.000
 9479TIP3    H252633   2.258   3.565  11.935
 9480TIP3   OH252634   4.995   2.872  12.550
 9480TIP3    H152635   4.988   2.966  12.565
 9480TIP3    H252636   4.926   2.853  12.486
 9481TIP3   OH252637   5.215   3.146  12.740
 9481TIP3    H152638   5.135   3.152  12.793
 9481TIP3    H252639   5.285   3.175  12.799
 9482TIP3   OH252640   4.242   3.129  12.902
 9482TIP3    H152641   4.206   3.216  12.886
 9482TIP3    H252642   4.331   3.132  12.867
 9483TIP3   OH252643   3.951   2.771  12.651
 9483TIP3    H152644   4.024   2.717  12.621
 9483TIP3    H252645   3.981   2.861  12.641
 9484TIP3   OH252646   4.937   3.581  12.732
 9484TIP3    H152647   4.991   3.515  12.689
 9484TIP3    H252648   4.955   3.570  12.825
 9485TIP3   OH252649   5.116   2.317  12.501
 9485TIP3    H152650   5.147   2.277  12.582
 9485TIP3    H252651   5.196   2.345  12.456
 9486TIP3   OH252652   4.424   2.690  12.666
 9486TIP3    H152653   4.502   2.674  12.613
 9486TIP3    H252654   4.358   2.631  12.630
 9487TIP3   OH252655   4.922   3.126  12.444
 9487TIP3    H152656   4.881   3.125  12.357
 9487TIP3    H252657   4.892   3.208  12.483
 9488TIP3   OH252658   5.214   2.246  12.748
 9488TIP3    H152659   5.220   2.160  12.790
 9488TIP3    H252660   5.280   2.299  12.793
 9489TIP3   OH252661   3.901   3.111  12.262
 9489TIP3    H152662   3.904   3.156  12.177
 9489TIP3    H252663   3.920   3.180  12.325
 9490TIP3   OH252664   5.098   3.458  12.541
 9490TIP3    H152665   5.141   3.374  12.526
 9490TIP3    H252666   5.170   3.521  12.545
 9491TIP3   OH252667   5.221   3.224  12.477
 9491TIP3    H152668   5.161   3.162  12.436
 9491TIP3    H252669   5.232   3.192  12.566
 9492TIP3   OH252670   4.839   2.826  12.321
 9492TIP3    H152671   4.776   2.895  12.301
 9492TIP3    H252672   4.905   2.833  12.252
 9493TIP3   OH252673   4.861   2.692  11.965
 9493TIP3    H152674   4.909   2.718  12.044
 9493TIP3    H252675   4.918   2.628  11.923
 9494TIP3   OH252676   5.202   2.801  12.387
 9494TIP3    H152677   5.140   2.826  12.455
 9494TIP3    H252678   5.267   2.747  12.432
 9495TIP3   OH252679   4.259   2.871  12.535
 9495TIP3    H152680   4.324   2.940  12.519
 9495TIP3    H252681   4.301   2.812  12.598
 9496TIP3   OH252682   5.060   2.766  12.157
 9496TIP3    H152683   5.111   2.786  12.235
 9496TIP3    H252684   5.112   2.801  12.085
 9497TIP3   OH252685   4.837   3.386  12.488
 9497TIP3    H152686   4.922   3.417  12.519
 9497TIP3    H252687   4.790   3.465  12.461
 9498TIP3   OH252688   4.260   2.751  12.271
 9498TIP3    H152689   4.207   2.824  12.240
 9498TIP3    H252690   4.258   2.759  12.367
 9499TIP3   OH252691   5.564   3.345  11.975
 9499TIP3    H152692   5.579   3.439  11.985
 9499TIP3    H252693   5.651   3.306  11.983
 9500TIP3   OH252694   4.827   3.707  12.335
 9500TIP3    H152695   4.809   3.720  12.242
 9500TIP3    H252696   4.798   3.788  12.377
 9501TIP3   OH252697   4.157   3.605  12.575
 9501TIP3    H152698   4.180   3.630  12.665
 9501TIP3    H252699   4.079   3.551  12.585
 9502TIP3   OH252700   5.102   3.623  12.022
 9502TIP3    H152701   5.153   3.551  11.985
 9502TIP3    H252702   5.106   3.608  12.117
 9503TIP3   OH252703   5.069   3.592  12.293
 9503TIP3    H152704   4.981   3.620  12.316
 9503TIP3    H252705   5.094   3.532  12.363
 9504TIP3   OH252706   4.348   2.008  12.966
 9504TIP3    H152707   4.302   1.963  12.895
 9504TIP3    H252708   4.410   2.066  12.921
 9505TIP3   OH252709   5.217   2.846  11.952
 9505TIP3    H152710   5.208   2.848  11.857
 9505TIP3    H252711   5.305   2.880  11.969
 9506TIP3   OH252712   4.704   2.190  11.952
 9506TIP3    H152713   4.675   2.197  12.043
 9506TIP3    H252714   4.778   2.129  11.954
 9507TIP3   OH252715   4.891   2.568  12.406
 9507TIP3    H152716   4.869   2.657  12.377
 9507TIP3    H252717   4.962   2.541  12.348
 9508TIP3   OH252718   5.002   2.515  12.662
 9508TIP3    H152719   4.959   2.573  12.599
 9508TIP3    H252720   5.029   2.439  12.611
 9509TIP3   OH252721   3.774   2.188  12.637
 9509TIP3    H152722   3.858   2.159  12.673
 9509TIP3    H252723   3.791   2.203  12.544
 9510TIP3   OH252724   4.639   3.025  12.258
 9510TIP3    H152725   4.576   2.971  12.209
 9510TIP3    H252726   4.603   3.030  12.346
 9511TIP3   OH252727   5.005   2.289  12.062
 9511TIP3    H152728   4.914   2.318  12.057
 9511TIP3    H252729   5.050   2.357  12.111
 9512TIP3   OH252730   5.108   2.492  12.216
 9512TIP3    H152731   5.191   2.477  12.261
 9512TIP3    H252732   5.110   2.584  12.191
 9513TIP3   OH252733   4.844   3.161  12.125
 9513TIP3    H152734   4.825   3.253  12.143
 9513TIP3    H252735   4.771   3.114  12.165
 9514TIP3   OH252736   5.566   2.509  12.162
 9514TIP3    H152737   5.537   2.500  12.071
 9514TIP3    H252738   5.602   2.598  12.166
 9515TIP3   OH252739   5.458   3.337  12.244
 9515TIP3    H152740   5.385   3.282  12.272
 9515TIP3    H252741   5.465   3.321  12.150
 9516TIP3   OH252742   5.071   2.784  12.931
 9516TIP3    H152743   5.056   2.874  12.899
 9516TIP3    H252744   5.140   2.750  12.875
 9517TIP3   OH252745   4.413   3.296  12.533
 9517TIP3    H152746   4.451   3.381  12.511
 9517TIP3    H252747   4.318   3.308  12.522
 9518TIP3   OH252748   3.996   2.783  11.984
 9518TIP3    H152749   4.054   2.840  12.034
 9518TIP3    H252750   3.914   2.782  12.033
 9519TIP3   OH252751   4.522   3.041  12.518
 9519TIP3    H152752   4.491   3.132  12.524
 9519TIP3    H252753   4.566   3.026  12.602
 9520TIP3   OH252754   4.410   3.570  12.452
 9520TIP3    H152755   4.322   3.583  12.486
 9520TIP3    H252756   4.459   3.646  12.481
 9521TIP3   OH252757   5.202   3.185  12.033
 9521TIP3    H152758   5.226   3.131  12.109
 9521TIP3    H252759   5.108   3.172  12.024
 9522TIP3   OH252760   5.612   3.616  12.021
 9522TIP3    H152761   5.637   3.682  11.957
 9522TIP3    H252762   5.549   3.659  12.078
 9523TIP3   OH252763   5.292   3.021  12.236
 9523TIP3    H152764   5.255   2.956  12.295
 9523TIP3    H252765   5.386   3.008  12.241
 9524TIP3   OH252766   4.586   3.294  11.858
 9524TIP3    H152767   4.590   3.210  11.812
 9524TIP3    H252768   4.546   3.273  11.943
 9525TIP3   OH252769   4.466   3.240  12.105
 9525TIP3    H152770   4.517   3.184  12.163
 9525TIP3    H252771   4.474   3.328  12.143
 9526TIP3   OH252772   4.117   2.965  12.162
 9526TIP3    H152773   4.049   3.004  12.217
 9526TIP3    H252774   4.164   3.040  12.125
 9527TIP3   OH252775   4.989   2.144  12.320
 9527TIP3    H152776   5.006   2.184  12.235
 9527TIP3    H252777   5.026   2.207  12.383
 9528TIP3   OH252778   4.757   3.416  12.167
 9528TIP3    H152779   4.667   3.440  12.187
 9528TIP3    H252780   4.802   3.499  12.153
 9529TIP3   OH252781   4.681   2.391  12.377
 9529TIP3    H152782   4.753   2.453  12.391
 9529TIP3    H252783   4.657   2.361  12.464
 9530TIP3   OH252784   4.754   2.061  12.448
 9530TIP3    H152785   4.777   2.061  12.541
 9530TIP3    H252786   4.836   2.080  12.403
 9531TIP3   OH252787   4.492   3.495  12.198
 9531TIP3    H152788   4.501   3.578  12.151
 9531TIP3    H252789   4.462   3.521  12.285
 9532TIP3   OH252790   5.235   2.618  12.773
 9532TIP3    H152791   5.154   2.577  12.744
 9532TIP3    H252792   5.282   2.549  12.819
 9533TIP3   OH252793   4.202   3.195  12.013
 9533TIP3    H152794   4.275   3.240  12.054
 9533TIP3    H252795   4.243   3.135  11.950
 9534TIP3   OH252796   4.013   2.501  11.985
 9534TIP3    H152797   4.026   2.596  11.979
 9534TIP3    H252798   3.923   2.491  12.015
 9535TIP3   OH252799   5.299   3.589  12.968
 9535TIP3    H152800   5.310   3.639  12.887
 9535TIP3    H252801   5.306   3.497  12.940
 9536TIP3   OH252802   3.948   3.332  12.419
 9536TIP3    H152803   3.942   3.375  12.504
 9536TIP3    H252804   3.955   3.404  12.356
 9537TIP3   OH252805   4.784   3.492  11.850
 9537TIP3    H152806   4.722   3.421  11.865
 9537TIP3    H252807   4.865   3.448  11.822
 9538TIP3   OH252808   5.237   3.423  11.893
 9538TIP3    H152809   5.244   3.343  11.945
 9538TIP3    H252810   5.314   3.422  11.836
 9539TIP3   OH252811   4.334   3.001  11.873
 9539TIP3    H152812   4.366   2.959  11.952
 9539TIP3    H252813   4.412   3.014  11.819
 9540TIP3   OH252814   4.928   3.155  11.864
 9540TIP3    H152815   4.890   3.153  11.952
 9540TIP3    H252816   4.913   3.066  11.830
 9541TIP3   OH252817   4.456   2.872  12.108
 9541TIP3    H152818   4.398   2.821  12.165
 9541TIP3    H252819   4.500   2.807  12.054
 9542TIP3   OH252820   4.581   2.700  11.935
 9542TIP3    H152821   4.573   2.719  11.841
 9542TIP3    H252822   4.675   2.691  11.950
 9543TIP3   OH252823   5.504   2.874  11.873
 9543TIP3    H152824   5.486   2.853  11.781
 9543TIP3    H252825   5.488   2.968  11.880
 9544TIP3   OH252826   4.560   3.729  12.070
 9544TIP3    H152827   4.655   3.719  12.074
 9544TIP3    H252828   4.546   3.792  12.000
 9545TIP3   OH252829   3.928   3.201  11.997
 9545TIP3    H152830   4.022   3.212  12.005
 9545TIP3    H252831   3.918   3.134  11.929
 9546TIP3   OH252832   3.923   3.485  12.676
 9546TIP3    H152833   3.853   3.431  12.714
 9546TIP3    H252834   3.964   3.528  12.751
 9547TIP3   OH252835   5.560   2.950  12.260
 9547TIP3    H152836   5.637   3.007  12.267
 9547TIP3    H252837   5.562   2.898  12.341
 9548TIP3   OH252838   5.582   2.789  12.475
 9548TIP3    H152839   5.505   2.736  12.493
 9548TIP3    H252840   5.642   2.769  12.548
 9549TIP3   OH252841   5.660   2.769  12.075
 9549TIP3    H152842   5.609   2.797  11.998
 9549TIP3    H252843   5.632   2.828  12.145
 9550TIP3   OH252844   5.492   2.485  11.900
 9550TIP3    H152845   5.459   2.553  11.841
 9550TIP3    H252846   5.447   2.405  11.872
 9551TIP3   OH252847   5.365   2.630  12.530
 9551TIP3    H152848   5.369   2.537  12.510
 9551TIP3    H252849   5.329   2.635  12.618
 9552TIP3   OH252850   5.353   2.247  11.841
 9552TIP3    H152851   5.367   2.200  11.923
 9552TIP3    H252852   5.264   2.225  11.815
 9553TIP3   OH252853   5.356   2.388  12.357
 9553TIP3    H152854   5.393   2.303  12.379
 9553TIP3    H252855   5.425   2.431  12.306
 9554TIP3   OH252856   5.377   2.417  12.896
 9554TIP3    H152857   5.467   2.387  12.907
 9554TIP3    H252858   5.333   2.394  12.977
 9555TIP3   OH252859   3.783   2.187  12.337
 9555TIP3    H152860   3.688   2.173  12.345
 9555TIP3    H252861   3.792   2.245  12.261
 9556TIP3   OH252862   5.300   3.631  12.520
 9556TIP3    H152863   5.384   3.612  12.477
 9556TIP3    H252864   5.324   3.683  12.597
 9557TIP3   OH252865   4.367   3.466  12.882
 9557TIP3    H152866   4.418   3.412  12.821
 9557TIP3    H252867   4.420   3.467  12.962
 9558TIP3   OH252868   4.845   2.048  12.714
 9558TIP3    H152869   4.825   1.984  12.782
 9558TIP3    H252870   4.934   2.027  12.686
 9559TIP3   OH252871   4.496   1.943  12.458
 9559TIP3    H152872   4.579   1.988  12.470
 9559TIP3    H252873   4.514   1.852  12.483
 9560TIP3   OH252874   5.091   1.936  12.628
 9560TIP3    H152875   5.175   1.934  12.583
 9560TIP3    H252876   5.086   1.853  12.675
 9561TIP3   OH252877   5.192   1.929  12.272
 9561TIP3    H152878   5.125   1.986  12.307
 9561TIP3    H252879   5.243   1.901  12.348
 9562TIP3   OH252880   3.941   3.531  12.231
 9562TIP3    H152881   3.865   3.530  12.172
 9562TIP3    H252882   3.973   3.622  12.227
 9563TIP3   OH252883   4.637   2.180  12.215
 9563TIP3    H152884   4.662   2.113  12.279
 9563TIP3    H252885   4.649   2.263  12.261
 9564TIP3   OH252886   4.831   3.670  12.054
 9564TIP3    H152887   4.926   3.676  12.048
 9564TIP3    H252888   4.805   3.618  11.978
 9565TIP3   OH252889   5.518   3.575  12.365
 9565TIP3    H152890   5.495   3.490  12.327
 9565TIP3    H252891   5.492   3.639  12.298
 9566TIP3   OH252892   4.118   3.608  11.912
 9566TIP3    H152893   4.104   3.590  12.005
 9566TIP3    H252894   4.199   3.562  11.890
 9567TIP3   OH252895   6.876   2.890  12.528
 9567TIP3    H152896   6.854   2.982  12.514
 9567TIP3    H252897   6.810   2.842  12.478
 9568TIP3   OH252898   7.139   3.156  12.717
 9568TIP3    H152899   7.168   3.070  12.746
 9568TIP3    H252900   7.165   3.215  12.788
 9569TIP3   OH252901   6.037   3.230  12.904
 9569TIP3    H152902   5.966   3.175  12.868
 9569TIP3    H252903   6.017   3.235  12.997
 9570TIP3   OH252904   5.780   2.708  12.654
 9570TIP3    H152905   5.804   2.617  12.639
 9570TIP3    H252906   5.861   2.757  12.638
 9571TIP3   OH252907   6.996   2.298  12.524
 9571TIP3    H152908   7.042   2.274  12.604
 9571TIP3    H252909   6.991   2.393  12.526
 9572TIP3   OH252910   6.786   3.128  12.418
 9572TIP3    H152911   6.817   3.141  12.328
 9572TIP3    H252912   6.780   3.216  12.454
 9573TIP3   OH252913   7.126   2.239  12.768
 9573TIP3    H152914   7.069   2.165  12.788
 9573TIP3    H252915   7.209   2.217  12.810
 9574TIP3   OH252916   5.781   3.117  12.261
 9574TIP3    H152917   5.793   3.139  12.168
 9574TIP3    H252918   5.730   3.190  12.297
 9575TIP3   OH252919   7.136   3.244  12.446
 9575TIP3    H152920   7.134   3.158  12.404
 9575TIP3    H252921   7.138   3.225  12.540
 9576TIP3   OH252922   6.729   2.806  12.304
 9576TIP3    H152923   6.677   2.881  12.274
 9576TIP3    H252924   6.806   2.807  12.247
 9577TIP3   OH252925   6.746   2.678  11.984
 9577TIP3    H152926   6.807   2.707  12.051
 9577TIP3    H252927   6.785   2.598  11.949
 9578TIP3   OH252928   7.098   2.819  12.388
 9578TIP3    H152929   7.030   2.843  12.450
 9578TIP3    H252930   7.156   2.760  12.437
 9579TIP3   OH252931   6.274   2.880  12.641
 9579TIP3    H152932   6.239   2.831  12.566
 9579TIP3    H252933   6.294   2.814  12.706
 9580TIP3   OH252934   6.959   2.775  12.156
 9580TIP3    H152935   7.012   2.793  12.234
 9580TIP3    H252936   7.004   2.819  12.085
 9581TIP3   OH252937   6.746   3.385  12.520
 9581TIP3    H152938   6.829   3.413  12.557
 9581TIP3    H252939   6.693   3.465  12.516
 9582TIP3   OH252940   7.307   1.908  12.139
 9582TIP3    H152941   7.222   1.933  12.175
 9582TIP3    H252942   7.348   1.992  12.117
 9583TIP3   OH252943   7.478   3.351  11.967
 9583TIP3    H152944   7.481   3.442  11.996
 9583TIP3    H252945   7.570   3.322  11.969
 9584TIP3   OH252946   6.276   2.027  12.820
 9584TIP3    H152947   6.180   2.023  12.812
 9584TIP3    H252948   6.291   2.050  12.912
 9585TIP3   OH252949   7.097   2.888  11.955
 9585TIP3    H152950   7.075   2.869  11.863
 9585TIP3    H252951   7.191   2.901  11.955
 9586TIP3   OH252952   6.664   2.222  11.984
 9586TIP3    H152953   6.613   2.216  12.065
 9586TIP3    H252954   6.629   2.151  11.929
 9587TIP3   OH252955   6.792   2.545  12.387
 9587TIP3    H152956   6.766   2.635  12.364
 9587TIP3    H252957   6.866   2.527  12.329
 9588TIP3   OH252958   6.333   2.258  11.887
 9588TIP3    H152959   6.300   2.238  11.975
 9588TIP3    H252960   6.272   2.323  11.852
 9589TIP3   OH252961   5.765   2.311  12.173
 9589TIP3    H152962   5.694   2.373  12.156
 9589TIP3    H252963   5.789   2.326  12.264
 9590TIP3   OH252964   6.505   2.270  12.617
 9590TIP3    H152965   6.430   2.294  12.671
 9590TIP3    H252966   6.572   2.243  12.680
 9591TIP3   OH252967   6.646   2.459  12.813
 9591TIP3    H152968   6.677   2.519  12.745
 9591TIP3    H252969   6.677   2.498  12.894
 9592TIP3   OH252970   6.541   3.000  12.195
 9592TIP3    H152971   6.494   2.939  12.139
 9592TIP3    H252972   6.491   3.001  12.277
 9593TIP3   OH252973   6.921   2.271  12.080
 9593TIP3    H152974   6.830   2.281  12.052
 9593TIP3    H252975   6.945   2.356  12.116
 9594TIP3   OH252976   7.003   2.500  12.210
 9594TIP3    H152977   7.082   2.480  12.259
 9594TIP3    H252978   7.015   2.590  12.181
 9595TIP3   OH252979   6.065   2.867  12.868
 9595TIP3    H152980   6.107   2.921  12.801
 9595TIP3    H252981   6.126   2.795  12.881
 9596TIP3   OH252982   6.763   3.150  12.127
 9596TIP3    H152983   6.731   3.239  12.144
 9596TIP3    H252984   6.689   3.093  12.150
 9597TIP3   OH252985   7.422   2.520  12.174
 9597TIP3    H152986   7.389   2.490  12.089
 9597TIP3    H252987   7.447   2.611  12.159
 9598TIP3   OH252988   7.266   3.374  12.235
 9598TIP3    H152989   7.222   3.330  12.307
 9598TIP3    H252990   7.310   3.304  12.187
 9599TIP3   OH252991   6.406   3.027  12.432
 9599TIP3    H152992   6.459   3.101  12.465
 9599TIP3    H252993   6.372   2.985  12.511
 9600TIP3   OH252994   6.313   3.625  12.439
 9600TIP3    H152995   6.281   3.600  12.526
 9600TIP3    H252996   6.374   3.697  12.455
 9601TIP3   OH252997   7.090   3.194  12.034
 9601TIP3    H152998   7.120   3.150  12.113
 9601TIP3    H252999   7.011   3.146  12.009
 9602TIP3   OH253000   7.524   3.612  12.044
 9602TIP3    H153001   7.540   3.678  11.977
 9602TIP3    H253002   7.463   3.653  12.106
 9603TIP3   OH253003   7.194   3.040  12.250
 9603TIP3    H153004   7.159   2.962  12.293
 9603TIP3    H253005   7.289   3.030  12.257
 9604TIP3   OH253006   6.473   3.296  11.851
 9604TIP3    H153007   6.474   3.220  11.793
 9604TIP3    H253008   6.423   3.267  11.927
 9605TIP3   OH253009   6.358   3.242  12.100
 9605TIP3    H153010   6.424   3.189  12.146
 9605TIP3    H253011   6.363   3.328  12.142
 9606TIP3   OH253012   6.874   2.148  12.329
 9606TIP3    H153013   6.887   2.195  12.247
 9606TIP3    H253014   6.912   2.205  12.396
 9607TIP3   OH253015   6.646   3.396  12.155
 9607TIP3    H153016   6.560   3.428  12.181
 9607TIP3    H253017   6.658   3.428  12.066
 9608TIP3   OH253018   6.579   2.374  12.375
 9608TIP3    H153019   6.655   2.431  12.388
 9608TIP3    H253020   6.556   2.343  12.463
 9609TIP3   OH253021   6.649   2.034  12.449
 9609TIP3    H153022   6.650   2.064  12.539
 9609TIP3    H253023   6.723   2.079  12.408
 9610TIP3   OH253024   6.392   3.493  12.211
 9610TIP3    H153025   6.411   3.568  12.155
 9610TIP3    H253026   6.358   3.531  12.292
 9611TIP3   OH253027   6.250   2.178  12.141
 9611TIP3    H153028   6.214   2.190  12.229
 9611TIP3    H253029   6.343   2.160  12.155
 9612TIP3   OH253030   6.087   3.203  12.013
 9612TIP3    H153031   6.168   3.236  12.051
 9612TIP3    H253032   6.116   3.147  11.941
 9613TIP3   OH253033   7.279   3.575  12.883
 9613TIP3    H153034   7.203   3.611  12.837
 9613TIP3    H253035   7.328   3.651  12.913
 9614TIP3   OH253036   6.016   1.981  12.737
 9614TIP3    H153037   5.980   2.053  12.686
 9614TIP3    H253038   5.941   1.924  12.755
 9615TIP3   OH253039   6.682   3.468  11.890
 9615TIP3    H153040   6.611   3.407  11.871
 9615TIP3    H253041   6.757   3.434  11.840
 9616TIP3   OH253042   7.109   3.453  11.897
 9616TIP3    H153043   7.118   3.386  11.965
 9616TIP3    H253044   7.187   3.442  11.843
 9617TIP3   OH253045   6.221   3.021  11.848
 9617TIP3    H153046   6.249   2.946  11.901
 9617TIP3    H253047   6.297   3.040  11.792
 9618TIP3   OH253048   6.806   3.148  11.854
 9618TIP3    H153049   6.786   3.145  11.948
 9618TIP3    H253050   6.794   3.057  11.825
 9619TIP3   OH253051   6.432   2.732  11.940
 9619TIP3    H153052   6.425   2.734  11.844
 9619TIP3    H253053   6.522   2.704  11.956
 9620TIP3   OH253054   7.375   2.902  11.877
 9620TIP3    H153055   7.348   2.873  11.790
 9620TIP3    H253056   7.361   2.996  11.877
 9621TIP3   OH253057   6.496   3.712  12.087
 9621TIP3    H153058   6.579   3.757  12.104
 9621TIP3    H253059   6.455   3.761  12.016
 9622TIP3   OH253060   5.808   3.202  11.999
 9622TIP3    H153061   5.902   3.217  11.999
 9622TIP3    H253062   5.793   3.141  11.926
 9623TIP3   OH253063   7.469   2.988  12.288
 9623TIP3    H153064   7.554   3.033  12.290
 9623TIP3    H253065   7.471   2.930  12.364
 9624TIP3   OH253066   7.470   2.801  12.497
 9624TIP3    H153067   7.389   2.754  12.512
 9624TIP3    H253068   7.511   2.805  12.584
 9625TIP3   OH253069   7.413   3.036  12.897
 9625TIP3    H153070   7.494   2.985  12.890
 9625TIP3    H253071   7.443   3.127  12.903
 9626TIP3   OH253072   7.468   2.779  12.105
 9626TIP3    H153073   7.435   2.816  12.024
 9626TIP3    H253074   7.466   2.852  12.167
 9627TIP3   OH253075   7.319   2.469  11.924
 9627TIP3    H153076   7.302   2.529  11.852
 9627TIP3    H253077   7.302   2.382  11.888
 9628TIP3   OH253078   7.248   2.640  12.536
 9628TIP3    H153079   7.246   2.560  12.484
 9628TIP3    H253080   7.214   2.613  12.622
 9629TIP3   OH253081   7.253   2.213  11.846
 9629TIP3    H153082   7.266   2.175  11.933
 9629TIP3    H253083   7.160   2.201  11.828
 9630TIP3   OH253084   7.231   2.432  12.351
 9630TIP3    H153085   7.236   2.338  12.369
 9630TIP3    H253086   7.306   2.450  12.294
 9631TIP3   OH253087   7.248   2.153  12.383
 9631TIP3    H153088   7.255   2.126  12.475
 9631TIP3    H253089   7.182   2.094  12.347
 9632TIP3   OH253090   7.464   2.123  12.035
 9632TIP3    H153091   7.511   2.062  11.979
 9632TIP3    H253092   7.498   2.209  12.012
 9633TIP3   OH253093   6.158   3.436  12.759
 9633TIP3    H153094   6.105   3.365  12.794
 9633TIP3    H253095   6.144   3.509  12.820
 9634TIP3   OH253096   6.690   2.070  12.732
 9634TIP3    H153097   6.660   2.011  12.801
 9634TIP3    H253098   6.785   2.059  12.730
 9635TIP3   OH253099   7.334   2.031  12.620
 9635TIP3    H153100   7.396   1.964  12.593
 9635TIP3    H253101   7.386   2.111  12.627
 9636TIP3   OH253102   6.411   1.901  12.543
 9636TIP3    H153103   6.490   1.939  12.505
 9636TIP3    H253104   6.362   1.976  12.576
 9637TIP3   OH253105   6.957   2.002  12.708
 9637TIP3    H153106   7.001   1.989  12.624
 9637TIP3    H253107   6.934   1.913  12.736
 9638TIP3   OH253108   7.073   1.964  12.281
 9638TIP3    H153109   6.996   2.020  12.291
 9638TIP3    H253110   7.040   1.875  12.295
 9639TIP3   OH253111   6.042   2.095  11.964
 9639TIP3    H153112   6.086   2.028  11.911
 9639TIP3    H253113   6.107   2.120  12.030
 9640TIP3   OH253114   6.517   2.167  12.216
 9640TIP3    H153115   6.550   2.098  12.273
 9640TIP3    H253116   6.534   2.248  12.264
 9641TIP3   OH253117   7.354   3.606  12.345
 9641TIP3    H153118   7.324   3.522  12.311
 9641TIP3    H253119   7.331   3.670  12.278
 9642TIP3   OH253120   5.989   3.536  11.945
 9642TIP3    H153121   5.955   3.612  11.898
 9642TIP3    H253122   6.080   3.529  11.916
 9643TIP3   OH253123   7.577   2.540  12.406
 9643TIP3    H153124   7.537   2.612  12.454
 9643TIP3    H253125   7.518   2.525  12.332
 9644TIP3   OH253126   7.507   3.300  12.917
 9644TIP3    H153127   7.592   3.338  12.935
 9644TIP3    H253128   7.446   3.347  12.974
 9645TIP3   OH253129   7.522   2.226  12.581
 9645TIP3    H153130   7.612   2.249  12.604
 9645TIP3    H253131   7.521   2.227  12.486
 9646TIP3   OH253132   7.504   3.707  12.547
 9646TIP3    H153133   7.447   3.664  12.483
 9646TIP3    H253134   7.507   3.647  12.621
 9647TIP3   OH253135   7.561   3.549  12.767
 9647TIP3    H153136   7.500   3.479  12.791
 9647TIP3    H253137   7.547   3.617  12.834
 9648TIP3   OH253138   7.657   2.888  12.870
 9648TIP3    H153139   7.724   2.874  12.803
 9648TIP3    H253140   7.654   2.806  12.919
 9649TIP3   OH253141   7.544   2.613  12.776
 9649TIP3    H153142   7.630   2.571  12.790
 9649TIP3    H253143   7.506   2.617  12.864
 9650TIP3   OH253144   7.509   2.149  12.310
 9650TIP3    H153145   7.417   2.150  12.338
 9650TIP3    H253146   7.505   2.147  12.214
 9651TIP3   OH253147   1.210   4.741  12.541
 9651TIP3    H153148   1.202   4.836  12.538
 9651TIP3    H253149   1.139   4.709  12.485
 9652TIP3   OH253150   1.445   4.989  12.757
 9652TIP3    H153151   1.368   4.956  12.803
 9652TIP3    H253152   1.492   5.040  12.824
 9653TIP3   OH253153   0.139   4.406  12.339
 9653TIP3    H153154   0.166   4.498  12.335
 9653TIP3    H253155   0.053   4.408  12.380
 9654TIP3   OH253156   0.149   4.692  12.658
 9654TIP3    H153157   0.155   4.598  12.647
 9654TIP3    H253158   0.234   4.726  12.630
 9655TIP3   OH253159   1.153   5.461  12.701
 9655TIP3    H153160   1.232   5.417  12.669
 9655TIP3    H253161   1.150   5.439  12.794
 9656TIP3   OH253162   0.554   4.161  12.735
 9656TIP3    H153163   0.581   4.245  12.697
 9656TIP3    H253164   0.503   4.119  12.665
 9657TIP3   OH253165   1.353   4.196  12.507
 9657TIP3    H153166   1.399   4.168  12.587
 9657TIP3    H253167   1.327   4.286  12.526
 9658TIP3   OH253168   0.732   4.569  12.696
 9658TIP3    H153169   0.712   4.566  12.790
 9658TIP3    H253170   0.698   4.487  12.662
 9659TIP3   OH253171   1.193   5.003  12.420
 9659TIP3    H153172   1.166   5.002  12.328
 9659TIP3    H253173   1.148   5.079  12.457
 9660TIP3   OH253174   1.490   4.140  12.744
 9660TIP3    H153175   1.420   4.130  12.808
 9660TIP3    H253176   1.547   4.065  12.758
 9661TIP3   OH253177   0.103   5.012  12.282
 9661TIP3    H153178   0.108   5.048  12.193
 9661TIP3    H253179   0.157   5.072  12.334
 9662TIP3   OH253180   1.362   5.346  12.560
 9662TIP3    H153181   1.396   5.259  12.542
 9662TIP3    H253182   1.440   5.399  12.579
 9663TIP3   OH253183   1.468   5.099  12.498
 9663TIP3    H153184   1.398   5.053  12.453
 9663TIP3    H253185   1.474   5.058  12.584
 9664TIP3   OH253186   1.068   4.680  12.309
 9664TIP3    H153187   1.001   4.746  12.290
 9664TIP3    H253188   1.138   4.699  12.247
 9665TIP3   OH253189   1.099   4.580  11.959
 9665TIP3    H153190   1.141   4.603  12.041
 9665TIP3    H253191   1.154   4.512  11.922
 9666TIP3   OH253192   1.439   4.716  12.395
 9666TIP3    H153193   1.363   4.729  12.453
 9666TIP3    H253194   1.502   4.667  12.449
 9667TIP3   OH253195   0.574   4.773  12.597
 9667TIP3    H153196   0.525   4.728  12.528
 9667TIP3    H253197   0.636   4.707  12.629
 9668TIP3   OH253198   1.304   4.661  12.159
 9668TIP3    H153199   1.354   4.688  12.237
 9668TIP3    H253200   1.355   4.695  12.085
 9669TIP3   OH253201   1.072   5.249  12.477
 9669TIP3    H153202   1.090   5.310  12.549
 9669TIP3    H253203   1.027   5.302  12.411
 9670TIP3   OH253204   1.670   3.783  12.157
 9670TIP3    H153205   1.587   3.808  12.198
 9670TIP3    H253206   1.708   3.865  12.126
 9671TIP3   OH253207   0.411   4.660  12.399
 9671TIP3    H153208   0.393   4.728  12.334
 9671TIP3    H253209   0.447   4.588  12.348
 9672TIP3   OH253210   1.791   5.227  11.988
 9672TIP3    H153211   1.804   5.320  12.007
 9672TIP3    H253212   1.878   5.188  11.998
 9673TIP3   OH253213   1.050   5.557  12.328
 9673TIP3    H153214   1.031   5.577  12.236
 9673TIP3    H253215   1.026   5.637  12.375
 9674TIP3   OH253216   0.405   5.428  12.546
 9674TIP3    H153217   0.434   5.401  12.633
 9674TIP3    H253218   0.352   5.354  12.516
 9675TIP3   OH253219   1.339   5.505  12.037
 9675TIP3    H153220   1.389   5.433  11.997
 9675TIP3    H253221   1.346   5.488  12.131
 9676TIP3   OH253222   1.313   5.487  12.318
 9676TIP3    H153223   1.219   5.506  12.327
 9676TIP3    H253224   1.332   5.426  12.390
 9677TIP3   OH253225   1.460   4.733  11.949
 9677TIP3    H153226   1.440   4.735  11.856
 9677TIP3    H253227   1.553   4.757  11.955
 9678TIP3   OH253228   1.011   4.094  11.977
 9678TIP3    H153229   0.959   4.094  12.057
 9678TIP3    H253230   0.967   4.030  11.920
 9679TIP3   OH253231   0.622   4.355  12.549
 9679TIP3    H153232   0.528   4.368  12.533
 9679TIP3    H253233   0.658   4.340  12.462
 9680TIP3   OH253234   1.130   4.427  12.399
 9680TIP3    H153235   1.099   4.514  12.373
 9680TIP3    H253236   1.202   4.408  12.338
 9681TIP3   OH253237   1.327   4.459  12.641
 9681TIP3    H153238   1.264   4.525  12.612
 9681TIP3    H253239   1.293   4.429  12.725
 9682TIP3   OH253240   0.676   4.142  11.900
 9682TIP3    H153241   0.644   4.129  11.990
 9682TIP3    H253242   0.624   4.214  11.866
 9683TIP3   OH253243   0.142   4.073  12.690
 9683TIP3    H153244   0.083   4.027  12.749
 9683TIP3    H253245   0.117   4.043  12.602
 9684TIP3   OH253246   0.111   4.225  12.129
 9684TIP3    H153247   0.158   4.269  12.058
 9684TIP3    H253248   0.113   4.287  12.201
 9685TIP3   OH253249   0.847   4.125  12.639
 9685TIP3    H153250   0.758   4.155  12.656
 9685TIP3    H253251   0.901   4.174  12.702
 9686TIP3   OH253252   0.357   4.333  12.492
 9686TIP3    H153253   0.281   4.348  12.434
 9686TIP3    H253254   0.365   4.238  12.497
 9687TIP3   OH253255   0.668   4.304  12.275
 9687TIP3    H153256   0.763   4.309  12.285
 9687TIP3    H253257   0.650   4.353  12.194
 9688TIP3   OH253258   1.297   4.110  12.933
 9688TIP3    H153259   1.247   4.186  12.963
 9688TIP3    H253260   1.282   4.044  13.001
 9689TIP3   OH253261   0.615   4.418  12.033
 9689TIP3    H153262   0.543   4.465  11.992
 9689TIP3    H253263   0.694   4.458  11.997
 9690TIP3   OH253264   0.980   4.292  12.821
 9690TIP3    H153265   0.975   4.382  12.790
 9690TIP3    H253266   1.039   4.295  12.896
 9691TIP3   OH253267   0.434   4.067  12.501
 9691TIP3    H153268   0.386   3.988  12.523
 9691TIP3    H253269   0.458   4.056  12.409
 9692TIP3   OH253270   0.881   4.881  12.246
 9692TIP3    H153271   0.812   4.828  12.207
 9692TIP3    H253272   0.849   4.902  12.334
 9693TIP3   OH253273   1.262   4.160  12.074
 9693TIP3    H153274   1.170   4.161  12.048
 9693TIP3    H253275   1.277   4.245  12.114
 9694TIP3   OH253276   1.336   4.388  12.212
 9694TIP3    H153277   1.418   4.374  12.259
 9694TIP3    H253278   1.337   4.481  12.188
 9695TIP3   OH253279   0.407   4.813  12.812
 9695TIP3    H153280   0.463   4.819  12.735
 9695TIP3    H253281   0.460   4.769  12.878
 9696TIP3   OH253282   1.086   5.031  12.144
 9696TIP3    H153283   1.059   5.122  12.156
 9696TIP3    H253284   1.012   4.979  12.174
 9697TIP3   OH253285   1.801   4.403  12.177
 9697TIP3    H153286   1.752   4.384  12.097
 9697TIP3    H253287   1.832   4.492  12.166
 9698TIP3   OH253288   1.643   5.239  12.249
 9698TIP3    H153289   1.591   5.173  12.294
 9698TIP3    H253290   1.662   5.201  12.164
 9699TIP3   OH253291   0.644   5.183  12.502
 9699TIP3    H153292   0.670   5.274  12.486
 9699TIP3    H253293   0.584   5.188  12.577
 9700TIP3   OH253294   0.139   4.715  11.975
 9700TIP3    H153295   0.232   4.694  11.984
 9700TIP3    H253296   0.100   4.682  12.056
 9701TIP3   OH253297   0.769   4.939  12.483
 9701TIP3    H153298   0.736   5.028  12.496
 9701TIP3    H253299   0.710   4.884  12.535
 9702TIP3   OH253300   0.657   5.456  12.439
 9702TIP3    H153301   0.565   5.459  12.466
 9702TIP3    H253302   0.697   5.532  12.482
 9703TIP3   OH253303   1.425   5.071  12.015
 9703TIP3    H153304   1.446   5.024  12.096
 9703TIP3    H253305   1.334   5.049  11.998
 9704TIP3   OH253306   1.849   5.493  12.047
 9704TIP3    H153307   1.898   5.558  11.997
 9704TIP3    H253308   1.777   5.542  12.088
 9705TIP3   OH253309   1.521   4.932  12.233
 9705TIP3    H153310   1.479   4.872  12.295
 9705TIP3    H253311   1.615   4.913  12.241
 9706TIP3   OH253312   0.804   5.186  11.857
 9706TIP3    H153313   0.810   5.103  11.809
 9706TIP3    H253314   0.765   5.163  11.941
 9707TIP3   OH253315   0.697   5.120  12.106
 9707TIP3    H153316   0.735   5.058  12.168
 9707TIP3    H253317   0.708   5.206  12.146
 9708TIP3   OH253318   0.339   4.852  12.214
 9708TIP3    H153319   0.255   4.894  12.233
 9708TIP3    H253320   0.381   4.911  12.152
 9709TIP3   OH253321   1.237   4.027  12.322
 9709TIP3    H153322   1.248   4.075  12.240
 9709TIP3    H253323   1.271   4.087  12.389
 9710TIP3   OH253324   0.996   5.288  12.168
 9710TIP3    H153325   0.903   5.310  12.178
 9710TIP3    H253326   1.040   5.373  12.159
 9711TIP3   OH253327   0.922   4.251  12.387
 9711TIP3    H153328   0.996   4.311  12.397
 9711TIP3    H253329   0.906   4.217  12.475
 9712TIP3   OH253330   0.998   3.925  12.427
 9712TIP3    H153331   0.992   3.966  12.513
 9712TIP3    H253332   1.083   3.952  12.393
 9713TIP3   OH253333   0.737   5.378  12.190
 9713TIP3    H153334   0.741   5.462  12.144
 9713TIP3    H253335   0.707   5.400  12.278
 9714TIP3   OH253336   0.584   4.067  12.156
 9714TIP3    H153337   0.588   4.152  12.200
 9714TIP3    H253338   0.670   4.029  12.171
 9715TIP3   OH253339   0.426   5.076  12.037
 9715TIP3    H153340   0.505   5.110  12.079
 9715TIP3    H253341   0.459   5.029  11.960
 9716TIP3   OH253342   0.240   4.393  11.952
 9716TIP3    H153343   0.318   4.446  11.969
 9716TIP3    H253344   0.201   4.432  11.874
 9717TIP3   OH253345   0.322   3.821  12.826
 9717TIP3    H153346   0.330   3.840  12.733
 9717TIP3    H253347   0.236   3.857  12.850
 9718TIP3   OH253348   0.184   5.271  12.440
 9718TIP3    H153349   0.089   5.284  12.447
 9718TIP3    H253350   0.208   5.316  12.359
 9719TIP3   OH253351   1.008   5.375  11.850
 9719TIP3    H153352   0.941   5.308  11.865
 9719TIP3    H253353   1.086   5.326  11.823
 9720TIP3   OH253354   1.470   5.312  11.889
 9720TIP3    H153355   1.468   5.230  11.938
 9720TIP3    H253356   1.550   5.306  11.836
 9721TIP3   OH253357   0.552   4.925  11.844
 9721TIP3    H153358   0.525   4.838  11.873
 9721TIP3    H253359   0.647   4.918  11.836
 9722TIP3   OH253360   1.163   5.038  11.878
 9722TIP3    H153361   1.122   5.032  11.965
 9722TIP3    H253362   1.145   4.953  11.837
 9723TIP3   OH253363   0.690   4.727  12.122
 9723TIP3    H153364   0.597   4.717  12.101
 9723TIP3    H253365   0.736   4.669  12.062
 9724TIP3   OH253366   0.820   4.569  11.931
 9724TIP3    H153367   0.803   4.603  11.843
 9724TIP3    H253368   0.916   4.573  11.939
 9725TIP3   OH253369   1.744   4.776  11.878
 9725TIP3    H153370   1.722   4.746  11.790
 9725TIP3    H253371   1.716   4.868  11.879
 9726TIP3   OH253372   0.801   5.620  12.072
 9726TIP3    H153373   0.895   5.602  12.067
 9726TIP3    H253374   0.785   5.687  12.006
 9727TIP3   OH253375   0.149   5.104  12.026
 9727TIP3    H153376   0.243   5.122  12.036
 9727TIP3    H253377   0.144   5.048  11.949
 9728TIP3   OH253378   0.059   5.614  12.440
 9728TIP3    H153379  -0.022   5.662  12.457
 9728TIP3    H253380   0.071   5.559  12.517
 9729TIP3   OH253381   0.125   5.453  12.656
 9729TIP3    H153382   0.167   5.384  12.605
 9729TIP3    H253383   0.181   5.463  12.733
 9730TIP3   OH253384   1.785   4.850  12.272
 9730TIP3    H153385   1.862   4.906  12.282
 9730TIP3    H253386   1.785   4.796  12.351
 9731TIP3   OH253387   1.800   4.672  12.483
 9731TIP3    H153388   1.725   4.627  12.521
 9731TIP3    H253389   1.863   4.679  12.555
 9732TIP3   OH253390   1.868   4.660  12.093
 9732TIP3    H153391   1.820   4.685  12.014
 9732TIP3    H253392   1.838   4.722  12.160
 9733TIP3   OH253393   1.683   4.373  11.929
 9733TIP3    H153394   1.648   4.428  11.859
 9733TIP3    H253395   1.657   4.284  11.904
 9734TIP3   OH253396   1.583   4.511  12.573
 9734TIP3    H153397   1.598   4.449  12.501
 9734TIP3    H253398   1.491   4.497  12.597
 9735TIP3   OH253399   0.145   4.756  12.924
 9735TIP3    H153400   0.140   4.732  12.832
 9735TIP3    H253401   0.239   4.760  12.943
 9736TIP3   OH253402   1.609   4.119  11.855
 9736TIP3    H153403   1.641   4.071  11.931
 9736TIP3    H253404   1.517   4.092  11.848
 9737TIP3   OH253405   1.584   4.336  12.349
 9737TIP3    H153406   1.578   4.242  12.369
 9737TIP3    H253407   1.661   4.344  12.293
 9738TIP3   OH253408   1.648   4.044  12.374
 9738TIP3    H153409   1.667   4.044  12.468
 9738TIP3    H253410   1.578   3.979  12.364
 9739TIP3   OH253411   0.048   4.354  12.874
 9739TIP3    H153412  -0.011   4.329  12.803
 9739TIP3    H253413  -0.010   4.377  12.947
 9740TIP3   OH253414   1.789   3.998  12.031
 9740TIP3    H153415   1.833   3.944  11.965
 9740TIP3    H253416   1.856   4.060  12.059
 9741TIP3   OH253417   0.104   4.014  12.307
 9741TIP3    H153418   0.010   4.018  12.325
 9741TIP3    H253419   0.120   4.087  12.246
 9742TIP3   OH253420   1.567   5.526  12.570
 9742TIP3    H153421   1.632   5.483  12.515
 9742TIP3    H253422   1.544   5.606  12.522
 9743TIP3   OH253423   0.271   5.482  12.882
 9743TIP3    H153424   0.246   5.471  12.974
 9743TIP3    H253425   0.352   5.432  12.873
 9744TIP3   OH253426   0.500   5.352  12.799
 9744TIP3    H153427   0.513   5.262  12.828
 9744TIP3    H253428   0.575   5.400  12.834
 9745TIP3   OH253429   0.334   3.819  12.546
 9745TIP3    H153430   0.244   3.807  12.515
 9745TIP3    H253431   0.381   3.744  12.511
 9746TIP3   OH253432   0.205   3.815  12.143
 9746TIP3    H153433   0.251   3.876  12.086
 9746TIP3    H253434   0.166   3.870  12.211
 9747TIP3   OH253435   0.749   3.819  12.536
 9747TIP3    H153436   0.831   3.831  12.488
 9747TIP3    H253437   0.725   3.906  12.566
 9748TIP3   OH253438   1.207   3.838  12.637
 9748TIP3    H153439   1.284   3.858  12.690
 9748TIP3    H253440   1.180   3.751  12.665
 9749TIP3   OH253441   1.445   3.846  12.302
 9749TIP3    H153442   1.372   3.907  12.309
 9749TIP3    H253443   1.405   3.760  12.316
 9750TIP3   OH253444   0.176   5.427  12.213
 9750TIP3    H153445   0.090   5.419  12.171
 9750TIP3    H253446   0.191   5.521  12.219
 9751TIP3   OH253447   0.370   3.980  11.992
 9751TIP3    H153448   0.423   3.927  11.932
 9751TIP3    H253449   0.433   4.015  12.055
 9752TIP3   OH253450   0.866   4.051  12.210
 9752TIP3    H153451   0.903   3.980  12.263
 9752TIP3    H253452   0.879   4.130  12.263
 9753TIP3   OH253453   1.067   5.551  12.050
 9753TIP3    H153454   1.162   5.553  12.046
 9753TIP3    H253455   1.041   5.497  11.975
 9754TIP3   OH253456   1.733   5.473  12.355
 9754TIP3    H153457   1.703   5.389  12.320
 9754TIP3    H253458   1.712   5.537  12.287
 9755TIP3   OH253459   0.319   5.516  11.929
 9755TIP3    H153460   0.283   5.533  12.016
 9755TIP3    H253461   0.385   5.448  11.944
 9756TIP3   OH253462   3.078   4.777  12.551
 9756TIP3    H153463   3.061   4.864  12.514
 9756TIP3    H253464   3.016   4.719  12.507
 9757TIP3   OH253465   3.309   4.958  12.677
 9757TIP3    H153466   3.227   4.910  12.670
 9757TIP3    H253467   3.297   5.016  12.752
 9758TIP3   OH253468   1.974   4.419  12.422
 9758TIP3    H153469   1.946   4.493  12.474
 9758TIP3    H253470   1.905   4.408  12.356
 9759TIP3   OH253471   1.987   4.654  12.684
 9759TIP3    H153472   1.992   4.613  12.770
 9759TIP3    H253473   2.050   4.725  12.687
 9760TIP3   OH253474   3.064   5.455  12.755
 9760TIP3    H153475   3.118   5.421  12.684
 9760TIP3    H253476   2.988   5.397  12.757
 9761TIP3   OH253477   2.868   4.931  13.005
 9761TIP3    H153478   2.847   4.901  12.917
 9761TIP3    H253479   2.846   4.857  13.062
 9762TIP3   OH253480   2.473   4.153  12.714
 9762TIP3    H153481   2.490   4.229  12.659
 9762TIP3    H253482   2.412   4.099  12.663
 9763TIP3   OH253483   3.241   4.179  12.544
 9763TIP3    H153484   3.298   4.104  12.565
 9763TIP3    H253485   3.297   4.237  12.492
 9764TIP3   OH253486   2.581   4.551  12.685
 9764TIP3    H153487   2.649   4.505  12.735
 9764TIP3    H253488   2.550   4.487  12.621
 9765TIP3   OH253489   3.027   5.006  12.416
 9765TIP3    H153490   3.022   5.016  12.320
 9765TIP3    H253491   2.994   5.089  12.450
 9766TIP3   OH253492   2.019   5.001  12.268
 9766TIP3    H153493   2.008   5.045  12.184
 9766TIP3    H253494   2.042   5.071  12.329
 9767TIP3   OH253495   2.696   3.797  12.803
 9767TIP3    H153496   2.694   3.703  12.819
 9767TIP3    H253497   2.641   3.835  12.872
 9768TIP3   OH253498   3.225   5.351  12.547
 9768TIP3    H153499   3.268   5.271  12.519
 9768TIP3    H253500   3.297   5.410  12.570
 9769TIP3   OH253501   3.341   5.121  12.455
 9769TIP3    H153502   3.330   5.063  12.381
 9769TIP3    H253503   3.346   5.063  12.531
 9770TIP3   OH253504   2.942   4.697  12.303
 9770TIP3    H153505   2.877   4.765  12.285
 9770TIP3    H253506   3.011   4.712  12.238
 9771TIP3   OH253507   2.972   4.570  11.969
 9771TIP3    H153508   3.024   4.600  12.044
 9771TIP3    H253509   3.025   4.502  11.928
 9772TIP3   OH253510   3.295   4.708  12.390
 9772TIP3    H153511   3.226   4.732  12.452
 9772TIP3    H253512   3.358   4.658  12.442
 9773TIP3   OH253513   2.442   4.755  12.562
 9773TIP3    H153514   2.413   4.721  12.477
 9773TIP3    H253515   2.494   4.684  12.600
 9774TIP3   OH253516   2.517   4.653  12.935
 9774TIP3    H153517   2.555   4.639  12.848
 9774TIP3    H253518   2.591   4.678  12.990
 9775TIP3   OH253519   3.175   4.655  12.147
 9775TIP3    H153520   3.220   4.677  12.228
 9775TIP3    H253521   3.228   4.694  12.078
 9776TIP3   OH253522   2.961   5.266  12.492
 9776TIP3    H153523   3.049   5.299  12.511
 9776TIP3    H253524   2.923   5.331  12.434
 9777TIP3   OH253525   2.366   4.653  12.312
 9777TIP3    H153526   2.315   4.721  12.269
 9777TIP3    H253527   2.309   4.576  12.313
 9778TIP3   OH253528   3.670   5.236  12.004
 9778TIP3    H153529   3.696   5.328  12.010
 9778TIP3    H253530   3.753   5.189  11.999
 9779TIP3   OH253531   2.927   5.560  12.337
 9779TIP3    H153532   2.914   5.576  12.244
 9779TIP3    H253533   2.901   5.641  12.380
 9780TIP3   OH253534   2.281   5.448  12.556
 9780TIP3    H153535   2.271   5.386  12.628
 9780TIP3    H253536   2.200   5.439  12.506
 9781TIP3   OH253537   3.218   5.511  12.036
 9781TIP3    H153538   3.272   5.442  11.997
 9781TIP3    H253539   3.229   5.499  12.131
 9782TIP3   OH253540   3.192   5.498  12.312
 9782TIP3    H153541   3.100   5.518  12.328
 9782TIP3    H253542   3.218   5.440  12.384
 9783TIP3   OH253543   2.465   3.936  12.927
 9783TIP3    H153544   2.379   3.900  12.907
 9783TIP3    H253545   2.480   4.001  12.859
 9784TIP3   OH253546   3.336   4.745  11.949
 9784TIP3    H153547   3.318   4.740  11.855
 9784TIP3    H253548   3.430   4.765  11.954
 9785TIP3   OH253549   2.892   4.066  11.998
 9785TIP3    H153550   2.838   4.072  12.077
 9785TIP3    H253551   2.840   4.015  11.937
 9786TIP3   OH253552   2.490   4.353  12.527
 9786TIP3    H153553   2.395   4.354  12.517
 9786TIP3    H253554   2.523   4.341  12.438
 9787TIP3   OH253555   3.012   4.440  12.376
 9787TIP3    H153556   2.986   4.529  12.353
 9787TIP3    H253557   3.083   4.420  12.315
 9788TIP3   OH253558   2.556   4.146  11.897
 9788TIP3    H153559   2.521   4.131  11.984
 9788TIP3    H253560   2.499   4.214  11.859
 9789TIP3   OH253561   1.846   4.089  12.593
 9789TIP3    H153562   1.915   4.113  12.655
 9789TIP3    H253563   1.892   4.049  12.520
 9790TIP3   OH253564   1.973   4.192  12.119
 9790TIP3    H153565   2.043   4.236  12.071
 9790TIP3    H253566   1.917   4.264  12.149
 9791TIP3   OH253567   2.776   4.188  12.658
 9791TIP3    H153568   2.687   4.155  12.663
 9791TIP3    H253569   2.831   4.111  12.671
 9792TIP3   OH253570   2.226   4.329  12.487
 9792TIP3    H153571   2.137   4.358  12.467
 9792TIP3    H253572   2.220   4.234  12.496
 9793TIP3   OH253573   2.544   4.323  12.259
 9793TIP3    H153574   2.639   4.331  12.267
 9793TIP3    H253575   2.522   4.372  12.181
 9794TIP3   OH253576   2.476   4.433  12.017
 9794TIP3    H153577   2.423   4.409  11.941
 9794TIP3    H253578   2.551   4.480  11.980
 9795TIP3   OH253579   2.732   4.394  12.851
 9795TIP3    H153580   2.773   4.332  12.792
 9795TIP3    H253581   2.798   4.411  12.918
 9796TIP3   OH253582   2.312   4.052  12.510
 9796TIP3    H153583   2.250   3.983  12.530
 9796TIP3    H253584   2.346   4.030  12.423
 9797TIP3   OH253585   2.745   4.898  12.228
 9797TIP3    H153586   2.676   4.847  12.185
 9797TIP3    H253587   2.714   4.910  12.318
 9798TIP3   OH253588   3.149   4.138  12.067
 9798TIP3    H153589   3.055   4.132  12.049
 9798TIP3    H253590   3.162   4.228  12.097
 9799TIP3   OH253591   3.215   4.375  12.194
 9799TIP3    H153592   3.294   4.356  12.244
 9799TIP3    H253593   3.226   4.464  12.162
 9800TIP3   OH253594   2.332   4.837  12.804
 9800TIP3    H153595   2.354   4.808  12.715
 9800TIP3    H253596   2.357   4.764  12.860
 9801TIP3   OH253597   2.966   5.027  12.134
 9801TIP3    H153598   2.944   5.120  12.147
 9801TIP3    H253599   2.887   4.980  12.161
 9802TIP3   OH253600   3.482   5.280  12.206
 9802TIP3    H153601   3.454   5.201  12.252
 9802TIP3    H253602   3.541   5.250  12.138
 9803TIP3   OH253603   2.545   5.189  12.539
 9803TIP3    H153604   2.559   5.277  12.504
 9803TIP3    H253605   2.450   5.182  12.549
 9804TIP3   OH253606   2.129   4.665  12.005
 9804TIP3    H153607   2.176   4.730  12.058
 9804TIP3    H253608   2.041   4.663  12.042
 9805TIP3   OH253609   2.635   4.936  12.472
 9805TIP3    H153610   2.614   5.025  12.501
 9805TIP3    H253611   2.566   4.881  12.509
 9806TIP3   OH253612   2.534   5.455  12.448
 9806TIP3    H153613   2.444   5.458  12.480
 9806TIP3    H253614   2.570   5.541  12.470
 9807TIP3   OH253615   3.299   5.074  12.009
 9807TIP3    H153616   3.306   5.028  12.093
 9807TIP3    H253617   3.212   5.051  11.976
 9808TIP3   OH253618   3.746   5.500  12.049
 9808TIP3    H153619   3.813   5.568  12.044
 9808TIP3    H253620   3.668   5.547  12.079
 9809TIP3   OH253621   3.371   4.937  12.248
 9809TIP3    H153622   3.337   4.860  12.294
 9809TIP3    H253623   3.465   4.921  12.241
 9810TIP3   OH253624   2.697   5.184  11.856
 9810TIP3    H153625   2.696   5.103  11.805
 9810TIP3    H253626   2.655   5.162  11.938
 9811TIP3   OH253627   2.581   5.126  12.101
 9811TIP3    H153628   2.631   5.064  12.155
 9811TIP3    H253629   2.596   5.211  12.143
 9812TIP3   OH253630   2.234   4.855  12.178
 9812TIP3    H153631   2.160   4.894  12.225
 9812TIP3    H253632   2.277   4.929  12.135
 9813TIP3   OH253633   3.088   4.059  12.340
 9813TIP3    H153634   3.119   4.103  12.261
 9813TIP3    H253635   3.132   4.105  12.412
 9814TIP3   OH253636   2.889   5.284  12.176
 9814TIP3    H153637   2.798   5.312  12.190
 9814TIP3    H253638   2.936   5.365  12.155
 9815TIP3   OH253639   2.799   4.272  12.380
 9815TIP3    H153640   2.876   4.329  12.374
 9815TIP3    H253641   2.792   4.251  12.473
 9816TIP3   OH253642   2.871   3.920  12.434
 9816TIP3    H153643   2.886   3.932  12.528
 9816TIP3    H253644   2.944   3.967  12.392
 9817TIP3   OH253645   2.630   5.377  12.200
 9817TIP3    H153646   2.630   5.458  12.149
 9817TIP3    H253647   2.595   5.402  12.286
 9818TIP3   OH253648   2.456   4.082  12.150
 9818TIP3    H153649   2.457   4.167  12.195
 9818TIP3    H253650   2.540   4.042  12.173
 9819TIP3   OH253651   2.312   5.080  12.021
 9819TIP3    H153652   2.387   5.122  12.062
 9819TIP3    H253653   2.349   5.025  11.953
 9820TIP3   OH253654   2.111   4.384  11.971
 9820TIP3    H153655   2.148   4.464  12.008
 9820TIP3    H253656   2.052   4.414  11.902
 9821TIP3   OH253657   2.206   3.853  12.839
 9821TIP3    H153658   2.191   3.856  12.744
 9821TIP3    H253659   2.186   3.763  12.864
 9822TIP3   OH253660   2.074   5.232  12.411
 9822TIP3    H153661   2.000   5.256  12.467
 9822TIP3    H253662   2.078   5.301  12.345
 9823TIP3   OH253663   2.901   5.373  11.858
 9823TIP3    H153664   2.836   5.304  11.867
 9823TIP3    H253665   2.980   5.329  11.827
 9824TIP3   OH253666   3.352   5.321  11.891
 9824TIP3    H153667   3.356   5.241  11.944
 9824TIP3    H253668   3.432   5.318  11.838
 9825TIP3   OH253669   2.443   4.897  11.867
 9825TIP3    H153670   2.473   4.849  11.944
 9825TIP3    H253671   2.522   4.908  11.814
 9826TIP3   OH253672   3.048   5.036  11.871
 9826TIP3    H153673   3.006   5.031  11.957
 9826TIP3    H253674   3.035   4.949  11.833
 9827TIP3   OH253675   2.552   4.748  12.098
 9827TIP3    H153676   2.499   4.699  12.161
 9827TIP3    H253677   2.597   4.681  12.047
 9828TIP3   OH253678   2.693   4.576  11.928
 9828TIP3    H153679   2.689   4.603  11.836
 9828TIP3    H253680   2.786   4.571  11.947
 9829TIP3   OH253681   3.609   4.779  11.902
 9829TIP3    H153682   3.607   4.748  11.812
 9829TIP3    H253683   3.600   4.874  11.896
 9830TIP3   OH253684   2.678   5.615  12.066
 9830TIP3    H153685   2.773   5.601  12.066
 9830TIP3    H253686   2.663   5.681  11.999
 9831TIP3   OH253687   2.036   5.093  12.001
 9831TIP3    H153688   2.131   5.097  12.013
 9831TIP3    H253689   2.023   5.023  11.937
 9832TIP3   OH253690   1.922   5.571  12.529
 9832TIP3    H153691   1.866   5.535  12.460
 9832TIP3    H253692   1.934   5.498  12.590
 9833TIP3   OH253693   1.946   5.361  12.701
 9833TIP3    H153694   1.967   5.268  12.705
 9833TIP3    H253695   1.871   5.371  12.759
 9834TIP3   OH253696   3.771   4.675  12.107
 9834TIP3    H153697   3.714   4.716  12.041
 9834TIP3    H253698   3.771   4.738  12.180
 9835TIP3   OH253699   3.493   4.369  11.956
 9835TIP3    H153700   3.535   4.448  11.922
 9835TIP3    H253701   3.506   4.304  11.886
 9836TIP3   OH253702   3.478   4.563  12.548
 9836TIP3    H153703   3.508   4.472  12.554
 9836TIP3    H253704   3.557   4.616  12.562
 9837TIP3   OH253705   3.480   4.085  11.895
 9837TIP3    H153706   3.458   4.127  11.978
 9837TIP3    H253707   3.396   4.073  11.851
 9838TIP3   OH253708   3.436   4.288  12.368
 9838TIP3    H153709   3.484   4.213  12.403
 9838TIP3    H253710   3.504   4.344  12.331
 9839TIP3   OH253711   2.057   4.125  12.802
 9839TIP3    H153712   2.087   4.037  12.825
 9839TIP3    H253713   1.998   4.150  12.873
 9840TIP3   OH253714   3.734   4.034  12.027
 9840TIP3    H153715   3.767   3.952  11.989
 9840TIP3    H253716   3.674   4.069  11.961
 9841TIP3   OH253717   1.926   4.005  12.318
 9841TIP3    H153718   1.832   4.014  12.326
 9841TIP3    H253719   1.952   4.078  12.261
 9842TIP3   OH253720   3.431   5.533  12.577
 9842TIP3    H153721   3.486   5.507  12.503
 9842TIP3    H253722   3.469   5.616  12.607
 9843TIP3   OH253723   2.908   3.944  12.707
 9843TIP3    H153724   2.838   3.895  12.750
 9843TIP3    H253725   2.986   3.888  12.717
 9844TIP3   OH253726   2.155   3.836  12.565
 9844TIP3    H153727   2.064   3.826  12.537
 9844TIP3    H253728   2.198   3.754  12.538
 9845TIP3   OH253729   2.058   3.817  12.131
 9845TIP3    H153730   2.108   3.884  12.084
 9845TIP3    H253731   2.011   3.864  12.199
 9846TIP3   OH253732   2.625   3.787  12.535
 9846TIP3    H153733   2.696   3.836  12.493
 9846TIP3    H253734   2.644   3.793  12.628
 9847TIP3   OH253735   2.056   5.439  12.235
 9847TIP3    H153736   1.975   5.431  12.184
 9847TIP3    H253737   2.083   5.530  12.224
 9848TIP3   OH253738   2.236   3.992  11.990
 9848TIP3    H153739   2.287   3.936  11.932
 9848TIP3    H253740   2.300   4.025  12.053
 9849TIP3   OH253741   2.732   4.055  12.225
 9849TIP3    H153742   2.763   3.987  12.285
 9849TIP3    H253743   2.749   4.138  12.271
 9850TIP3   OH253744   2.947   5.553  12.057
 9850TIP3    H153745   3.042   5.561  12.053
 9850TIP3    H253746   2.924   5.499  11.982
 9851TIP3   OH253747   3.582   5.486  12.351
 9851TIP3    H153748   3.548   5.409  12.307
 9851TIP3    H253749   3.582   5.555  12.285
 9852TIP3   OH253750   2.190   5.504  11.924
 9852TIP3    H153751   2.155   5.539  12.006
 9852TIP3    H253752   2.255   5.439  11.952
 9853TIP3   OH253753   5.202   4.993  12.786
 9853TIP3    H153754   5.193   4.899  12.774
 9853TIP3    H253755   5.156   5.011  12.868
 9854TIP3   OH253756   4.997   5.527  12.816
 9854TIP3    H153757   5.006   5.472  12.737
 9854TIP3    H253758   4.931   5.482  12.868
 9855TIP3   OH253759   4.715   4.938  12.974
 9855TIP3    H153760   4.739   4.972  12.888
 9855TIP3    H253761   4.783   4.970  13.033
 9856TIP3   OH253762   4.318   4.215  12.661
 9856TIP3    H153763   4.351   4.289  12.610
 9856TIP3    H253764   4.271   4.161  12.597
 9857TIP3   OH253765   5.132   4.222  12.481
 9857TIP3    H153766   5.173   4.166  12.547
 9857TIP3    H253767   5.204   4.272  12.443
 9858TIP3   OH253768   4.988   5.037  12.401
 9858TIP3    H153769   4.945   5.008  12.321
 9858TIP3    H253770   4.935   5.111  12.432
 9859TIP3   OH253771   4.158   4.233  12.888
 9859TIP3    H153772   4.192   4.309  12.936
 9859TIP3    H253773   4.218   4.223  12.814
 9860TIP3   OH253774   5.086   5.376  12.605
 9860TIP3    H153775   5.113   5.286  12.585
 9860TIP3    H253776   5.152   5.430  12.562
 9861TIP3   OH253777   5.212   5.141  12.545
 9861TIP3    H153778   5.164   5.094  12.477
 9861TIP3    H253779   5.218   5.079  12.617
 9862TIP3   OH253780   5.163   4.699  12.422
 9862TIP3    H153781   5.099   4.687  12.493
 9862TIP3    H253782   5.241   4.652  12.452
 9863TIP3   OH253783   4.329   4.770  12.511
 9863TIP3    H153784   4.250   4.762  12.457
 9863TIP3    H253785   4.324   4.697  12.572
 9864TIP3   OH253786   4.860   5.274  12.459
 9864TIP3    H153787   4.892   5.332  12.529
 9864TIP3    H253788   4.798   5.327  12.410
 9865TIP3   OH253789   5.450   3.772  12.180
 9865TIP3    H153790   5.361   3.792  12.209
 9865TIP3    H253791   5.483   3.856  12.147
 9866TIP3   OH253792   5.565   5.222  12.004
 9866TIP3    H153793   5.585   5.316  12.004
 9866TIP3    H253794   5.651   5.180  12.003
 9867TIP3   OH253795   4.823   5.570  12.339
 9867TIP3    H153796   4.803   5.576  12.246
 9867TIP3    H253797   4.791   5.652  12.376
 9868TIP3   OH253798   4.161   5.459  12.553
 9868TIP3    H153799   4.197   5.426  12.635
 9868TIP3    H253800   4.105   5.388  12.520
 9869TIP3   OH253801   5.105   5.510  12.038
 9869TIP3    H153802   5.155   5.441  11.996
 9869TIP3    H253803   5.113   5.492  12.132
 9870TIP3   OH253804   5.078   5.478  12.317
 9870TIP3    H153805   4.989   5.509  12.333
 9870TIP3    H253806   5.076   5.386  12.343
 9871TIP3   OH253807   5.199   4.736  11.960
 9871TIP3    H153808   5.198   4.725  11.864
 9871TIP3    H253809   5.292   4.744  11.982
 9872TIP3   OH253810   4.778   4.116  11.992
 9872TIP3    H153811   4.723   4.096  12.068
 9872TIP3    H253812   4.731   4.077  11.918
 9873TIP3   OH253813   4.431   4.147  11.889
 9873TIP3    H153814   4.400   4.151  11.979
 9873TIP3    H253815   4.460   4.236  11.870
 9874TIP3   OH253816   3.773   4.139  12.557
 9874TIP3    H153817   3.821   4.131  12.639
 9874TIP3    H253818   3.733   4.053  12.544
 9875TIP3   OH253819   4.566   4.090  12.686
 9875TIP3    H153820   4.488   4.144  12.679
 9875TIP3    H253821   4.638   4.149  12.667
 9876TIP3   OH253822   4.455   4.297  12.272
 9876TIP3    H153823   4.488   4.341  12.351
 9876TIP3    H253824   4.419   4.368  12.219
 9877TIP3   OH253825   4.325   4.444  12.050
 9877TIP3    H153826   4.251   4.461  11.992
 9877TIP3    H253827   4.401   4.437  11.991
 9878TIP3   OH253828   4.194   4.066  12.456
 9878TIP3    H153829   4.139   3.989  12.466
 9878TIP3    H253830   4.266   4.038  12.400
 9879TIP3   OH253831   4.608   4.919  12.238
 9879TIP3    H153832   4.550   4.850  12.208
 9879TIP3    H253833   4.591   4.927  12.331
 9880TIP3   OH253834   5.023   4.200  12.070
 9880TIP3    H153835   4.934   4.177  12.042
 9880TIP3    H253836   5.049   4.270  12.010
 9881TIP3   OH253837   4.841   5.027  12.143
 9881TIP3    H153838   4.824   5.121  12.154
 9881TIP3    H253839   4.761   4.985  12.175
 9882TIP3   OH253840   5.566   4.410  12.183
 9882TIP3    H153841   5.533   4.386  12.096
 9882TIP3    H253842   5.601   4.499  12.172
 9883TIP3   OH253843   5.407   5.228  12.238
 9883TIP3    H153844   5.358   5.148  12.258
 9883TIP3    H253845   5.452   5.208  12.155
 9884TIP3   OH253846   4.385   5.186  12.536
 9884TIP3    H153847   4.408   5.270  12.497
 9884TIP3    H253848   4.300   5.164  12.498
 9885TIP3   OH253849   4.039   4.676  12.042
 9885TIP3    H153850   4.077   4.722  12.117
 9885TIP3    H253851   3.945   4.671  12.062
 9886TIP3   OH253852   4.534   4.949  12.497
 9886TIP3    H153853   4.496   5.031  12.527
 9886TIP3    H253854   4.466   4.884  12.514
 9887TIP3   OH253855   4.401   5.444  12.420
 9887TIP3    H153856   4.312   5.459  12.452
 9887TIP3    H253857   4.451   5.517  12.456
 9888TIP3   OH253858   5.195   5.072  12.009
 9888TIP3    H153859   5.212   5.031  12.094
 9888TIP3    H253860   5.111   5.036  11.982
 9889TIP3   OH253861   5.619   5.493  12.041
 9889TIP3    H153862   5.686   5.561  12.031
 9889TIP3    H253863   5.541   5.540  12.071
 9890TIP3   OH253864   5.273   4.958  12.250
 9890TIP3    H153865   5.216   4.899  12.299
 9890TIP3    H253866   5.360   4.919  12.257
 9891TIP3   OH253867   4.583   5.193  11.856
 9891TIP3    H153868   4.587   5.112  11.803
 9891TIP3    H253869   4.540   5.166  11.937
 9892TIP3   OH253870   4.465   5.114  12.093
 9892TIP3    H153871   4.517   5.055  12.149
 9892TIP3    H253872   4.476   5.200  12.133
 9893TIP3   OH253873   5.013   4.049  12.306
 9893TIP3    H153874   5.020   4.097  12.224
 9893TIP3    H253875   5.051   4.107  12.372
 9894TIP3   OH253876   4.765   5.292  12.165
 9894TIP3    H153877   4.671   5.311  12.172
 9894TIP3    H253878   4.805   5.374  12.137
 9895TIP3   OH253879   4.774   3.965  12.437
 9895TIP3    H153880   4.782   3.981  12.531
 9895TIP3    H253881   4.856   4.000  12.400
 9896TIP3   OH253882   4.502   5.374  12.176
 9896TIP3    H153883   4.504   5.457  12.129
 9896TIP3    H253884   4.463   5.394  12.261
 9897TIP3   OH253885   4.342   4.076  12.155
 9897TIP3    H153886   4.372   4.154  12.201
 9897TIP3    H253887   4.418   4.018  12.156
 9898TIP3   OH253888   4.176   5.108  12.009
 9898TIP3    H153889   4.243   5.130  12.073
 9898TIP3    H253890   4.221   5.051  11.946
 9899TIP3   OH253891   4.020   5.255  12.439
 9899TIP3    H153892   3.950   5.190  12.449
 9899TIP3    H253893   3.998   5.302  12.359
 9900TIP3   OH253894   4.789   5.378  11.857
 9900TIP3    H153895   4.721   5.311  11.867
 9900TIP3    H253896   4.866   5.329  11.827
 9901TIP3   OH253897   5.240   5.318  11.895
 9901TIP3    H153898   5.240   5.235  11.942
 9901TIP3    H253899   5.315   5.313  11.836
 9902TIP3   OH253900   4.324   4.923  11.861
 9902TIP3    H153901   4.351   4.883  11.944
 9902TIP3    H253902   4.405   4.937  11.813
 9903TIP3   OH253903   4.936   5.020  11.882
 9903TIP3    H153904   4.893   5.019  11.968
 9903TIP3    H253905   4.912   4.937  11.842
 9904TIP3   OH253906   4.467   4.711  12.116
 9904TIP3    H153907   4.387   4.677  12.156
 9904TIP3    H253908   4.480   4.656  12.039
 9905TIP3   OH253909   5.497   4.772  11.885
 9905TIP3    H153910   5.479   4.741  11.796
 9905TIP3    H253911   5.475   4.865  11.883
 9906TIP3   OH253912   4.561   5.622  12.065
 9906TIP3    H153913   4.656   5.608  12.067
 9906TIP3    H253914   4.548   5.684  11.993
 9907TIP3   OH253915   3.904   5.100  11.969
 9907TIP3    H153916   3.993   5.103  12.005
 9907TIP3    H253917   3.902   5.019  11.918
 9908TIP3   OH253918   3.792   5.587  12.500
 9908TIP3    H153919   3.731   5.543  12.441
 9908TIP3    H253920   3.814   5.521  12.565
 9909TIP3   OH253921   3.846   5.402  12.692
 9909TIP3    H153922   3.844   5.310  12.717
 9909TIP3    H253923   3.919   5.439  12.742
 9910TIP3   OH253924   5.528   4.859  12.276
 9910TIP3    H153925   5.609   4.910  12.272
 9910TIP3    H253926   5.539   4.802  12.352
 9911TIP3   OH253927   5.590   4.696  12.482
 9911TIP3    H153928   5.518   4.650  12.524
 9911TIP3    H253929   5.655   4.708  12.551
 9912TIP3   OH253930   5.636   4.673  12.100
 9912TIP3    H153931   5.583   4.693  12.022
 9912TIP3    H253932   5.600   4.729  12.168
 9913TIP3   OH253933   5.474   4.374  11.921
 9913TIP3    H153934   5.447   4.427  11.846
 9913TIP3    H253935   5.446   4.285  11.898
 9914TIP3   OH253936   5.366   4.546  12.556
 9914TIP3    H153937   5.374   4.460  12.514
 9914TIP3    H253938   5.375   4.527  12.650
 9915TIP3   OH253939   5.391   4.115  11.859
 9915TIP3    H153940   5.428   4.072  11.936
 9915TIP3    H253941   5.299   4.086  11.858
 9916TIP3   OH253942   5.385   4.313  12.388
 9916TIP3    H153943   5.386   4.217  12.380
 9916TIP3    H253944   5.445   4.343  12.321
 9917TIP3   OH253945   5.348   4.038  12.393
 9917TIP3    H153946   5.410   3.992  12.450
 9917TIP3    H253947   5.299   3.969  12.349
 9918TIP3   OH253948   3.935   4.095  12.783
 9918TIP3    H153949   3.907   4.036  12.854
 9918TIP3    H253950   4.003   4.149  12.823
 9919TIP3   OH253951   5.565   3.993  12.055
 9919TIP3    H153952   5.625   3.949  11.994
 9919TIP3    H253953   5.621   4.042  12.114
 9920TIP3   OH253954   5.323   5.528  12.569
 9920TIP3    H153955   5.373   5.486  12.499
 9920TIP3    H253956   5.331   5.622  12.550
 9921TIP3   OH253957   4.048   5.456  12.865
 9921TIP3    H153958   4.035   5.424  12.954
 9921TIP3    H253959   4.134   5.421  12.840
 9922TIP3   OH253960   4.286   5.349  12.778
 9922TIP3    H153961   4.308   5.260  12.751
 9922TIP3    H253962   4.363   5.378  12.828
 9923TIP3   OH253963   4.836   3.960  12.714
 9923TIP3    H153964   4.819   3.969  12.807
 9923TIP3    H253965   4.917   3.910  12.709
 9924TIP3   OH253966   5.320   3.799  12.735
 9924TIP3    H153967   5.365   3.870  12.688
 9924TIP3    H253968   5.227   3.816  12.721
 9925TIP3   OH253969   5.534   3.920  12.551
 9925TIP3    H153970   5.589   3.849  12.587
 9925TIP3    H253971   5.594   3.974  12.500
 9926TIP3   OH253972   4.039   3.826  12.444
 9926TIP3    H153973   3.966   3.834  12.506
 9926TIP3    H253974   4.091   3.753  12.476
 9927TIP3   OH253975   3.947   3.803  12.135
 9927TIP3    H153976   4.001   3.862  12.083
 9927TIP3    H253977   3.955   3.837  12.225
 9928TIP3   OH253978   4.526   3.806  12.545
 9928TIP3    H153979   4.596   3.857  12.504
 9928TIP3    H253980   4.521   3.839  12.634
 9929TIP3   OH253981   5.059   3.813  12.656
 9929TIP3    H153982   5.052   3.797  12.562
 9929TIP3    H253983   5.016   3.737  12.697
 9930TIP3   OH253984   5.198   3.838  12.275
 9930TIP3    H153985   5.123   3.897  12.280
 9930TIP3    H253986   5.161   3.751  12.290
 9931TIP3   OH253987   3.947   5.419  12.228
 9931TIP3    H153988   3.870   5.419  12.172
 9931TIP3    H253989   3.963   5.511  12.249
 9932TIP3   OH253990   4.120   3.995  12.007
 9932TIP3    H153991   4.165   3.947  11.937
 9932TIP3    H253992   4.190   4.028  12.063
 9933TIP3   OH253993   4.627   4.075  12.221
 9933TIP3    H153994   4.671   4.035  12.296
 9933TIP3    H253995   4.586   4.154  12.257
 9934TIP3   OH253996   4.831   5.554  12.060
 9934TIP3    H153997   4.926   5.562  12.054
 9934TIP3    H253998   4.807   5.504  11.981
 9935TIP3   OH253999   5.484   5.464  12.354
 9935TIP3    H154000   5.459   5.378  12.319
 9935TIP3    H254001   5.470   5.524  12.281
 9936TIP3   OH254002   4.076   5.506  11.923
 9936TIP3    H154003   4.045   5.528  12.011
 9936TIP3    H254004   4.131   5.429  11.935
 9937TIP3   OH254005   6.836   4.768  12.521
 9937TIP3    H154006   6.827   4.860  12.496
 9937TIP3    H254007   6.751   4.745  12.559
 9938TIP3   OH254008   7.045   4.984  12.835
 9938TIP3    H154009   6.984   5.011  12.767
 9938TIP3    H254010   7.085   5.065  12.866
 9939TIP3   OH254011   5.743   4.421  12.483
 9939TIP3    H154012   5.701   4.499  12.447
 9939TIP3    H254013   5.720   4.351  12.422
 9940TIP3   OH254014   5.803   4.729  12.663
 9940TIP3    H154015   5.754   4.709  12.743
 9940TIP3    H254016   5.868   4.660  12.656
 9941TIP3   OH254017   6.816   5.532  12.702
 9941TIP3    H154018   6.890   5.494  12.750
 9941TIP3    H254019   6.760   5.570  12.769
 9942TIP3   OH254020   6.983   4.388  12.945
 9942TIP3    H154021   7.037   4.319  12.982
 9942TIP3    H254022   6.912   4.342  12.900
 9943TIP3   OH254023   5.904   4.468  12.701
 9943TIP3    H154024   5.978   4.408  12.687
 9943TIP3    H254025   5.842   4.446  12.632
 9944TIP3   OH254026   6.816   5.027  12.437
 9944TIP3    H154027   6.840   5.049  12.347
 9944TIP3    H254028   6.774   5.107  12.470
 9945TIP3   OH254029   5.770   4.986  12.253
 9945TIP3    H154030   5.779   5.021  12.164
 9945TIP3    H254031   5.811   5.051  12.309
 9946TIP3   OH254032   6.466   3.773  12.801
 9946TIP3    H154033   6.533   3.788  12.868
 9946TIP3    H254034   6.384   3.801  12.843
 9947TIP3   OH254035   7.001   5.315  12.526
 9947TIP3    H154036   7.064   5.244  12.519
 9947TIP3    H254037   7.043   5.379  12.583
 9948TIP3   OH254038   7.162   5.091  12.485
 9948TIP3    H154039   7.163   5.045  12.401
 9948TIP3    H254040   7.130   5.026  12.548
 9949TIP3   OH254041   7.064   4.726  12.374
 9949TIP3    H154042   6.986   4.736  12.429
 9949TIP3    H254043   7.120   4.666  12.423
 9950TIP3   OH254044   6.338   5.080  12.786
 9950TIP3    H154045   6.303   5.125  12.709
 9950TIP3    H254046   6.384   5.004  12.750
 9951TIP3   OH254047   6.959   4.608  12.145
 9951TIP3    H154048   6.985   4.648  12.228
 9951TIP3    H254049   7.003   4.660  12.079
 9952TIP3   OH254050   6.727   5.286  12.491
 9952TIP3    H154051   6.815   5.305  12.522
 9952TIP3    H254052   6.692   5.371  12.465
 9953TIP3   OH254053   7.318   3.793  12.145
 9953TIP3    H154054   7.276   3.827  12.066
 9953TIP3    H254055   7.356   3.870  12.187
 9954TIP3   OH254056   7.459   5.233  11.986
 9954TIP3    H154057   7.475   5.327  11.998
 9954TIP3    H254058   7.546   5.193  11.992
 9955TIP3   OH254059   6.685   5.555  12.349
 9955TIP3    H154060   6.674   5.577  12.257
 9955TIP3    H254061   6.668   5.637  12.396
 9956TIP3   OH254062   6.045   5.451  12.572
 9956TIP3    H154063   6.117   5.394  12.597
 9956TIP3    H254064   5.979   5.392  12.534
 9957TIP3   OH254065   6.982   5.506  12.046
 9957TIP3    H154066   7.038   5.438  12.009
 9957TIP3    H254067   6.988   5.492  12.141
 9958TIP3   OH254068   6.951   5.490  12.319
 9958TIP3    H154069   6.859   5.505  12.341
 9958TIP3    H254070   6.982   5.430  12.387
 9959TIP3   OH254071   6.238   3.864  12.924
 9959TIP3    H154072   6.146   3.843  12.909
 9959TIP3    H254073   6.237   3.956  12.953
 9960TIP3   OH254074   7.093   4.754  11.959
 9960TIP3    H154075   7.073   4.753  11.865
 9960TIP3    H254076   7.188   4.764  11.963
 9961TIP3   OH254077   6.633   4.109  12.014
 9961TIP3    H154078   6.539   4.128  12.013
 9961TIP3    H254079   6.652   4.079  11.926
 9962TIP3   OH254080   6.363   4.149  11.926
 9962TIP3    H154081   6.311   4.125  12.003
 9962TIP3    H254082   6.309   4.213  11.880
 9963TIP3   OH254083   6.500   4.194  12.642
 9963TIP3    H154084   6.407   4.173  12.649
 9963TIP3    H254085   6.542   4.112  12.616
 9964TIP3   OH254086   6.198   4.357  12.057
 9964TIP3    H154087   6.111   4.371  12.019
 9964TIP3    H254088   6.254   4.419  12.012
 9965TIP3   OH254089   6.688   4.370  12.783
 9965TIP3    H154090   6.669   4.303  12.717
 9965TIP3    H254091   6.602   4.392  12.820
 9966TIP3   OH254092   6.913   4.125  12.059
 9966TIP3    H154093   6.820   4.147  12.064
 9966TIP3    H254094   6.956   4.193  12.111
 9967TIP3   OH254095   7.011   4.340  12.190
 9967TIP3    H154096   7.083   4.340  12.253
 9967TIP3    H254097   6.992   4.433  12.174
 9968TIP3   OH254098   6.758   5.046  12.106
 9968TIP3    H154099   6.724   5.133  12.125
 9968TIP3    H254100   6.701   4.986  12.154
 9969TIP3   OH254101   7.449   4.402  12.184
 9969TIP3    H154102   7.410   4.374  12.101
 9969TIP3    H254103   7.482   4.489  12.167
 9970TIP3   OH254104   7.306   5.270  12.222
 9970TIP3    H154105   7.243   5.199  12.238
 9970TIP3    H254106   7.346   5.248  12.138
 9971TIP3   OH254107   6.237   5.223  12.566
 9971TIP3    H154108   6.299   5.292  12.542
 9971TIP3    H254109   6.247   5.157  12.498
 9972TIP3   OH254110   5.891   4.674  11.997
 9972TIP3    H154111   5.948   4.725  12.054
 9972TIP3    H254112   5.806   4.675  12.041
 9973TIP3   OH254113   6.297   5.478  12.443
 9973TIP3    H154114   6.207   5.504  12.463
 9973TIP3    H254115   6.350   5.544  12.489
 9974TIP3   OH254116   7.086   5.077  12.027
 9974TIP3    H154117   7.115   5.028  12.104
 9974TIP3    H254118   6.994   5.054  12.018
 9975TIP3   OH254119   7.527   5.492  12.037
 9975TIP3    H154120   7.544   5.546  11.960
 9975TIP3    H254121   7.472   5.546  12.093
 9976TIP3   OH254122   7.185   4.944  12.249
 9976TIP3    H154123   7.139   4.866  12.280
 9976TIP3    H254124   7.278   4.919  12.250
 9977TIP3   OH254125   6.471   5.186  11.861
 9977TIP3    H154126   6.468   5.107  11.808
 9977TIP3    H254127   6.426   5.163  11.943
 9978TIP3   OH254128   6.341   5.121  12.101
 9978TIP3    H154129   6.364   5.054  12.165
 9978TIP3    H254130   6.359   5.204  12.145
 9979TIP3   OH254131   6.036   4.822  12.179
 9979TIP3    H154132   5.962   4.843  12.237
 9979TIP3    H254133   6.109   4.807  12.239
 9980TIP3   OH254134   6.648   5.287  12.162
 9980TIP3    H154135   6.559   5.308  12.192
 9980TIP3    H254136   6.693   5.371  12.158
 9981TIP3   OH254137   6.386   5.372  12.206
 9981TIP3    H154138   6.390   5.449  12.149
 9981TIP3    H254139   6.358   5.406  12.291
 9982TIP3   OH254140   6.201   4.107  12.155
 9982TIP3    H154141   6.194   4.198  12.126
 9982TIP3    H254142   6.129   4.097  12.219
 9983TIP3   OH254143   7.165   4.521  12.788
 9983TIP3    H154144   7.088   4.481  12.829
 9983TIP3    H254145   7.238   4.465  12.815
 9984TIP3   OH254146   6.077   5.120  11.991
 9984TIP3    H154147   6.155   5.140  12.043
 9984TIP3    H254148   6.104   5.048  11.934
 9985TIP3   OH254149   5.943   4.405  11.958
 9985TIP3    H154150   5.923   4.496  11.979
 9985TIP3    H254151   5.874   4.355  12.002
 9986TIP3   OH254152   5.873   5.273  12.458
 9986TIP3    H154153   5.833   5.321  12.386
 9986TIP3    H254154   5.936   5.215  12.416
 9987TIP3   OH254155   6.669   5.383  11.858
 9987TIP3    H154156   6.606   5.312  11.871
 9987TIP3    H254157   6.749   5.339  11.828
 9988TIP3   OH254158   7.123   5.319  11.901
 9988TIP3    H154159   7.126   5.237  11.950
 9988TIP3    H254160   7.197   5.313  11.840
 9989TIP3   OH254161   6.183   4.908  11.850
 9989TIP3    H154162   6.186   4.846  11.922
 9989TIP3    H254163   6.272   4.910  11.815
 9990TIP3   OH254164   6.809   5.034  11.837
 9990TIP3    H154165   6.780   5.040  11.928
 9990TIP3    H254166   6.801   4.941  11.815
 9991TIP3   OH254167   6.456   4.523  11.922
 9991TIP3    H154168   6.397   4.520  11.847
 9991TIP3    H254169   6.523   4.588  11.898
 9992TIP3   OH254170   7.373   4.774  11.890
 9992TIP3    H154171   7.350   4.746  11.802
 9992TIP3    H254172   7.361   4.868  11.890
 9993TIP3   OH254173   6.442   5.606  12.067
 9993TIP3    H154174   6.536   5.593  12.073
 9993TIP3    H254175   6.431   5.672  11.998
 9994TIP3   OH254176   5.806   5.085  11.997
 9994TIP3    H154177   5.901   5.099  11.999
 9994TIP3    H254178   5.794   5.015  11.932
 9995TIP3   OH254179   5.685   5.567  12.516
 9995TIP3    H154180   5.623   5.538  12.448
 9995TIP3    H254181   5.729   5.487  12.543
 9996TIP3   OH254182   7.457   4.875  12.279
 9996TIP3    H154183   7.542   4.920  12.281
 9996TIP3    H254184   7.460   4.816  12.354
 9997TIP3   OH254185   7.457   4.694  12.486
 9997TIP3    H154186   7.372   4.651  12.496
 9997TIP3    H254187   7.492   4.697  12.575
 9998TIP3   OH254188   7.376   4.953  12.997
 9998TIP3    H154189   7.450   4.904  13.035
 9998TIP3    H254190   7.367   5.030  13.054
 9999TIP3   OH254191   7.503   4.660  12.108
 9999TIP3    H154192   7.461   4.685  12.026
 9999TIP3    H254193   7.487   4.734  12.166
10000TIP3   OH254194   7.332   4.371  11.938
10000TIP3    H154195   7.333   4.440  11.872
10000TIP3    H254196   7.309   4.292  11.889
10001TIP3   OH254197   7.225   4.552  12.519
10001TIP3    H154198   7.225   4.468  12.473
10001TIP3    H254199   7.198   4.531  12.608
10002TIP3   OH254200   7.262   4.117  11.847
10002TIP3    H154201   7.301   4.090  11.930
10002TIP3    H254202   7.171   4.087  11.853
10003TIP3   OH254203   7.240   4.329  12.352
10003TIP3    H154204   7.247   4.235  12.374
10003TIP3    H254205   7.315   4.346  12.295
10004TIP3   OH254206   7.234   4.047  12.388
10004TIP3    H154207   7.266   4.006  12.468
10004TIP3    H254208   7.139   4.036  12.392
10005TIP3   OH254209   7.485   4.032  12.026
10005TIP3    H154210   7.526   3.957  11.983
10005TIP3    H254211   7.549   4.103  12.015
10006TIP3   OH254212   7.174   5.541  12.538
10006TIP3    H154213   7.256   5.518  12.494
10006TIP3    H254214   7.201   5.578  12.621
10007TIP3   OH254215   6.332   5.353  12.899
10007TIP3    H154216   6.338   5.260  12.878
10007TIP3    H254217   6.329   5.356  12.994
10008TIP3   OH254218   7.342   3.927  12.606
10008TIP3    H154219   7.392   3.846  12.600
10008TIP3    H254220   7.408   3.995  12.625
10009TIP3   OH254221   6.500   3.805  12.530
10009TIP3    H154222   6.576   3.862  12.519
10009TIP3    H254223   6.488   3.797  12.624
10010TIP3   OH254224   5.798   5.425  12.246
10010TIP3    H154225   5.723   5.408  12.189
10010TIP3    H254226   5.823   5.516  12.227
10011TIP3   OH254227   5.981   4.022  11.955
10011TIP3    H154228   6.026   3.941  11.931
10011TIP3    H254229   6.010   4.039  12.044
10012TIP3   OH254230   6.712   5.554  12.067
10012TIP3    H154231   6.807   5.559  12.066
10012TIP3    H254232   6.689   5.504  11.989
10013TIP3   OH254233   7.386   5.493  12.363
10013TIP3    H154234   7.360   5.409  12.325
10013TIP3    H254235   7.385   5.555  12.290
10014TIP3   OH254236   5.971   5.492  11.914
10014TIP3    H154237   5.945   5.492  12.007
10014TIP3    H254238   6.041   5.427  11.908
10015TIP3   OH254239   7.568   4.436  12.434
10015TIP3    H154240   7.531   4.522  12.451
10015TIP3    H254241   7.522   4.405  12.356
10016TIP3   OH254242   7.586   5.227  12.595
10016TIP3    H154243   7.624   5.143  12.567
10016TIP3    H254244   7.502   5.231  12.549
10017TIP3   OH254245   7.535   4.119  12.584
10017TIP3    H154246   7.598   4.181  12.622
10017TIP3    H254247   7.548   4.126  12.490
10018TIP3   OH254248   7.486   5.680  12.545
10018TIP3    H154249   7.448   5.628  12.474
10018TIP3    H254250   7.492   5.618  12.618
10019TIP3   OH254251   7.551   5.491  12.730
10019TIP3    H154252   7.526   5.403  12.701
10019TIP3    H254253   7.646   5.494  12.719
10020TIP3   OH254254   7.568   4.761  13.029
10020TIP3    H154255   7.522   4.677  13.035
10020TIP3    H254256   7.657   4.738  13.003
10021TIP3   OH254257   7.507   4.061  12.308
10021TIP3    H154258   7.418   4.055  12.341
10021TIP3    H254259   7.497   4.070  12.213
10022TIP3   OH254260   1.221   6.625  12.538
10022TIP3    H154261   1.214   6.716  12.566
10022TIP3    H254262   1.157   6.616  12.467
10023TIP3   OH254263   1.456   6.884  12.737
10023TIP3    H154264   1.418   6.804  12.772
10023TIP3    H254265   1.512   6.917  12.808
10024TIP3   OH254266   0.131   6.334  12.374
10024TIP3    H154267   0.159   6.403  12.435
10024TIP3    H254268   0.041   6.316  12.399
10025TIP3   OH254269   0.192   6.505  12.593
10025TIP3    H154270   0.214   6.430  12.648
10025TIP3    H254271   0.207   6.581  12.649
10026TIP3   OH254272   1.262   6.269  12.959
10026TIP3    H154273   1.229   6.179  12.954
10026TIP3    H254274   1.189   6.319  12.996
10027TIP3   OH254275   0.565   6.083  12.663
10027TIP3    H154276   0.563   6.162  12.609
10027TIP3    H254277   0.525   6.015  12.609
10028TIP3   OH254278   1.358   6.111  12.468
10028TIP3    H154279   1.397   6.074  12.547
10028TIP3    H254280   1.430   6.156  12.424
10029TIP3   OH254281   0.263   6.282  12.740
10029TIP3    H154282   0.320   6.239  12.803
10029TIP3    H254283   0.277   6.235  12.658
10030TIP3   OH254284   1.163   6.895  12.425
10030TIP3    H154285   1.149   6.911  12.331
10030TIP3    H254286   1.240   6.947  12.447
10031TIP3   OH254287   1.476   6.005  12.691
10031TIP3    H154288   1.402   6.009  12.752
10031TIP3    H254289   1.511   5.916  12.701
10032TIP3   OH254290   0.429   6.125  12.896
10032TIP3    H154291   0.461   6.060  12.960
10032TIP3    H254292   0.484   6.111  12.819
10033TIP3   OH254293   0.188   6.928  12.235
10033TIP3    H154294   0.107   6.975  12.216
10033TIP3    H254295   0.212   6.957  12.323
10034TIP3   OH254296   1.421   6.987  12.479
10034TIP3    H154297   1.466   6.923  12.422
10034TIP3    H254298   1.440   6.957  12.568
10035TIP3   OH254299   1.073   6.585  12.308
10035TIP3    H154300   1.003   6.648  12.289
10035TIP3    H254301   1.136   6.598  12.237
10036TIP3   OH254302   1.078   6.461  11.979
10036TIP3    H154303   1.143   6.500  12.039
10036TIP3    H254304   1.105   6.370  11.970
10037TIP3   OH254305   1.435   6.573  12.374
10037TIP3    H154306   1.367   6.589  12.440
10037TIP3    H254307   1.505   6.529  12.423
10038TIP3   OH254308   0.640   6.617  12.529
10038TIP3    H154309   0.593   6.607  12.446
10038TIP3    H254310   0.623   6.536  12.577
10039TIP3   OH254311   1.293   6.553  12.137
10039TIP3    H154312   1.343   6.560  12.219
10039TIP3    H254313   1.351   6.589  12.070
10040TIP3   OH254314   1.073   7.290  12.519
10040TIP3    H154315   1.019   7.217  12.548
10040TIP3    H254316   1.010   7.355  12.486
10041TIP3   OH254317   1.678   5.676  12.166
10041TIP3    H154318   1.591   5.696  12.200
10041TIP3    H254319   1.709   5.759  12.130
10042TIP3   OH254320   0.490   6.543  12.309
10042TIP3    H154321   0.417   6.588  12.267
10042TIP3    H254322   0.452   6.463  12.345
10043TIP3   OH254323   1.794   7.097  12.006
10043TIP3    H154324   1.814   7.190  12.010
10043TIP3    H254325   1.879   7.054  12.007
10044TIP3   OH254326   0.099   6.958  12.888
10044TIP3    H154327   0.141   7.008  12.959
10044TIP3    H254328   0.015   7.001  12.876
10045TIP3   OH254329   1.338   7.369  12.081
10045TIP3    H154330   1.394   7.305  12.038
10045TIP3    H254331   1.318   7.331  12.167
10046TIP3   OH254332   1.280   7.310  12.337
10046TIP3    H154333   1.204   7.297  12.393
10046TIP3    H254334   1.354   7.314  12.398
10047TIP3   OH254335   1.471   6.639  11.955
10047TIP3    H154336   1.448   6.626  11.862
10047TIP3    H254337   1.567   6.640  11.956
10048TIP3   OH254338   0.998   5.984  11.975
10048TIP3    H154339   0.954   5.978  12.059
10048TIP3    H254340   0.958   5.915  11.922
10049TIP3   OH254341   0.562   6.320  12.516
10049TIP3    H154342   0.472   6.288  12.514
10049TIP3    H254343   0.602   6.283  12.437
10050TIP3   OH254344   1.125   6.320  12.378
10050TIP3    H154345   1.105   6.410  12.355
10050TIP3    H254346   1.201   6.298  12.323
10051TIP3   OH254347   1.154   6.382  12.661
10051TIP3    H154348   1.193   6.467  12.640
10051TIP3    H254349   1.176   6.326  12.587
10052TIP3   OH254350   0.653   6.033  11.883
10052TIP3    H154351   0.628   6.013  11.973
10052TIP3    H254352   0.596   6.105  11.858
10053TIP3   OH254353   0.040   5.965  12.612
10053TIP3    H154354   0.104   5.981  12.681
10053TIP3    H254355   0.092   5.955  12.532
10054TIP3   OH254356   0.119   6.137  12.173
10054TIP3    H154357   0.156   6.172  12.092
10054TIP3    H254358   0.117   6.212  12.232
10055TIP3   OH254359   0.845   6.096  12.678
10055TIP3    H154360   0.751   6.077  12.675
10055TIP3    H254361   0.880   6.032  12.740
10056TIP3   OH254362   0.329   6.177  12.492
10056TIP3    H154363   0.258   6.202  12.433
10056TIP3    H254364   0.353   6.088  12.466
10057TIP3   OH254365   0.650   6.201  12.285
10057TIP3    H154366   0.745   6.194  12.299
10057TIP3    H254367   0.642   6.244  12.200
10058TIP3   OH254368   0.599   6.312  12.035
10058TIP3    H154369   0.532   6.303  11.967
10058TIP3    H254370   0.672   6.357  11.992
10059TIP3   OH254371   0.446   5.927  12.462
10059TIP3    H154372   0.390   5.851  12.478
10059TIP3    H254373   0.517   5.893  12.407
10060TIP3   OH254374   0.869   6.767  12.240
10060TIP3    H154375   0.799   6.719  12.196
10060TIP3    H254376   0.826   6.808  12.315
10061TIP3   OH254377   1.255   6.045  12.057
10061TIP3    H154378   1.163   6.046  12.030
10061TIP3    H254379   1.271   6.132  12.093
10062TIP3   OH254380   1.337   6.275  12.190
10062TIP3    H154381   1.425   6.253  12.221
10062TIP3    H254382   1.346   6.360  12.148
10063TIP3   OH254383   1.065   6.924  12.130
10063TIP3    H154384   1.039   7.012  12.157
10063TIP3    H254385   0.996   6.867  12.166
10064TIP3   OH254386   1.823   6.277  12.184
10064TIP3    H154387   1.821   6.233  12.099
10064TIP3    H254388   1.834   6.369  12.163
10065TIP3   OH254389   1.620   7.129  12.234
10065TIP3    H154390   1.565   7.058  12.267
10065TIP3    H254391   1.665   7.093  12.158
10066TIP3   OH254392   1.402   6.635  12.879
10066TIP3    H154393   1.315   6.668  12.902
10066TIP3    H254394   1.453   6.645  12.959
10067TIP3   OH254395   0.172   6.547  11.989
10067TIP3    H154396   0.225   6.589  12.057
10067TIP3    H254397   0.083   6.546  12.026
10068TIP3   OH254398   0.722   6.874  12.450
10068TIP3    H154399   0.730   6.937  12.521
10068TIP3    H254400   0.696   6.792  12.493
10069TIP3   OH254401   1.434   6.948  12.020
10069TIP3    H154402   1.453   6.900  12.101
10069TIP3    H254403   1.347   6.917  11.994
10070TIP3   OH254404   1.869   7.360  12.036
10070TIP3    H154405   1.939   7.424  12.041
10070TIP3    H254406   1.789   7.413  12.039
10071TIP3   OH254407   1.518   6.819  12.260
10071TIP3    H154408   1.478   6.738  12.292
10071TIP3    H254409   1.611   6.799  12.253
10072TIP3   OH254410   0.819   7.048  11.848
10072TIP3    H154411   0.815   6.990  11.773
10072TIP3    H254412   0.782   6.997  11.920
10073TIP3   OH254413   0.326   6.705  12.153
10073TIP3    H154414   0.275   6.776  12.191
10073TIP3    H254415   0.398   6.748  12.108
10074TIP3   OH254416   1.239   5.925  12.307
10074TIP3    H154417   1.244   5.963  12.219
10074TIP3    H254418   1.270   5.995  12.365
10075TIP3   OH254419   0.987   7.176  12.215
10075TIP3    H154420   0.969   7.208  12.303
10075TIP3    H254421   1.010   7.254  12.165
10076TIP3   OH254422   0.908   6.151  12.393
10076TIP3    H154423   0.986   6.206  12.392
10076TIP3    H254424   0.896   6.128  12.485
10077TIP3   OH254425   1.013   5.817  12.424
10077TIP3    H154426   1.011   5.854  12.512
10077TIP3    H254427   1.094   5.851  12.385
10078TIP3   OH254428   0.591   5.963  12.143
10078TIP3    H154429   0.586   6.039  12.201
10078TIP3    H254430   0.677   5.925  12.161
10079TIP3   OH254431   1.438   6.384  12.770
10079TIP3    H154432   1.425   6.475  12.795
10079TIP3    H254433   1.366   6.336  12.812
10080TIP3   OH254434   0.212   6.273  11.953
10080TIP3    H154435   0.212   6.364  11.982
10080TIP3    H254436   0.158   6.273  11.874
10081TIP3   OH254437   0.255   5.734  12.770
10081TIP3    H154438   0.281   5.724  12.679
10081TIP3    H254439   0.263   5.647  12.807
10082TIP3   OH254440   0.232   7.092  12.446
10082TIP3    H154441   0.207   7.131  12.531
10082TIP3    H254442   0.193   7.150  12.381
10083TIP3   OH254443   1.022   7.235  11.854
10083TIP3    H154444   0.954   7.169  11.864
10083TIP3    H254445   1.101   7.186  11.829
10084TIP3   OH254446   1.472   7.199  11.913
10084TIP3    H154447   1.478   7.114  11.957
10084TIP3    H254448   1.545   7.198  11.851
10085TIP3   OH254449   0.586   6.797  11.916
10085TIP3    H154450   0.612   6.739  11.987
10085TIP3    H254451   0.658   6.792  11.853
10086TIP3   OH254452   1.166   6.910  11.875
10086TIP3    H154453   1.121   6.909  11.959
10086TIP3    H254454   1.152   6.822  11.839
10087TIP3   OH254455   0.667   6.627  12.112
10087TIP3    H154456   0.616   6.578  12.177
10087TIP3    H254457   0.708   6.559  12.059
10088TIP3   OH254458   0.801   6.465  11.928
10088TIP3    H154459   0.798   6.482  11.834
10088TIP3    H254460   0.894   6.466  11.950
10089TIP3   OH254461   1.745   6.663  11.874
10089TIP3    H154462   1.723   6.628  11.787
10089TIP3    H254463   1.720   6.756  11.870
10090TIP3   OH254464   0.781   7.461  12.031
10090TIP3    H154465   0.871   7.450  12.063
10090TIP3    H254466   0.769   7.556  12.027
10091TIP3   OH254467   0.185   7.011  11.961
10091TIP3    H154468   0.206   6.982  12.050
10091TIP3    H254469   0.179   6.930  11.910
10092TIP3   OH254470   0.035   7.459  12.373
10092TIP3    H154471  -0.050   7.489  12.405
10092TIP3    H254472   0.098   7.492  12.437
10093TIP3   OH254473   0.139   7.273  12.629
10093TIP3    H154474   0.044   7.286  12.640
10093TIP3    H254475   0.174   7.362  12.625
10094TIP3   OH254476   1.780   6.734  12.265
10094TIP3    H154477   1.859   6.787  12.267
10094TIP3    H254478   1.788   6.675  12.340
10095TIP3   OH254479   1.811   6.549  12.464
10095TIP3    H154480   1.740   6.497  12.503
10095TIP3    H254481   1.869   6.569  12.537
10096TIP3   OH254482   1.860   6.537  12.090
10096TIP3    H154483   1.819   6.564  12.008
10096TIP3    H254484   1.831   6.602  12.153
10097TIP3   OH254485   1.590   6.275  11.948
10097TIP3    H154486   1.682   6.297  11.929
10097TIP3    H254487   1.580   6.185  11.918
10098TIP3   OH254488   1.620   6.374  12.563
10098TIP3    H154489   1.594   6.311  12.495
10098TIP3    H254490   1.546   6.374  12.625
10099TIP3   OH254491   1.581   6.015  11.860
10099TIP3    H154492   1.621   5.963  11.930
10099TIP3    H254493   1.498   5.971  11.842
10100TIP3   OH254494   1.588   6.203  12.336
10100TIP3    H154495   1.604   6.109  12.344
10100TIP3    H254496   1.659   6.235  12.281
10101TIP3   OH254497   1.626   5.930  12.367
10101TIP3    H154498   1.662   5.887  12.445
10101TIP3    H254499   1.556   5.871  12.338
10102TIP3   OH254500   0.188   5.983  12.851
10102TIP3    H154501   0.215   5.894  12.832
10102TIP3    H254502   0.270   6.028  12.876
10103TIP3   OH254503   0.084   6.356  12.954
10103TIP3    H154504   0.134   6.279  12.926
10103TIP3    H254505   0.098   6.420  12.885
10104TIP3   OH254506   1.788   5.897  12.025
10104TIP3    H154507   1.830   5.833  11.968
10104TIP3    H254508   1.826   5.981  11.998
10105TIP3   OH254509   0.112   5.912  12.326
10105TIP3    H154510   0.018   5.906  12.339
10105TIP3    H254511   0.124   5.986  12.267
10106TIP3   OH254512   1.497   7.414  12.488
10106TIP3    H154513   1.574   7.381  12.443
10106TIP3    H254514   1.524   7.425  12.579
10107TIP3   OH254515   1.562   5.744  12.743
10107TIP3    H154516   1.640   5.756  12.690
10107TIP3    H254517   1.535   5.654  12.726
10108TIP3   OH254518   1.763   5.792  12.572
10108TIP3    H154519   1.821   5.719  12.549
10108TIP3    H254520   1.822   5.864  12.595
10109TIP3   OH254521   0.316   5.689  12.501
10109TIP3    H154522   0.230   5.678  12.460
10109TIP3    H254523   0.354   5.601  12.504
10110TIP3   OH254524   0.202   5.698  12.153
10110TIP3    H154525   0.240   5.763  12.095
10110TIP3    H254526   0.166   5.749  12.226
10111TIP3   OH254527   0.756   5.677  12.572
10111TIP3    H154528   0.850   5.685  12.558
10111TIP3    H254529   0.743   5.709  12.661
10112TIP3   OH254530   1.438   5.733  12.296
10112TIP3    H154531   1.363   5.793  12.299
10112TIP3    H254532   1.399   5.646  12.304
10113TIP3   OH254533   0.129   7.242  12.241
10113TIP3    H154534   0.084   7.253  12.157
10113TIP3    H254535   0.104   7.318  12.292
10114TIP3   OH254536   0.356   5.878  11.995
10114TIP3    H154537   0.404   5.816  11.939
10114TIP3    H254538   0.419   5.905  12.061
10115TIP3   OH254539   0.868   5.945  12.215
10115TIP3    H154540   0.899   5.870  12.266
10115TIP3    H254541   0.882   6.020  12.272
10116TIP3   OH254542   1.054   7.403  12.066
10116TIP3    H154543   1.149   7.412  12.076
10116TIP3    H254544   1.043   7.355  11.984
10117TIP3   OH254545   1.718   7.363  12.331
10117TIP3    H154546   1.694   7.274  12.307
10117TIP3    H254547   1.709   7.413  12.251
10118TIP3   OH254548   0.307   7.387  11.865
10118TIP3    H154549   0.277   7.425  11.947
10118TIP3    H254550   0.387   7.339  11.888
10119TIP3   OH254551   3.094   6.639  12.534
10119TIP3    H154552   3.089   6.735  12.538
10119TIP3    H254553   3.025   6.614  12.472
10120TIP3   OH254554   3.316   6.871  12.729
10120TIP3    H154555   3.301   6.791  12.779
10120TIP3    H254556   3.342   6.936  12.794
10121TIP3   OH254557   1.948   6.298  12.434
10121TIP3    H154558   1.929   6.390  12.449
10121TIP3    H254559   1.903   6.276  12.353
10122TIP3   OH254560   1.985   6.557  12.673
10122TIP3    H154561   2.049   6.495  12.707
10122TIP3    H254562   2.011   6.641  12.709
10123TIP3   OH254563   3.037   7.285  12.742
10123TIP3    H154564   3.112   7.280  12.683
10123TIP3    H254565   3.076   7.295  12.829
10124TIP3   OH254566   3.148   6.265  12.998
10124TIP3    H154567   3.067   6.224  13.029
10124TIP3    H254568   3.135   6.275  12.903
10125TIP3   OH254569   2.487   6.032  12.665
10125TIP3    H154570   2.480   6.122  12.635
10125TIP3    H254571   2.435   5.981  12.603
10126TIP3   OH254572   3.226   6.065  12.513
10126TIP3    H154573   3.266   6.034  12.595
10126TIP3    H254574   3.288   6.130  12.480
10127TIP3   OH254575   2.088   6.295  12.749
10127TIP3    H154576   2.146   6.261  12.817
10127TIP3    H254577   2.129   6.269  12.666
10128TIP3   OH254578   2.582   6.446  12.690
10128TIP3    H154579   2.611   6.410  12.773
10128TIP3    H254580   2.538   6.373  12.646
10129TIP3   OH254581   3.029   6.893  12.414
10129TIP3    H154582   3.021   6.912  12.321
10129TIP3    H254583   2.994   6.971  12.457
10130TIP3   OH254584   3.393   6.009  12.732
10130TIP3    H154585   3.472   5.959  12.712
10130TIP3    H254586   3.420   6.073  12.797
10131TIP3   OH254587   2.280   6.142  12.878
10131TIP3    H154588   2.276   6.119  12.971
10131TIP3    H254589   2.369   6.117  12.852
10132TIP3   OH254590   2.017   6.871  12.256
10132TIP3    H154591   2.015   6.923  12.177
10132TIP3    H254592   2.042   6.932  12.325
10133TIP3   OH254593   3.220   7.216  12.551
10133TIP3    H154594   3.270   7.135  12.534
10133TIP3    H254595   3.286   7.285  12.546
10134TIP3   OH254596   3.356   6.985  12.478
10134TIP3    H154597   3.333   6.918  12.414
10134TIP3    H254598   3.347   6.941  12.563
10135TIP3   OH254599   2.949   6.569  12.306
10135TIP3    H154600   2.885   6.638  12.288
10135TIP3    H254601   3.023   6.590  12.248
10136TIP3   OH254602   2.981   6.458  11.977
10136TIP3    H154603   3.037   6.500  12.041
10136TIP3    H254604   2.982   6.365  12.001
10137TIP3   OH254605   3.319   6.582  12.388
10137TIP3    H154606   3.253   6.601  12.455
10137TIP3    H254607   3.384   6.529  12.433
10138TIP3   OH254608   2.468   6.652  12.548
10138TIP3    H154609   2.438   6.600  12.473
10138TIP3    H254610   2.509   6.588  12.607
10139TIP3   OH254611   3.185   6.543  12.153
10139TIP3    H154612   3.233   6.564  12.233
10139TIP3    H254613   3.238   6.579  12.082
10140TIP3   OH254614   2.938   7.142  12.507
10140TIP3    H154615   3.017   7.173  12.552
10140TIP3    H254616   2.900   7.220  12.468
10141TIP3   OH254617   3.563   5.678  12.156
10141TIP3    H154618   3.477   5.703  12.190
10141TIP3    H254619   3.600   5.759  12.123
10142TIP3   OH254620   2.380   6.535  12.302
10142TIP3    H154621   2.328   6.608  12.269
10142TIP3    H254622   2.328   6.457  12.280
10143TIP3   OH254623   3.686   7.105  11.979
10143TIP3    H154624   3.699   7.198  11.995
10143TIP3    H254625   3.773   7.067  11.985
10144TIP3   OH254626   1.961   7.111  12.849
10144TIP3    H154627   2.046   7.136  12.886
10144TIP3    H254628   1.900   7.119  12.922
10145TIP3   OH254629   2.894   7.459  12.347
10145TIP3    H154630   2.886   7.485  12.256
10145TIP3    H254631   2.861   7.534  12.397
10146TIP3   OH254632   2.300   7.332  12.548
10146TIP3    H154633   2.339   7.385  12.617
10146TIP3    H254634   2.229   7.284  12.592
10147TIP3   OH254635   3.193   7.355  12.063
10147TIP3    H154636   3.261   7.298  12.028
10147TIP3    H254637   3.179   7.325  12.152
10148TIP3   OH254638   3.121   7.317  12.317
10148TIP3    H154639   3.049   7.371  12.349
10148TIP3    H254640   3.160   7.280  12.396
10149TIP3   OH254641   3.336   6.617  11.942
10149TIP3    H154642   3.322   6.626  11.848
10149TIP3    H254643   3.428   6.641  11.955
10150TIP3   OH254644   2.885   5.980  11.991
10150TIP3    H154645   2.838   5.977  12.074
10150TIP3    H254646   2.852   5.905  11.942
10151TIP3   OH254647   2.441   6.265  12.533
10151TIP3    H154648   2.346   6.250  12.526
10151TIP3    H254649   2.473   6.255  12.443
10152TIP3   OH254650   3.011   6.317  12.403
10152TIP3    H154651   2.984   6.406  12.379
10152TIP3    H254652   3.083   6.297  12.342
10153TIP3   OH254653   3.118   6.323  12.708
10153TIP3    H154654   3.089   6.405  12.666
10153TIP3    H254655   3.094   6.255  12.646
10154TIP3   OH254656   2.527   6.013  11.889
10154TIP3    H154657   2.496   6.003  11.979
10154TIP3    H254658   2.472   6.083  11.852
10155TIP3   OH254659   1.933   6.017  12.617
10155TIP3    H154660   2.001   6.084  12.621
10155TIP3    H254661   1.928   5.992  12.525
10156TIP3   OH254662   2.048   6.084  12.185
10156TIP3    H154663   2.094   6.074  12.101
10156TIP3    H254664   1.986   6.156  12.169
10157TIP3   OH254665   2.768   5.993  12.649
10157TIP3    H154666   2.674   6.009  12.664
10157TIP3    H254667   2.804   5.980  12.737
10158TIP3   OH254668   2.176   6.168  12.515
10158TIP3    H154669   2.104   6.208  12.466
10158TIP3    H254670   2.195   6.087  12.468
10159TIP3   OH254671   2.535   6.205  12.280
10159TIP3    H154672   2.628   6.211  12.303
10159TIP3    H254673   2.526   6.257  12.200
10160TIP3   OH254674   2.486   6.320  12.038
10160TIP3    H154675   2.413   6.301  11.979
10160TIP3    H254676   2.551   6.364  11.983
10161TIP3   OH254677   2.351   5.897  12.462
10161TIP3    H154678   2.397   5.814  12.469
10161TIP3    H254679   2.357   5.920  12.369
10162TIP3   OH254680   2.768   6.768  12.229
10162TIP3    H154681   2.693   6.728  12.185
10162TIP3    H254682   2.732   6.799  12.313
10163TIP3   OH254683   3.149   6.053  12.044
10163TIP3    H154684   3.054   6.042  12.037
10163TIP3    H254685   3.160   6.130  12.100
10164TIP3   OH254686   3.210   6.267  12.206
10164TIP3    H154687   3.293   6.245  12.247
10164TIP3    H254688   3.218   6.360  12.185
10165TIP3   OH254689   2.967   6.916  12.112
10165TIP3    H154690   2.940   7.006  12.131
10165TIP3    H254691   2.898   6.861  12.149
10166TIP3   OH254692   3.660   6.283  12.183
10166TIP3    H154693   3.620   6.269  12.097
10166TIP3    H254694   3.700   6.370  12.177
10167TIP3   OH254695   3.519   7.113  12.236
10167TIP3    H154696   3.474   7.050  12.293
10167TIP3    H254697   3.553   7.060  12.164
10168TIP3   OH254698   3.300   6.642  12.893
10168TIP3    H154699   3.314   6.613  12.984
10168TIP3    H254700   3.344   6.575  12.840
10169TIP3   OH254701   2.544   7.086  12.560
10169TIP3    H154702   2.566   7.167  12.513
10169TIP3    H254703   2.449   7.085  12.564
10170TIP3   OH254704   2.127   6.536  12.008
10170TIP3    H154705   2.172   6.604  12.058
10170TIP3    H254706   2.038   6.536  12.042
10171TIP3   OH254707   2.630   6.848  12.447
10171TIP3    H154708   2.612   6.930  12.493
10171TIP3    H254709   2.575   6.783  12.490
10172TIP3   OH254710   2.540   7.329  12.420
10172TIP3    H154711   2.449   7.325  12.448
10172TIP3    H254712   2.571   7.413  12.453
10173TIP3   OH254713   3.310   6.948  12.028
10173TIP3    H154714   3.334   6.901  12.108
10173TIP3    H254715   3.215   6.937  12.022
10174TIP3   OH254716   3.739   7.374  12.035
10174TIP3    H154717   3.786   7.457  12.042
10174TIP3    H254718   3.647   7.400  12.033
10175TIP3   OH254719   3.399   6.805  12.248
10175TIP3    H154720   3.365   6.731  12.298
10175TIP3    H254721   3.494   6.793  12.249
10176TIP3   OH254722   2.699   7.049  11.854
10176TIP3    H154723   2.703   6.965  11.810
10176TIP3    H254724   2.659   7.030  11.939
10177TIP3   OH254725   2.578   7.019  12.102
10177TIP3    H154726   2.620   6.968  12.172
10177TIP3    H254727   2.592   7.110  12.128
10178TIP3   OH254728   2.237   6.731  12.171
10178TIP3    H154729   2.163   6.770  12.217
10178TIP3    H254730   2.283   6.805  12.132
10179TIP3   OH254731   3.112   5.917  12.312
10179TIP3    H154732   3.136   5.964  12.232
10179TIP3    H254733   3.147   5.971  12.383
10180TIP3   OH254734   2.879   7.164  12.177
10180TIP3    H154735   2.794   7.208  12.174
10180TIP3    H254736   2.939   7.229  12.212
10181TIP3   OH254737   2.793   6.151  12.397
10181TIP3    H154738   2.868   6.210  12.402
10181TIP3    H254739   2.785   6.115  12.485
10182TIP3   OH254740   2.873   5.824  12.432
10182TIP3    H154741   2.858   5.879  12.509
10182TIP3    H254742   2.957   5.852  12.398
10183TIP3   OH254743   2.626   7.282  12.166
10183TIP3    H154744   2.624   7.367  12.122
10183TIP3    H254745   2.597   7.299  12.255
10184TIP3   OH254746   2.460   5.968  12.156
10184TIP3    H154747   2.466   6.054  12.197
10184TIP3    H254748   2.547   5.929  12.171
10185TIP3   OH254749   3.380   6.397  12.756
10185TIP3    H154750   3.287   6.375  12.752
10185TIP3    H254751   3.416   6.335  12.819
10186TIP3   OH254752   2.310   6.966  12.020
10186TIP3    H154753   2.383   7.013  12.061
10186TIP3    H254754   2.352   6.909  11.956
10187TIP3   OH254755   2.186   6.271  11.969
10187TIP3    H154756   2.177   6.363  11.993
10187TIP3    H254757   2.097   6.243  11.949
10188TIP3   OH254758   2.080   7.069  12.431
10188TIP3    H154759   2.044   7.096  12.515
10188TIP3    H254760   2.070   7.145  12.374
10189TIP3   OH254761   2.894   7.252  11.858
10189TIP3    H154762   2.834   7.178  11.871
10189TIP3    H254763   2.978   7.211  11.838
10190TIP3   OH254764   3.351   7.197  11.905
10190TIP3    H154765   3.365   7.116  11.956
10190TIP3    H254766   3.429   7.205  11.851
10191TIP3   OH254767   2.446   6.777  11.877
10191TIP3    H154768   2.476   6.732  11.957
10191TIP3    H254769   2.525   6.786  11.824
10192TIP3   OH254770   3.034   6.906  11.846
10192TIP3    H154771   3.000   6.907  11.936
10192TIP3    H254772   3.022   6.816  11.816
10193TIP3   OH254773   2.557   6.637  12.103
10193TIP3    H154774   2.507   6.594  12.173
10193TIP3    H254775   2.597   6.565  12.054
10194TIP3   OH254776   2.695   6.467  11.925
10194TIP3    H154777   2.685   6.494  11.834
10194TIP3    H254778   2.788   6.480  11.944
10195TIP3   OH254779   3.618   6.655  11.886
10195TIP3    H154780   3.601   6.628  11.796
10195TIP3    H254781   3.598   6.749  11.887
10196TIP3   OH254782   2.665   7.539  12.051
10196TIP3    H154783   2.758   7.518  12.053
10196TIP3    H254784   2.660   7.623  12.005
10197TIP3   OH254785   2.038   6.969  11.992
10197TIP3    H154786   2.132   6.976  12.006
10197TIP3    H254787   2.029   6.898  11.928
10198TIP3   OH254788   1.891   7.491  12.507
10198TIP3    H154789   1.834   7.446  12.444
10198TIP3    H254790   1.900   7.430  12.580
10199TIP3   OH254791   3.667   6.746  12.270
10199TIP3    H154792   3.745   6.801  12.270
10199TIP3    H254793   3.678   6.688  12.346
10200TIP3   OH254794   3.711   6.558  12.462
10200TIP3    H154795   3.631   6.510  12.484
10200TIP3    H254796   3.756   6.569  12.545
10201TIP3   OH254797   3.694   6.814  13.011
10201TIP3    H154798   3.772   6.759  13.000
10201TIP3    H254799   3.729   6.900  13.037
10202TIP3   OH254800   3.744   6.540  12.101
10202TIP3    H154801   3.697   6.567  12.022
10202TIP3    H254802   3.718   6.606  12.167
10203TIP3   OH254803   3.550   6.256  11.933
10203TIP3    H154804   3.539   6.313  11.857
10203TIP3    H254805   3.535   6.167  11.899
10204TIP3   OH254806   3.492   6.404  12.510
10204TIP3    H154807   3.475   6.317  12.474
10204TIP3    H254808   3.461   6.400  12.600
10205TIP3   OH254809   3.498   6.001  11.835
10205TIP3    H154810   3.537   5.957  11.911
10205TIP3    H254811   3.409   5.965  11.830
10206TIP3   OH254812   3.447   6.183  12.338
10206TIP3    H154813   3.470   6.091  12.351
10206TIP3    H254814   3.519   6.219  12.287
10207TIP3   OH254815   3.484   6.199  12.923
10207TIP3    H154816   3.579   6.210  12.926
10207TIP3    H254817   3.452   6.249  12.997
10208TIP3   OH254818   3.520   5.919  12.375
10208TIP3    H154819   3.550   5.877  12.456
10208TIP3    H254820   3.454   5.858  12.341
10209TIP3   OH254821   3.671   5.896  12.027
10209TIP3    H154822   3.716   5.837  11.967
10209TIP3    H254823   3.739   5.957  12.057
10210TIP3   OH254824   1.914   5.930  12.359
10210TIP3    H154825   1.825   5.927  12.326
10210TIP3    H254826   1.963   5.979  12.293
10211TIP3   OH254827   3.391   7.422  12.489
10211TIP3    H154828   3.472   7.401  12.442
10211TIP3    H254829   3.420   7.443  12.578
10212TIP3   OH254830   3.618   5.782  12.594
10212TIP3    H154831   3.677   5.713  12.565
10212TIP3    H254832   3.676   5.853  12.622
10213TIP3   OH254833   2.073   5.695  12.120
10213TIP3    H154834   2.121   5.762  12.071
10213TIP3    H254835   2.015   5.744  12.177
10214TIP3   OH254836   2.610   5.718  12.518
10214TIP3    H154837   2.691   5.750  12.479
10214TIP3    H254838   2.617   5.739  12.611
10215TIP3   OH254839   3.326   5.739  12.283
10215TIP3    H154840   3.247   5.792  12.292
10215TIP3    H254841   3.296   5.649  12.300
10216TIP3   OH254842   2.033   7.267  12.251
10216TIP3    H154843   1.959   7.276  12.191
10216TIP3    H254844   2.093   7.337  12.225
10217TIP3   OH254845   2.232   5.882  11.993
10217TIP3    H154846   2.281   5.837  11.924
10217TIP3    H254847   2.299   5.918  12.051
10218TIP3   OH254848   2.739   5.949  12.220
10218TIP3    H154849   2.774   5.878  12.274
10218TIP3    H254850   2.750   6.028  12.274
10219TIP3   OH254851   2.926   7.449  12.053
10219TIP3    H154852   3.021   7.443  12.062
10219TIP3    H254853   2.904   7.384  11.987
10220TIP3   OH254854   3.590   7.362  12.311
10220TIP3    H154855   3.568   7.272  12.290
10220TIP3    H254856   3.564   7.413  12.235
10221TIP3   OH254857   2.222   7.387  11.913
10221TIP3    H154858   2.195   7.420  11.998
10221TIP3    H254859   2.303   7.337  11.930
10222TIP3   OH254860   4.925   6.630  12.531
10222TIP3    H154861   4.976   6.709  12.550
10222TIP3    H254862   4.834   6.657  12.545
10223TIP3   OH254863   4.214   6.934  12.864
10223TIP3    H154864   4.184   6.850  12.830
10223TIP3    H254865   4.310   6.929  12.858
10224TIP3   OH254866   3.853   6.312  12.424
10224TIP3    H154867   3.824   6.403  12.435
10224TIP3    H254868   3.774   6.265  12.397
10225TIP3   OH254869   3.881   6.547  12.675
10225TIP3    H154870   3.916   6.461  12.700
10225TIP3    H254871   3.959   6.600  12.657
10226TIP3   OH254872   4.382   6.053  12.681
10226TIP3    H154873   4.360   6.134  12.635
10226TIP3    H254874   4.306   5.996  12.667
10227TIP3   OH254875   5.129   6.074  12.496
10227TIP3    H154876   5.175   6.051  12.577
10227TIP3    H254877   5.192   6.127  12.447
10228TIP3   OH254878   3.999   6.309  12.756
10228TIP3    H154879   3.987   6.228  12.806
10228TIP3    H254880   4.033   6.279  12.671
10229TIP3   OH254881   4.416   6.423  12.734
10229TIP3    H154882   4.500   6.389  12.766
10229TIP3    H254883   4.393   6.366  12.661
10230TIP3   OH254884   4.923   6.930  12.455
10230TIP3    H154885   4.830   6.911  12.467
10230TIP3    H254886   4.926   7.023  12.435
10231TIP3   OH254887   5.275   6.028  12.729
10231TIP3    H154888   5.339   5.960  12.751
10231TIP3    H254889   5.308   6.107  12.772
10232TIP3   OH254890   3.903   6.887  12.253
10232TIP3    H154891   3.899   6.933  12.169
10232TIP3    H254892   3.920   6.956  12.318
10233TIP3   OH254893   4.563   5.691  12.812
10233TIP3    H154894   4.563   5.606  12.856
10233TIP3    H254895   4.482   5.733  12.840
10234TIP3   OH254896   5.112   7.178  12.678
10234TIP3    H154897   5.095   7.119  12.605
10234TIP3    H254898   5.157   7.253  12.640
10235TIP3   OH254899   4.849   6.422  11.972
10235TIP3    H154900   4.858   6.398  12.064
10235TIP3    H254901   4.917   6.371  11.927
10236TIP3   OH254902   4.329   6.639  12.581
10236TIP3    H154903   4.319   6.602  12.493
10236TIP3    H254904   4.374   6.570  12.631
10237TIP3   OH254905   4.744   7.231  12.689
10237TIP3    H154906   4.827   7.189  12.712
10237TIP3    H254907   4.747   7.240  12.594
10238TIP3   OH254908   5.440   5.665  12.164
10238TIP3    H154909   5.355   5.688  12.202
10238TIP3    H254910   5.473   5.747  12.128
10239TIP3   OH254911   4.264   6.543  12.309
10239TIP3    H154912   4.213   6.615  12.271
10239TIP3    H254913   4.210   6.465  12.294
10240TIP3   OH254914   5.564   7.097  11.999
10240TIP3    H154915   5.591   7.188  11.993
10240TIP3    H254916   5.645   7.047  11.997
10241TIP3   OH254917   4.695   7.477  12.279
10241TIP3    H154918   4.755   7.409  12.311
10241TIP3    H254919   4.678   7.533  12.355
10242TIP3   OH254920   4.200   7.286  12.521
10242TIP3    H154921   4.182   7.267  12.613
10242TIP3    H254922   4.117   7.271  12.476
10243TIP3   OH254923   5.112   7.349  12.054
10243TIP3    H154924   5.153   7.269  12.023
10243TIP3    H254925   5.113   7.342  12.149
10244TIP3   OH254926   5.128   7.354  12.327
10244TIP3    H154927   5.042   7.319  12.348
10244TIP3    H254928   5.175   7.354  12.411
10245TIP3   OH254929   4.307   5.777  12.883
10245TIP3    H154930   4.236   5.723  12.849
10245TIP3    H254931   4.263   5.852  12.924
10246TIP3   OH254932   4.764   5.977  11.980
10246TIP3    H154933   4.711   5.972  12.060
10246TIP3    H254934   4.725   5.912  11.922
10247TIP3   OH254935   4.347   6.272  12.518
10247TIP3    H154936   4.252   6.259  12.515
10247TIP3    H254937   4.377   6.253  12.429
10248TIP3   OH254938   4.883   6.358  12.380
10248TIP3    H154939   4.897   6.442  12.424
10248TIP3    H254940   4.966   6.340  12.336
10249TIP3   OH254941   4.426   6.024  11.884
10249TIP3    H154942   4.391   6.005  11.971
10249TIP3    H254943   4.371   6.095  11.851
10250TIP3   OH254944   3.802   5.981  12.626
10250TIP3    H154945   3.865   6.001  12.695
10250TIP3    H254946   3.855   5.959  12.550
10251TIP3   OH254947   3.850   6.087  12.124
10251TIP3    H154948   3.917   6.130  12.071
10251TIP3    H254949   3.793   6.157  12.153
10252TIP3   OH254950   4.639   6.000  12.610
10252TIP3    H154951   4.549   6.031  12.616
10252TIP3    H254952   4.650   5.944  12.688
10253TIP3   OH254953   4.087   6.202  12.517
10253TIP3    H154954   4.005   6.226  12.472
10253TIP3    H254955   4.101   6.110  12.493
10254TIP3   OH254956   4.421   6.202  12.262
10254TIP3    H154957   4.517   6.203  12.267
10254TIP3    H254958   4.400   6.247  12.180
10255TIP3   OH254959   4.355   6.313  12.019
10255TIP3    H154960   4.304   6.291  11.941
10255TIP3    H254961   4.430   6.363  11.986
10256TIP3   OH254962   4.669   6.327  12.813
10256TIP3    H154963   4.735   6.369  12.757
10256TIP3    H254964   4.700   6.342  12.902
10257TIP3   OH254965   4.176   5.943  12.472
10257TIP3    H154966   4.125   5.866  12.495
10257TIP3    H254967   4.238   5.913  12.406
10258TIP3   OH254968   4.656   6.752  12.268
10258TIP3    H154969   4.584   6.711  12.220
10258TIP3    H254970   4.618   6.773  12.353
10259TIP3   OH254971   5.012   6.035  12.072
10259TIP3    H154972   4.924   6.026  12.037
10259TIP3    H254973   5.017   6.126  12.101
10260TIP3   OH254974   5.105   6.281  12.176
10260TIP3    H154975   5.170   6.246  12.236
10260TIP3    H254976   5.151   6.288  12.092
10261TIP3   OH254977   4.146   6.659  12.784
10261TIP3    H154978   4.207   6.682  12.713
10261TIP3    H254979   4.154   6.563  12.791
10262TIP3   OH254980   4.842   6.881  12.119
10262TIP3    H154981   4.812   6.972  12.126
10262TIP3    H254982   4.782   6.832  12.175
10263TIP3   OH254983   5.567   6.276  12.179
10263TIP3    H154984   5.515   6.273  12.099
10263TIP3    H254985   5.595   6.367  12.187
10264TIP3   OH254986   5.403   7.144  12.219
10264TIP3    H154987   5.427   7.093  12.297
10264TIP3    H254988   5.465   7.114  12.152
10265TIP3   OH254989   4.403   7.050  12.553
10265TIP3    H154990   4.452   7.130  12.534
10265TIP3    H254991   4.311   7.078  12.554
10266TIP3   OH254992   4.007   6.547  12.011
10266TIP3    H154993   4.055   6.612  12.061
10266TIP3    H254994   3.920   6.544  12.051
10267TIP3   OH254995   4.539   6.817  12.505
10267TIP3    H154996   4.507   6.905  12.524
10267TIP3    H254997   4.479   6.759  12.552
10268TIP3   OH254998   4.473   7.307  12.469
10268TIP3    H154999   4.385   7.316  12.506
10268TIP3    H255000   4.519   7.385  12.498
10269TIP3   OH255001   5.649   7.353  12.014
10269TIP3    H155002   5.718   7.419  12.008
10269TIP3    H255003   5.567   7.403  12.012
10270TIP3   OH255004   4.571   7.050  11.849
10270TIP3    H155005   4.579   6.963  11.811
10270TIP3    H255006   4.530   7.035  11.934
10271TIP3   OH255007   4.459   7.025  12.107
10271TIP3    H155008   4.514   6.969  12.162
10271TIP3    H255009   4.475   7.113  12.140
10272TIP3   OH255010   4.122   6.739  12.175
10272TIP3    H155011   4.048   6.781  12.219
10272TIP3    H255012   4.169   6.811  12.133
10273TIP3   OH255013   4.999   5.910  12.320
10273TIP3    H155014   5.006   5.949  12.233
10273TIP3    H255015   5.040   5.973  12.378
10274TIP3   OH255016   4.752   7.135  12.126
10274TIP3    H155017   4.672   7.187  12.127
10274TIP3    H255018   4.799   7.162  12.205
10275TIP3   OH255019   4.692   6.152  12.363
10275TIP3    H155020   4.756   6.224  12.368
10275TIP3    H255021   4.678   6.127  12.454
10276TIP3   OH255022   4.757   5.824  12.429
10276TIP3    H155023   4.722   5.897  12.481
10276TIP3    H255024   4.840   5.857  12.395
10277TIP3   OH255025   4.524   7.276  12.199
10277TIP3    H155026   4.574   7.357  12.187
10277TIP3    H255027   4.513   7.268  12.293
10278TIP3   OH255028   4.341   5.961  12.142
10278TIP3    H155029   4.344   6.043  12.192
10278TIP3    H255030   4.425   5.919  12.159
10279TIP3   OH255031   4.202   6.967  12.019
10279TIP3    H155032   4.275   7.011  12.062
10279TIP3    H255033   4.243   6.910  11.954
10280TIP3   OH255034   3.990   6.266  11.968
10280TIP3    H155035   4.023   6.345  12.012
10280TIP3    H255036   3.967   6.296  11.880
10281TIP3   OH255037   3.945   7.111  12.408
10281TIP3    H155038   3.897   7.145  12.483
10281TIP3    H255039   3.941   7.181  12.343
10282TIP3   OH255040   4.783   7.234  11.843
10282TIP3    H155041   4.711   7.174  11.865
10282TIP3    H255042   4.862   7.182  11.854
10283TIP3   OH255043   5.275   7.172  11.898
10283TIP3    H155044   5.341   7.171  11.967
10283TIP3    H255045   5.319   7.212  11.823
10284TIP3   OH255046   4.343   6.777  11.883
10284TIP3    H155047   4.377   6.737  11.963
10284TIP3    H255048   4.420   6.782  11.825
10285TIP3   OH255049   4.940   6.909  11.869
10285TIP3    H155050   4.901   6.907  11.957
10285TIP3    H255051   4.934   6.818  11.839
10286TIP3   OH255052   4.451   6.635  12.114
10286TIP3    H155053   4.397   6.589  12.178
10286TIP3    H255054   4.490   6.565  12.061
10287TIP3   OH255055   4.571   6.458  11.931
10287TIP3    H155056   4.563   6.482  11.838
10287TIP3    H255057   4.665   6.448  11.945
10288TIP3   OH255058   5.484   6.664  11.914
10288TIP3    H155059   5.473   6.623  11.828
10288TIP3    H255060   5.467   6.757  11.898
10289TIP3   OH255061   4.579   7.521  11.987
10289TIP3    H155062   4.667   7.501  12.019
10289TIP3    H255063   4.586   7.612  11.956
10290TIP3   OH255064   3.932   6.977  11.986
10290TIP3    H155065   4.026   6.980  12.002
10290TIP3    H255066   3.920   6.904  11.925
10291TIP3   OH255067   3.810   7.439  12.449
10291TIP3    H155068   3.725   7.423  12.410
10291TIP3    H255069   3.813   7.380  12.525
10292TIP3   OH255070   3.869   7.268  12.661
10292TIP3    H155071   3.949   7.248  12.708
10292TIP3    H255072   3.803   7.279  12.729
10293TIP3   OH255073   5.634   6.549  12.118
10293TIP3    H155074   5.579   6.591  12.052
10293TIP3    H255075   5.618   6.598  12.198
10294TIP3   OH255076   5.426   6.259  11.941
10294TIP3    H155077   5.431   6.315  11.863
10294TIP3    H255078   5.413   6.171  11.906
10295TIP3   OH255079   3.911   6.645  12.944
10295TIP3    H155080   3.848   6.614  12.878
10295TIP3    H255081   3.989   6.667  12.894
10296TIP3   OH255082   5.387   6.002  11.833
10296TIP3    H155083   5.423   5.954  11.907
10296TIP3    H255084   5.296   5.974  11.828
10297TIP3   OH255085   5.321   6.188  12.328
10297TIP3    H155086   5.360   6.101  12.328
10297TIP3    H255087   5.395   6.248  12.329
10298TIP3   OH255088   5.413   5.917  12.368
10298TIP3    H155089   5.441   5.881  12.452
10298TIP3    H255090   5.342   5.860  12.339
10299TIP3   OH255091   3.754   6.241  12.935
10299TIP3    H155092   3.819   6.173  12.919
10299TIP3    H255093   3.793   6.321  12.898
10300TIP3   OH255094   5.554   5.885  12.034
10300TIP3    H155095   5.595   5.832  11.966
10300TIP3    H255096   5.621   5.949  12.058
10301TIP3   OH255097   3.816   5.903  12.326
10301TIP3    H155098   3.721   5.913  12.335
10301TIP3    H255099   3.841   5.971  12.262
10302TIP3   OH255100   5.294   7.392  12.544
10302TIP3    H155101   5.367   7.400  12.484
10302TIP3    H255102   5.298   7.472  12.597
10303TIP3   OH255103   4.175   7.196  12.781
10303TIP3    H155104   4.178   7.103  12.807
10303TIP3    H255105   4.265   7.226  12.793
10304TIP3   OH255106   4.449   7.241  12.805
10304TIP3    H155107   4.527   7.204  12.764
10304TIP3    H255108   4.482   7.288  12.882
10305TIP3   OH255109   5.516   5.781  12.588
10305TIP3    H155110   5.573   5.707  12.567
10305TIP3    H255111   5.576   5.850  12.617
10306TIP3   OH255112   4.046   5.710  12.518
10306TIP3    H155113   3.954   5.684  12.511
10306TIP3    H255114   4.092   5.628  12.536
10307TIP3   OH255115   3.932   5.703  12.122
10307TIP3    H155116   3.989   5.765  12.076
10307TIP3    H255117   3.902   5.751  12.199
10308TIP3   OH255118   4.534   5.657  12.534
10308TIP3    H155119   4.610   5.706  12.503
10308TIP3    H255120   4.536   5.668  12.629
10309TIP3   OH255121   5.210   5.726  12.311
10309TIP3    H155122   5.134   5.783  12.312
10309TIP3    H255123   5.174   5.637  12.317
10310TIP3   OH255124   3.928   7.323  12.231
10310TIP3    H155125   3.860   7.325  12.164
10310TIP3    H255126   3.894   7.379  12.301
10311TIP3   OH255127   4.119   5.875  11.989
10311TIP3    H155128   4.169   5.816  11.932
10311TIP3    H255129   4.183   5.906  12.053
10312TIP3   OH255130   4.615   5.937  12.209
10312TIP3    H155131   4.642   5.863  12.262
10312TIP3    H255132   4.639   6.014  12.260
10313TIP3   OH255133   4.856   7.464  11.982
10313TIP3    H155134   4.932   7.433  12.030
10313TIP3    H255135   4.826   7.388  11.932
10314TIP3   OH255136   5.478   7.396  12.323
10314TIP3    H155137   5.444   7.314  12.286
10314TIP3    H255138   5.464   7.460  12.253
10315TIP3   OH255139   4.065   7.344  11.891
10315TIP3    H155140   4.034   7.334  11.982
10315TIP3    H255141   4.153   7.306  11.892
10316TIP3   OH255142   6.872   6.696  12.522
10316TIP3    H155143   6.823   6.711  12.604
10316TIP3    H255144   6.811   6.722  12.453
10317TIP3   OH255145   6.772   6.528  12.798
10317TIP3    H155146   6.761   6.487  12.884
10317TIP3    H255147   6.777   6.455  12.736
10318TIP3   OH255148   5.885   6.533  12.599
10318TIP3    H155149   5.837   6.488  12.668
10318TIP3    H255150   5.819   6.589  12.557
10319TIP3   OH255151   6.239   6.057  12.697
10319TIP3    H155152   6.245   6.141  12.650
10319TIP3    H255153   6.189   6.001  12.638
10320TIP3   OH255154   7.013   6.114  12.510
10320TIP3    H155155   7.038   6.061  12.586
10320TIP3    H255156   7.096   6.142  12.471
10321TIP3   OH255157   5.940   6.257  12.747
10321TIP3    H155158   6.010   6.193  12.762
10321TIP3    H255159   5.923   6.252  12.653
10322TIP3   OH255160   7.115   5.990  12.734
10322TIP3    H155161   7.050   5.951  12.792
10322TIP3    H255162   7.160   6.055  12.788
10323TIP3   OH255163   5.806   6.861  12.260
10323TIP3    H155164   5.781   6.916  12.186
10323TIP3    H255165   5.817   6.922  12.333
10324TIP3   OH255166   6.671   6.580  12.293
10324TIP3    H155167   6.624   6.660  12.270
10324TIP3    H255168   6.750   6.583  12.239
10325TIP3   OH255169   6.727   6.469  11.972
10325TIP3    H155170   6.787   6.498  12.041
10325TIP3    H255171   6.775   6.399  11.927
10326TIP3   OH255172   7.079   6.582  12.384
10326TIP3    H155173   7.017   6.623  12.444
10326TIP3    H255174   7.132   6.524  12.439
10327TIP3   OH255175   6.388   7.051  12.817
10327TIP3    H155176   6.466   6.999  12.799
10327TIP3    H255177   6.354   7.015  12.899
10328TIP3   OH255178   6.914   6.571  12.158
10328TIP3    H155179   6.984   6.558  12.222
10328TIP3    H255180   6.959   6.607  12.081
10329TIP3   OH255181   7.356   5.676  12.157
10329TIP3    H155182   7.268   5.693  12.189
10329TIP3    H255183   7.387   5.760  12.123
10330TIP3   OH255184   6.136   6.526  12.305
10330TIP3    H155185   6.098   6.601  12.260
10330TIP3    H255186   6.065   6.490  12.358
10331TIP3   OH255187   7.449   7.102  11.994
10331TIP3    H155188   7.472   7.194  12.001
10331TIP3    H255189   7.533   7.056  11.988
10332TIP3   OH255190   5.708   7.112  12.896
10332TIP3    H155191   5.801   7.090  12.895
10332TIP3    H255192   5.692   7.145  12.984
10333TIP3   OH255193   6.050   7.290  12.543
10333TIP3    H155194   6.050   7.265  12.636
10333TIP3    H255195   5.994   7.226  12.500
10334TIP3   OH255196   6.953   7.320  12.077
10334TIP3    H155197   7.025   7.276  12.032
10334TIP3    H255198   6.937   7.266  12.154
10335TIP3   OH255199   7.068   6.659  11.944
10335TIP3    H155200   7.046   6.640  11.852
10335TIP3    H255201   7.124   6.586  11.971
10336TIP3   OH255202   6.661   5.978  12.002
10336TIP3    H155203   6.606   5.974  12.080
10336TIP3    H255204   6.623   5.913  11.942
10337TIP3   OH255205   6.203   6.285  12.540
10337TIP3    H155206   6.114   6.267  12.509
10337TIP3    H255207   6.254   6.298  12.460
10338TIP3   OH255208   6.829   6.361  12.376
10338TIP3    H155209   6.857   6.452  12.368
10338TIP3    H255210   6.892   6.312  12.324
10339TIP3   OH255211   6.806   6.296  12.645
10339TIP3    H155212   6.844   6.293  12.557
10339TIP3    H255213   6.855   6.231  12.695
10340TIP3   OH255214   6.322   6.029  11.891
10340TIP3    H155215   6.285   6.011  11.977
10340TIP3    H255216   6.267   6.098  11.855
10341TIP3   OH255217   5.710   5.982  12.601
10341TIP3    H155218   5.725   6.077  12.593
10341TIP3    H255219   5.724   5.949  12.512
10342TIP3   OH255220   5.745   6.077  12.129
10342TIP3    H155221   5.808   6.122  12.073
10342TIP3    H255222   5.682   6.145  12.154
10343TIP3   OH255223   6.535   6.008  12.635
10343TIP3    H155224   6.448   6.020  12.673
10343TIP3    H255225   6.592   5.986  12.709
10344TIP3   OH255226   5.946   6.182  12.479
10344TIP3    H155227   5.889   6.187  12.402
10344TIP3    H255228   5.983   6.094  12.476
10345TIP3   OH255229   6.381   6.285  12.293
10345TIP3    H155230   6.410   6.197  12.268
10345TIP3    H255231   6.321   6.311  12.223
10346TIP3   OH255232   6.252   6.304  12.040
10346TIP3    H155233   6.192   6.285  11.969
10346TIP3    H255234   6.323   6.355  11.999
10347TIP3   OH255235   6.579   6.267  12.812
10347TIP3    H155236   6.639   6.253  12.739
10347TIP3    H255237   6.636   6.273  12.889
10348TIP3   OH255238   6.077   5.938  12.486
10348TIP3    H155239   6.019   5.867  12.515
10348TIP3    H255240   6.145   5.893  12.435
10349TIP3   OH255241   6.521   6.800  12.228
10349TIP3    H155242   6.452   6.746  12.191
10349TIP3    H255243   6.491   6.821  12.316
10350TIP3   OH255244   6.926   6.029  12.075
10350TIP3    H155245   6.834   6.035  12.048
10350TIP3    H255246   6.950   6.119  12.099
10351TIP3   OH255247   7.017   6.260  12.211
10351TIP3    H155248   7.093   6.238  12.265
10351TIP3    H255249   7.054   6.303  12.134
10352TIP3   OH255250   6.742   6.940  12.099
10352TIP3    H155251   6.789   6.998  12.159
10352TIP3    H255252   6.671   6.903  12.151
10353TIP3   OH255253   7.441   6.302  12.190
10353TIP3    H155254   7.438   6.248  12.111
10353TIP3    H255255   7.465   6.389  12.158
10354TIP3   OH255256   7.303   7.103  12.240
10354TIP3    H155257   7.235   7.036  12.247
10354TIP3    H255258   7.337   7.093  12.151
10355TIP3   OH255259   6.294   7.093  12.516
10355TIP3    H155260   6.314   7.124  12.604
10355TIP3    H255261   6.208   7.131  12.496
10356TIP3   OH255262   5.889   6.540  12.007
10356TIP3    H155263   5.943   6.602  12.056
10356TIP3    H255264   5.803   6.544  12.050
10357TIP3   OH255265   6.414   6.849  12.471
10357TIP3    H155266   6.397   6.943  12.476
10357TIP3    H255267   6.347   6.810  12.527
10358TIP3   OH255268   7.075   6.957  12.018
10358TIP3    H155269   7.104   6.915  12.099
10358TIP3    H255270   6.993   6.913  11.996
10359TIP3   OH255271   7.548   7.363  12.032
10359TIP3    H155272   7.605   7.412  12.090
10359TIP3    H255273   7.462   7.404  12.042
10360TIP3   OH255274   7.178   6.825  12.237
10360TIP3    H155275   7.130   6.754  12.280
10360TIP3    H255276   7.268   6.792  12.231
10361TIP3   OH255277   6.463   7.051  11.861
10361TIP3    H155278   6.474   6.964  11.822
10361TIP3    H255279   6.441   7.032  11.953
10362TIP3   OH255280   6.404   7.033  12.132
10362TIP3    H155281   6.437   6.947  12.157
10362TIP3    H255282   6.443   7.093  12.196
10363TIP3   OH255283   6.019   6.729  12.164
10363TIP3    H155284   5.943   6.764  12.211
10363TIP3    H255285   6.058   6.805  12.121
10364TIP3   OH255286   6.837   5.989  12.340
10364TIP3    H155287   6.881   5.993  12.255
10364TIP3    H255288   6.903   6.021  12.402
10365TIP3   OH255289   6.618   6.141  12.413
10365TIP3    H155290   6.703   6.101  12.395
10365TIP3    H255291   6.589   6.101  12.495
10366TIP3   OH255292   6.644   5.817  12.449
10366TIP3    H155293   6.623   5.865  12.530
10366TIP3    H255294   6.727   5.854  12.420
10367TIP3   OH255295   6.231   5.959  12.145
10367TIP3    H155296   6.212   6.031  12.206
10367TIP3    H255297   6.319   5.931  12.168
10368TIP3   OH255298   6.074   6.971  12.023
10368TIP3    H155299   6.137   7.031  12.062
10368TIP3    H255300   6.126   6.920  11.959
10369TIP3   OH255301   5.874   6.263  11.971
10369TIP3    H155302   5.899   6.351  12.000
10369TIP3    H255303   5.827   6.277  11.889
10370TIP3   OH255304   5.981   5.684  12.841
10370TIP3    H155305   5.963   5.726  12.756
10370TIP3    H255306   6.072   5.657  12.836
10371TIP3   OH255307   5.877   7.099  12.432
10371TIP3    H155308   5.811   7.114  12.500
10371TIP3    H255309   5.850   7.154  12.359
10372TIP3   OH255310   6.654   7.252  11.863
10372TIP3    H155311   6.596   7.176  11.870
10372TIP3    H255312   6.742   7.216  11.873
10373TIP3   OH255313   7.126   7.196  11.899
10373TIP3    H155314   7.123   7.112  11.945
10373TIP3    H255315   7.201   7.188  11.840
10374TIP3   OH255316   6.220   6.788  11.882
10374TIP3    H155317   6.250   6.737  11.957
10374TIP3    H255318   6.296   6.792  11.823
10375TIP3   OH255319   6.777   6.921  11.829
10375TIP3    H155320   6.755   6.924  11.922
10375TIP3    H255321   6.773   6.828  11.807
10376TIP3   OH255322   6.330   6.637  12.115
10376TIP3    H155323   6.272   6.586  12.172
10376TIP3    H255324   6.369   6.572  12.057
10377TIP3   OH255325   6.451   6.466  11.935
10377TIP3    H155326   6.443   6.483  11.841
10377TIP3    H255327   6.545   6.465  11.951
10378TIP3   OH255328   7.376   6.653  11.881
10378TIP3    H155329   7.313   6.594  11.839
10378TIP3    H255330   7.336   6.740  11.875
10379TIP3   OH255331   5.800   6.960  11.990
10379TIP3    H155332   5.893   6.968  12.007
10379TIP3    H255333   5.792   6.888  11.927
10380TIP3   OH255334   5.668   7.482  12.507
10380TIP3    H155335   5.602   7.466  12.439
10380TIP3    H255336   5.671   7.401  12.557
10381TIP3   OH255337   5.752   7.269  12.673
10381TIP3    H155338   5.714   7.205  12.732
10381TIP3    H255339   5.823   7.309  12.723
10382TIP3   OH255340   7.445   6.749  12.268
10382TIP3    H155341   7.478   6.832  12.302
10382TIP3    H255342   7.445   6.689  12.343
10383TIP3   OH255343   7.445   6.585  12.490
10383TIP3    H155344   7.369   6.532  12.515
10383TIP3    H255345   7.497   6.594  12.569
10384TIP3   OH255346   7.529   6.553  12.086
10384TIP3    H155347   7.475   6.569  12.009
10384TIP3    H255348   7.504   6.622  12.147
10385TIP3   OH255349   7.401   6.179  11.943
10385TIP3    H155350   7.340   6.252  11.949
10385TIP3    H255351   7.363   6.121  11.876
10386TIP3   OH255352   7.240   6.406  12.556
10386TIP3    H155353   7.246   6.337  12.490
10386TIP3    H255354   7.242   6.360  12.639
10387TIP3   OH255355   5.859   6.606  12.909
10387TIP3    H155356   5.773   6.646  12.895
10387TIP3    H255357   5.891   6.644  12.991
10388TIP3   OH255358   7.242   5.977  11.841
10388TIP3    H155359   7.233   5.982  11.936
10388TIP3    H255360   7.152   5.963  11.809
10389TIP3   OH255361   7.245   6.198  12.363
10389TIP3    H155362   7.266   6.105  12.371
10389TIP3    H255363   7.310   6.231  12.301
10390TIP3   OH255364   7.232   6.193  12.878
10390TIP3    H155365   7.316   6.238  12.891
10390TIP3    H255366   7.203   6.170  12.966
10391TIP3   OH255367   7.256   5.920  12.412
10391TIP3    H155368   7.242   5.900  12.505
10391TIP3    H255369   7.208   5.852  12.365
10392TIP3   OH255370   7.466   5.913  12.045
10392TIP3    H155371   7.533   5.872  11.990
10392TIP3    H255372   7.465   6.004  12.018
10393TIP3   OH255373   5.703   5.897  12.329
10393TIP3    H155374   5.607   5.897  12.326
10393TIP3    H255375   5.729   5.958  12.261
10394TIP3   OH255376   6.409   7.327  12.825
10394TIP3    H155377   6.404   7.231  12.825
10394TIP3    H255378   6.330   7.354  12.872
10395TIP3   OH255379   7.240   5.713  12.759
10395TIP3    H155380   7.167   5.771  12.735
10395TIP3    H255381   7.209   5.667  12.837
10396TIP3   OH255382   5.940   5.709  12.554
10396TIP3    H155383   5.849   5.689  12.532
10396TIP3    H255384   5.983   5.624  12.559
10397TIP3   OH255385   5.821   5.689  12.134
10397TIP3    H155386   5.876   5.747  12.082
10397TIP3    H255387   5.785   5.746  12.202
10398TIP3   OH255388   6.420   5.678  12.586
10398TIP3    H155389   6.502   5.711  12.549
10398TIP3    H255390   6.436   5.676  12.681
10399TIP3   OH255391   6.951   5.740  12.579
10399TIP3    H155392   6.987   5.670  12.525
10399TIP3    H255393   6.899   5.695  12.645
10400TIP3   OH255394   7.112   5.720  12.281
10400TIP3    H155395   7.026   5.756  12.260
10400TIP3    H255396   7.094   5.635  12.320
10401TIP3   OH255397   5.806   7.262  12.229
10401TIP3    H155398   5.733   7.271  12.168
10401TIP3    H255399   5.863   7.337  12.210
10402TIP3   OH255400   6.005   5.868  11.996
10402TIP3    H155401   6.052   5.811  11.934
10402TIP3    H255402   6.074   5.900  12.055
10403TIP3   OH255403   6.500   5.958  12.239
10403TIP3    H155404   6.525   5.875  12.279
10403TIP3    H255405   6.544   6.024  12.292
10404TIP3   OH255406   7.386   7.360  12.320
10404TIP3    H155407   7.359   7.268  12.309
10404TIP3    H255408   7.350   7.404  12.243
10405TIP3   OH255409   6.003   7.389  11.891
10405TIP3    H155410   5.971   7.421  11.976
10405TIP3    H255411   6.080   7.336  11.912
10406TIP3   OH255412   7.548   6.327  12.440
10406TIP3    H155413   7.520   6.419  12.443
10406TIP3    H255414   7.514   6.294  12.357
10407TIP3   OH255415   7.475   7.543  12.503
10407TIP3    H155416   7.424   7.507  12.430
10407TIP3    H255417   7.497   7.467  12.556
10408TIP3   OH255418   7.552   7.346  12.675
10408TIP3    H155419   7.558   7.275  12.739
10408TIP3    H255420   7.548   7.426  12.727
10409TIP3   OH255421   7.629   6.637  12.900
10409TIP3    H155422   7.702   6.680  12.856
10409TIP3    H255423   7.661   6.621  12.989
10410TIP3   OH255424   7.482   6.326  12.870
10410TIP3    H155425   7.541   6.318  12.795
10410TIP3    H255426   7.540   6.348  12.943
10411TIP3   OH255427   7.520   5.930  12.317
10411TIP3    H155428   7.435   5.921  12.360
10411TIP3    H255429   7.501   5.927  12.224
10412TIP3   OH255430   1.651   7.516  12.107
10412TIP3    H155431   1.557   7.510  12.124
10412TIP3    H255432   1.675   7.605  12.132
10413TIP3   OH255433   0.222   7.546  12.551
10413TIP3    H155434   0.194   7.638  12.548
10413TIP3    H255435   0.284   7.542  12.624
10414TIP3   OH255436   1.587   7.485  12.742
10414TIP3    H155437   1.655   7.445  12.798
10414TIP3    H255438   1.597   7.579  12.756
10415TIP3   OH255439   0.378   7.521  12.325
10415TIP3    H155440   0.323   7.530  12.403
10415TIP3    H255441   0.467   7.538  12.355
10416TIP3   OH255442   0.227   7.515  12.091
10416TIP3    H155443   0.220   7.610  12.077
10416TIP3    H255444   0.266   7.506  12.178
10417TIP3   OH255445   1.414   7.574  12.274
10417TIP3    H155446   1.356   7.517  12.224
10417TIP3    H255447   1.437   7.523  12.352
10418TIP3   OH255448   2.638   7.426  12.778
10418TIP3    H155449   2.690   7.486  12.830
10418TIP3    H255450   2.552   7.425  12.820
10419TIP3   OH255451   3.494   7.497  12.088
10419TIP3    H155452   3.408   7.504  12.130
10419TIP3    H255453   3.526   7.587  12.085
10420TIP3   OH255454   3.475   7.428  12.759
10420TIP3    H155455   3.498   7.519  12.776
10420TIP3    H255456   3.381   7.423  12.777
10421TIP3   OH255457   2.147   7.528  12.411
10421TIP3    H155458   2.063   7.514  12.455
10421TIP3    H255459   2.206   7.464  12.451
10422TIP3   OH255460   2.081   7.528  12.135
10422TIP3    H155461   2.100   7.619  12.112
10422TIP3    H255462   2.084   7.527  12.231
10423TIP3   OH255463   2.570   7.571  12.542
10423TIP3    H155464   2.650   7.617  12.515
10423TIP3    H255465   2.591   7.537  12.630
10424TIP3   OH255466   3.206   7.527  12.717
10424TIP3    H155467   3.153   7.578  12.655
10424TIP3    H255468   3.148   7.514  12.792
10425TIP3   OH255469   3.286   7.558  12.271
10425TIP3    H155470   3.211   7.502  12.250
10425TIP3    H255471   3.318   7.526  12.355
10426TIP3   OH255472   4.655   7.545  12.793
10426TIP3    H155473   4.711   7.475  12.758
10426TIP3    H255474   4.600   7.501  12.858
10427TIP3   OH255475   5.421   7.496  12.052
10427TIP3    H155476   5.329   7.498  12.081
10427TIP3    H255477   5.456   7.580  12.082
10428TIP3   OH255478   4.481   7.450  12.990
10428TIP3    H155479   4.402   7.468  12.940
10428TIP3    H255480   4.457   7.469  13.080
10429TIP3   OH255481   3.931   7.585  12.892
10429TIP3    H155482   3.923   7.588  12.796
10429TIP3    H255483   3.929   7.491  12.913
10430TIP3   OH255484   3.938   7.614  12.615
10430TIP3    H155485   3.888   7.562  12.552
10430TIP3    H255486   3.993   7.671  12.561
10431TIP3   OH255487   3.836   7.626  12.089
10431TIP3    H155488   3.831   7.683  12.013
10431TIP3    H255489   3.794   7.675  12.159
10432TIP3   OH255490   4.577   7.569  12.521
10432TIP3    H155491   4.553   7.658  12.496
10432TIP3    H255492   4.611   7.577  12.610
10433TIP3   OH255493   5.217   7.592  12.232
10433TIP3    H155494   5.140   7.617  12.180
10433TIP3    H255495   5.191   7.512  12.277
10434TIP3   OH255496   6.452   7.597  12.775
10434TIP3    H155497   6.476   7.505  12.777
10434TIP3    H255498   6.377   7.604  12.833
10435TIP3   OH255499   7.313   7.498  12.088
10435TIP3    H155500   7.227   7.487  12.129
10435TIP3    H255501   7.332   7.591  12.097
10436TIP3   OH255502   6.238   7.581  12.946
10436TIP3    H155503   6.151   7.572  12.907
10436TIP3    H255504   6.222   7.585  13.040
10437TIP3   OH255505   5.918   7.537  12.600
10437TIP3    H155506   5.830   7.517  12.567
10437TIP3    H255507   5.971   7.463  12.572
10438TIP3   OH255508   5.861   7.517  12.116
10438TIP3    H155509   5.886   7.607  12.096
10438TIP3    H255510   5.797   7.524  12.187
10439TIP3   OH255511   7.105   7.527  12.262
10439TIP3    H155512   7.063   7.610  12.243
10439TIP3    H255513   7.047   7.483  12.324
   7.68049   7.68049  30.00000
