Title
55513
    1DOPE     N    1   3.291   3.266   9.799  0.1948 -0.1044  0.4325
    1DOPE   HN1    2   3.306   3.268   9.696 -1.0482  0.3590  0.2413
    1DOPE   HN2    3   3.246   3.176   9.822  1.1777 -1.3841 -2.2732
    1DOPE   HN3    4   3.212   3.332   9.816  0.6227  0.5455 -0.0418
    1DOPE   C12    5   3.414   3.283   9.875 -0.0464 -0.2561 -0.5051
    1DOPE  H12A    6   3.472   3.369   9.837 -0.0991 -0.5143 -1.1852
    1DOPE  H12B    7   3.489   3.202   9.857  2.3900  1.8048 -0.2614
    1DOPE   C11    8   3.380   3.300  10.026 -0.1596 -0.1561 -0.3771
    1DOPE  H11A    9   3.473   3.296  10.086  0.6211 -0.2590 -1.5556
    1DOPE  H11B   10   3.317   3.212  10.051  1.1832 -1.2186 -0.6200
    1DOPE     P   11   3.358   3.556  10.107  0.1906 -0.4200 -0.3703
    1DOPE   O13   12   3.412   3.529  10.241 -0.2330  0.0458 -0.4870
    1DOPE   O14   13   3.241   3.644  10.107  0.6087  0.0764  0.3107
    1DOPE   O11   14   3.470   3.604  10.002 -0.0451  0.1686  0.2254
    1DOPE   O12   15   3.304   3.417  10.050  0.0316  0.2215  0.0935
    1DOPE    C1   16   3.438   3.709   9.911  0.3434 -0.4649  0.1687
    1DOPE    HA   17   3.493   3.802   9.939 -0.1988 -0.0418 -0.1485
    1DOPE    HB   18   3.334   3.747   9.902  0.5896  0.0278 -0.6968
    1DOPE    C2   19   3.471   3.665   9.767  0.0356 -0.3699  0.1222
    1DOPE    HS   20   3.400   3.581   9.749 -1.5307  1.0239 -0.3935
    1DOPE   O21   21   3.614   3.626   9.758  0.1509 -0.2890  0.4937
    1DOPE   C21   22   3.633   3.529   9.672  0.2577  0.1990  0.6752
    1DOPE   O22   23   3.549   3.453   9.623  0.2369 -0.4465 -0.1382
    1DOPE   C22   24   3.782   3.531   9.645 -0.2148 -0.3530 -0.4880
    1DOPE   H2R   25   3.831   3.443   9.692 -1.3972  0.8380  3.3148
    1DOPE   H2S   26   3.821   3.628   9.684  0.5993 -0.1521 -1.7419
    1DOPE    C3   27   3.441   3.770   9.651  0.2138 -0.4760 -0.0282
    1DOPE    HX   28   3.514   3.853   9.658 -1.4217  0.9657  0.6598
    1DOPE    HY   29   3.346   3.817   9.684 -1.3047 -2.9333 -0.5930
    1DOPE   O31   30   3.434   3.703   9.520 -0.1898  0.1084 -0.4202
    1DOPE   C31   31   3.325   3.653   9.480 -0.0873 -0.2753  0.0525
    1DOPE   O32   32   3.217   3.669   9.539  0.1706  0.6780  0.6960
    1DOPE   C32   33   3.347   3.573   9.349 -0.0290 -0.6518  0.4055
    1DOPE   H2X   34   3.379   3.643   9.269 -0.8922 -0.4652  0.2143
    1DOPE   H2Y   35   3.432   3.506   9.375  1.6753  1.5758  0.9049
    1DOPE   C23   36   3.807   3.527   9.491 -0.4573 -0.5974 -0.2711
    1DOPE   H3R   37   3.747   3.440   9.456 -2.7690  1.2537 -1.1958
    1DOPE   H3S   38   3.912   3.510   9.460 -0.5949  1.3328 -2.0143
    1DOPE   C24   39   3.757   3.658   9.417  0.0921  0.5602  0.3106
    1DOPE   H4R   40   3.834   3.735   9.440  1.5998 -0.5909 -0.6213
    1DOPE   H4S   41   3.653   3.688   9.442  0.6701  1.7897  1.3593
    1DOPE   C25   42   3.749   3.619   9.264 -0.4609  0.0987  0.5911
    1DOPE   H5R   43   3.671   3.543   9.243 -1.0997  1.5202 -2.8478
    1DOPE   H5S   44   3.846   3.576   9.230 -0.3195  0.1453  0.9299
    1DOPE   C26   45   3.715   3.725   9.162  0.2061 -0.2038  0.0607
    1DOPE   H6R   46   3.801   3.796   9.172 -0.1090  0.4485 -1.5264
    1DOPE   H6S   47   3.628   3.781   9.203  1.3033  0.8572  1.0374
    1DOPE   C27   48   3.702   3.681   9.014  1.0073  0.5293  0.8609
    1DOPE   H7R   49   3.632   3.595   9.007  1.0331  0.2941  2.7496
    1DOPE   H7S   50   3.799   3.635   8.987 -0.1260 -0.3693 -2.0579
    1DOPE   C28   51   3.653   3.786   8.910  0.3144  0.1166 -0.1397
    1DOPE   H8R   52   3.557   3.837   8.934  0.7343  0.2186  1.4337
    1DOPE   H8S   53   3.641   3.733   8.813 -1.8753 -0.6961  0.5016
    1DOPE   C29   54   3.757   3.892   8.883  0.5299  0.2353  0.1256
    1DOPE   H9R   55   3.849   3.884   8.943  0.2972 -1.0124  0.3363
    1DOPE  C210   56   3.756   3.984   8.782  0.0735 -0.7760 -0.2428
    1DOPE  H10R   57   3.834   4.062   8.784 -0.6855  0.1790  4.4512
    1DOPE  C211   58   3.643   4.016   8.683 -0.0250  0.0634 -0.5197
    1DOPE  H11R   59   3.634   4.126   8.691 -0.5190 -0.0813  1.8084
    1DOPE  H11S   60   3.547   3.971   8.715  0.2197 -0.5223 -0.5976
    1DOPE  C212   61   3.653   3.968   8.538  0.3951  0.3931  0.8633
    1DOPE  H12R   62   3.571   4.008   8.475 -0.0580  0.0182  1.2113
    1DOPE  H12S   63   3.646   3.858   8.544  1.4453  0.3944  3.2388
    1DOPE  C213   64   3.789   4.011   8.479  0.0086  0.8051 -0.3287
    1DOPE  H13R   65   3.868   3.977   8.550 -1.4879  1.5619  1.8112
    1DOPE  H13S   66   3.793   4.123   8.477 -2.7412  0.9788  0.3941
    1DOPE  C214   67   3.819   3.955   8.339 -0.3324  0.2179 -0.3241
    1DOPE  H14R   68   3.844   3.847   8.344 -1.2173  0.0405  0.6363
    1DOPE  H14S   69   3.910   3.992   8.287 -0.6362 -0.9277 -1.7175
    1DOPE  C215   70   3.700   3.965   8.235  0.0982 -0.0790 -0.2465
    1DOPE  H15R   71   3.653   4.064   8.254  0.3401 -0.2634  1.4684
    1DOPE  H15S   72   3.626   3.890   8.268 -0.8548  1.3967  1.0924
    1DOPE  C216   73   3.732   3.962   8.088  0.1728  0.5964  0.1823
    1DOPE  H16R   74   3.787   4.056   8.066  0.9712  0.2152  0.4889
    1DOPE  H16S   75   3.643   3.963   8.022 -0.4629  1.9338  1.0155
    1DOPE  C217   76   3.826   3.845   8.042  0.0343 -0.2198  0.5922
    1DOPE  H17R   77   3.783   3.745   8.065 -0.4338 -0.1374  0.0865
    1DOPE  H17S   78   3.920   3.859   8.100  0.5604 -0.7968 -0.1099
    1DOPE  C218   79   3.861   3.832   7.888 -0.3105 -0.4920 -0.0622
    1DOPE  H18R   80   3.777   3.797   7.825 -3.1819  3.0913  1.3969
    1DOPE  H18S   81   3.942   3.760   7.864  0.7015  0.8191 -0.6948
    1DOPE  H18T   82   3.895   3.927   7.841 -1.3260 -1.5197 -3.1336
    1DOPE   C33   83   3.232   3.485   9.293 -0.4230  0.5667 -0.8265
    1DOPE   H3X   84   3.160   3.557   9.248  2.5247  3.7955 -0.7159
    1DOPE   H3Y   85   3.191   3.418   9.372  1.1817 -0.2956 -0.6789
    1DOPE   C34   86   3.270   3.397   9.174 -0.9633 -0.2318  1.1959
    1DOPE   H4X   87   3.344   3.319   9.202 -0.3527 -0.0880  0.0490
    1DOPE   H4Y   88   3.182   3.337   9.142  1.0513 -3.4607  1.3276
    1DOPE   C35   89   3.310   3.493   9.050 -0.0830 -0.0492 -0.7795
    1DOPE   H5X   90   3.398   3.547   9.090 -2.2079  2.3267  1.0395
    1DOPE   H5Y   91   3.234   3.569   9.024  1.8576  2.5467  0.6164
    1DOPE   C36   92   3.350   3.412   8.925  0.2394 -0.3497 -0.5004
    1DOPE   H6X   93   3.274   3.338   8.891  1.1724 -1.4071 -0.3490
    1DOPE   H6Y   94   3.440   3.351   8.949 -0.9345 -0.5178  4.3266
    1DOPE   C37   95   3.389   3.504   8.805  0.2252  0.1058 -0.9051
    1DOPE   H7X   96   3.296   3.557   8.776  0.7216  0.5089 -1.8107
    1DOPE   H7Y   97   3.462   3.583   8.834 -0.6786  0.6456 -0.0235
    1DOPE   C38   98   3.439   3.435   8.675  0.0681  0.2785  0.7394
    1DOPE   H8X   99   3.360   3.359   8.655 -1.8113  2.4632 -0.7638
    1DOPE   H8Y  100   3.534   3.383   8.699 -0.0811 -0.5255 -0.3576
    1DOPE   C39  101   3.460   3.539   8.561 -0.2243 -0.3435  0.1660
    1DOPE   H9X  102   3.369   3.589   8.525 -0.4932 -0.7011  0.3428
    1DOPE  C310  103   3.579   3.590   8.510 -0.2884  0.7232 -0.9715
    1DOPE  H10X  104   3.573   3.666   8.431  1.2918  0.2036 -1.6181
    1DOPE  C311  105   3.719   3.553   8.555  0.7736  0.2274  0.1274
    1DOPE  H11X  106   3.796   3.632   8.548 -1.1362  2.1706 -0.1496
    1DOPE  H11Y  107   3.726   3.509   8.657  1.7977  2.1283  0.9313
    1DOPE  C312  108   3.763   3.445   8.453 -0.4531 -1.1924 -1.3415
    1DOPE  H12X  109   3.697   3.356   8.465  1.0763 -2.0182  2.0709
    1DOPE  H12Y  110   3.864   3.402   8.469  0.0976  0.8576  1.5097
    1DOPE  C313  111   3.754   3.493   8.308 -0.4588  0.5559  0.3092
    1DOPE  H13X  112   3.650   3.512   8.273  0.2123 -0.3555 -2.4444
    1DOPE  H13Y  113   3.804   3.591   8.299  0.3810  0.1336  0.3407
    1DOPE  C314  114   3.820   3.386   8.220 -0.3478 -0.6598  0.5704
    1DOPE  H14X  115   3.758   3.295   8.232  0.2696 -0.8914  2.3435
    1DOPE  H14Y  116   3.926   3.360   8.244  0.3179  0.2483 -1.1969
    1DOPE  C315  117   3.821   3.422   8.068  0.4081 -0.1651 -0.0575
    1DOPE  H15X  118   3.901   3.495   8.046  0.0735 -0.0636 -0.9885
    1DOPE  H15Y  119   3.723   3.473   8.060  0.1262 -0.2279  2.2873
    1DOPE  C316  120   3.820   3.297   7.981 -0.1852 -0.4576  0.7966
    1DOPE  H16X  121   3.727   3.237   7.989  1.2122 -2.5755  2.1516
    1DOPE  H16Y  122   3.900   3.227   8.015  1.8731  1.0654 -0.6733
    1DOPE  C317  123   3.854   3.324   7.831 -0.7180  0.5380  0.2119
    1DOPE  H17X  124   3.786   3.403   7.793 -1.4275 -0.0749  0.1884
    1DOPE  H17Y  125   3.957   3.364   7.822 -0.2917 -1.0562 -4.2942
    1DOPE  C318  126   3.824   3.212   7.733 -0.3030  0.1237  0.6376
    1DOPE  H18X  127   3.716   3.200   7.711 -0.1852  1.2382 -0.7008
    1DOPE  H18Y  128   3.871   3.225   7.634  0.4213  0.8920  1.0679
    1DOPE  H18Z  129   3.867   3.121   7.779  1.0399 -0.8262 -2.2846
    2DOPE     N  130   4.368   3.751  10.663 -0.2695 -0.0369  0.1712
    2DOPE   HN1  131   4.399   3.651  10.666  1.7355  0.5695  1.1791
    2DOPE   HN2  132   4.386   3.798  10.753 -0.9965  3.0391 -1.1464
    2DOPE   HN3  133   4.268   3.759  10.635 -0.1816 -2.1979 -1.0392
    2DOPE   C12  134   4.466   3.809  10.561  0.8987  1.0459 -0.3456
    2DOPE  H12A  135   4.566   3.778  10.597 -0.1486 -2.1383  0.1558
    2DOPE  H12B  136   4.456   3.920  10.561  0.4544  1.0094  0.0060
    2DOPE   C11  137   4.437   3.760  10.419  0.5794  0.1512 -0.8296
    2DOPE  H11A  138   4.462   3.653  10.405 -0.9434 -0.2397 -0.7549
    2DOPE  H11B  139   4.518   3.809  10.361  0.6022  1.1153 -0.0152
    2DOPE     P  140   4.225   3.700  10.276 -0.4904  0.1380  0.5421
    2DOPE   O13  141   4.088   3.757  10.256 -0.0762  0.0177 -0.4587
    2DOPE   O14  142   4.238   3.561  10.320 -0.4216  0.8518 -0.7215
    2DOPE   O11  143   4.309   3.724  10.149  0.4969 -0.2800  0.0423
    2DOPE   O12  144   4.300   3.800  10.375 -0.3239  0.3475 -0.5893
    2DOPE    C1  145   4.302   3.850  10.083 -0.1809 -0.1642  0.2733
    2DOPE    HA  146   4.405   3.877  10.054  0.3482 -2.3518 -0.0367
    2DOPE    HB  147   4.269   3.939  10.141  1.7053  1.1050 -0.5113
    2DOPE    C2  148   4.232   3.833   9.939  0.1968 -0.2670  0.2741
    2DOPE    HS  149   4.253   3.931   9.890 -0.9964  0.5250  1.2948
    2DOPE   O21  150   4.091   3.815   9.941  0.5367 -1.1158 -0.3853
    2DOPE   C21  151   4.027   3.922   9.984  0.2901  0.0655 -0.2551
    2DOPE   O22  152   4.074   4.031  10.013 -0.2884 -0.2212 -0.4541
    2DOPE   C22  153   3.877   3.895   9.994 -0.3232 -0.1449  0.5180
    2DOPE   H2R  154   3.827   3.980  10.045  1.5792 -0.8550  3.9053
    2DOPE   H2S  155   3.858   3.805  10.057 -3.4471  0.0444  0.0233
    2DOPE    C3  156   4.286   3.715   9.861 -0.3620 -0.1499  0.2901
    2DOPE    HX  157   4.275   3.618   9.915  0.2556  0.4422  1.5003
    2DOPE    HY  158   4.396   3.723   9.850 -0.1353 -3.0596 -0.3847
    2DOPE   O31  159   4.228   3.706   9.730  0.4506  0.6995  0.1919
    2DOPE   C31  160   4.261   3.796   9.639  0.1949 -0.3765 -0.1641
    2DOPE   O32  161   4.333   3.895   9.657  0.3974 -0.0048  0.1253
    2DOPE   C32  162   4.178   3.770   9.515 -0.4687  0.2232  0.3852
    2DOPE   H2X  163   4.143   3.664   9.510 -0.8683  0.3326  0.7906
    2DOPE   H2Y  164   4.088   3.834   9.515 -0.4188  0.3015 -0.0680
    2DOPE   C23  165   3.814   3.877   9.854 -0.3258  1.1016 -0.4846
    2DOPE   H3R  166   3.705   3.856   9.857 -0.7756  3.1045 -1.2269
    2DOPE   H3S  167   3.870   3.788   9.818  2.8516  1.9776  1.8125
    2DOPE   C24  168   3.822   4.005   9.769 -0.0908  0.3246 -0.0174
    2DOPE   H4R  169   3.920   4.057   9.763 -0.5948  1.0704 -3.5356
    2DOPE   H4S  170   3.751   4.077   9.814 -1.7382 -1.3734  0.2248
    2DOPE   C25  171   3.773   3.967   9.626 -0.1793 -0.8501 -0.1830
    2DOPE   H5R  172   3.723   3.868   9.629  0.8783 -1.3797  2.6062
    2DOPE   H5S  173   3.862   3.953   9.560 -0.2710 -0.6656 -0.3479
    2DOPE   C26  174   3.679   4.070   9.561 -0.5839 -0.4224 -0.2873
    2DOPE   H6R  175   3.733   4.166   9.548 -0.1980 -0.2468  2.2149
    2DOPE   H6S  176   3.589   4.088   9.624  0.1874  0.3010  0.6370
    2DOPE   C27  177   3.641   4.027   9.423  0.9584 -0.8312 -0.1683
    2DOPE   H7R  178   3.574   3.938   9.418  1.5377 -1.2225 -2.5049
    2DOPE   H7S  179   3.739   3.998   9.380  1.3982  2.0896 -1.3634
    2DOPE   C28  180   3.592   4.147   9.337  0.8045  0.2535 -0.2856
    2DOPE   H8R  181   3.679   4.215   9.325  3.0663 -2.0631  1.6710
    2DOPE   H8S  182   3.509   4.187   9.398 -0.1583 -2.5337  0.3897
    2DOPE   C29  183   3.535   4.090   9.211 -0.6080  0.4091  0.1333
    2DOPE   H9R  184   3.462   4.009   9.227  0.2817 -0.3631  0.3161
    2DOPE  C210  185   3.552   4.137   9.088 -0.7644 -0.6864  0.3805
    2DOPE  H10R  186   3.508   4.079   9.006 -1.2985  0.4914 -0.2038
    2DOPE  C211  187   3.637   4.261   9.056  0.1777  1.1972 -0.5346
    2DOPE  H11R  188   3.693   4.228   8.965 -1.2297  0.1402 -1.0653
    2DOPE  H11S  189   3.723   4.278   9.124 -1.2328  0.4840  1.4995
    2DOPE  C212  190   3.553   4.388   9.036  0.7663 -0.5875 -0.2907
    2DOPE  H12R  191   3.629   4.468   9.039  0.4471 -0.2720 -0.5594
    2DOPE  H12S  192   3.485   4.393   9.124  0.1887  2.1259 -0.8162
    2DOPE  C213  193   3.464   4.391   8.910 -0.5519 -0.7465  0.5142
    2DOPE  H13R  194   3.398   4.480   8.914 -1.1574 -0.9939 -2.1067
    2DOPE  H13S  195   3.401   4.300   8.901  0.4763 -1.3306 -1.2286
    2DOPE  C214  196   3.552   4.419   8.784 -0.0507 -1.1719 -0.2489
    2DOPE  H14R  197   3.657   4.382   8.782  0.9393  1.3777  0.8463
    2DOPE  H14S  198   3.564   4.530   8.785 -3.7399 -0.6536  0.8030
    2DOPE  C215  199   3.482   4.385   8.653  0.5988 -0.3171  0.3346
    2DOPE  H15R  200   3.401   4.459   8.638 -1.0187 -1.9412  0.7879
    2DOPE  H15S  201   3.446   4.280   8.658 -0.6402  0.0991  0.3829
    2DOPE  C216  202   3.581   4.385   8.534 -0.5234 -0.6871  0.4682
    2DOPE  H16R  203   3.669   4.326   8.567  1.3237  1.1373 -0.9216
    2DOPE  H16S  204   3.606   4.493   8.521  0.1284 -0.9677 -0.7073
    2DOPE  C217  205   3.532   4.319   8.405 -0.1720 -0.8856  0.2666
    2DOPE  H17R  206   3.439   4.366   8.368 -0.5231 -0.4523  1.6310
    2DOPE  H17S  207   3.508   4.212   8.421 -1.0580 -0.6240  0.7463
    2DOPE  C218  208   3.631   4.324   8.285  0.0484 -0.4389  0.2807
    2DOPE  H18R  209   3.650   4.429   8.253 -0.2968 -0.6994 -0.8176
    2DOPE  H18S  210   3.587   4.270   8.198  0.0966  2.2038 -1.4988
    2DOPE  H18T  211   3.726   4.276   8.317 -0.6097 -1.3832  0.8360
    2DOPE   C33  212   4.246   3.807   9.378  1.0807  0.2708  0.7335
    2DOPE   H3X  213   4.338   3.746   9.362  0.2902 -0.4819 -1.2536
    2DOPE   H3Y  214   4.271   3.915   9.375  2.4807 -0.0004 -2.5425
    2DOPE   C34  215   4.153   3.786   9.262  0.5538 -0.0871 -0.6329
    2DOPE   H4X  216   4.118   3.680   9.257  1.4064 -0.4334  0.3617
    2DOPE   H4Y  217   4.064   3.852   9.273  1.7861  1.3634  1.2112
    2DOPE   C35  218   4.207   3.822   9.121 -0.2654 -0.4598 -0.5571
    2DOPE   H5X  219   4.294   3.756   9.103  0.0108 -0.5690  1.0940
    2DOPE   H5Y  220   4.248   3.926   9.119 -2.5036  0.4840 -2.0979
    2DOPE   C36  221   4.114   3.793   9.005  0.2413 -0.5035  0.4815
    2DOPE   H6X  222   4.044   3.879   8.995 -0.0555 -0.8237 -0.3015
    2DOPE   H6Y  223   4.065   3.696   9.032  1.0386 -1.7012 -2.0242
    2DOPE   C37  224   4.185   3.791   8.865  0.5595 -0.1675 -0.1243
    2DOPE   H7X  225   4.232   3.890   8.848  0.7148 -0.5177 -1.9807
    2DOPE   H7Y  226   4.267   3.718   8.880  0.0882 -0.7228 -0.1740
    2DOPE   C38  227   4.093   3.759   8.746 -0.1475 -0.0745  0.5488
    2DOPE   H8X  228   4.159   3.732   8.661  1.0673  1.6855  0.8894
    2DOPE   H8Y  229   4.034   3.849   8.716 -1.8447 -0.6057  2.0495
    2DOPE   C39  230   3.985   3.647   8.766 -0.3016  0.3279  0.2891
    2DOPE   H9X  231   3.883   3.680   8.788 -0.4575 -0.7168  1.2070
    2DOPE  C310  232   4.007   3.519   8.789  0.2158  0.5057 -0.4486
    2DOPE  H10X  233   3.921   3.453   8.809  0.2427 -0.2902 -2.6806
    2DOPE  C311  234   4.141   3.455   8.792  0.5575  0.1249  0.3961
    2DOPE  H11X  235   4.163   3.413   8.692  0.5875 -0.2010  0.5353
    2DOPE  H11Y  236   4.219   3.532   8.806  0.6089 -0.2601  2.5952
    2DOPE  C312  237   4.150   3.352   8.902  0.5511  0.7293 -0.3811
    2DOPE  H12X  238   4.241   3.288   8.894 -0.9793 -1.3974 -1.8638
    2DOPE  H12Y  239   4.069   3.277   8.888  2.1962 -1.4405  0.8565
    2DOPE  C313  240   4.153   3.407   9.043 -0.6206  0.0776 -0.2783
    2DOPE  H13X  241   4.231   3.484   9.062 -0.8450  0.4736 -0.9423
    2DOPE  H13Y  242   4.056   3.461   9.054 -0.8627 -0.3151 -0.4836
    2DOPE  C314  243   4.164   3.300   9.160  0.1927 -0.4356  1.1024
    2DOPE  H14X  244   4.259   3.245   9.146  0.1717 -0.2567  0.1420
    2DOPE  H14Y  245   4.086   3.221   9.161 -0.3402  0.0248 -0.4862
    2DOPE  C315  246   4.168   3.371   9.297  0.8778  0.6453  0.2886
    2DOPE  H15X  247   4.065   3.393   9.333  1.9040  0.2508  3.9685
    2DOPE  H15Y  248   4.231   3.461   9.278  2.5367 -0.1195  1.8533
    2DOPE  C316  249   4.235   3.291   9.409  0.5584  0.3048  0.0738
    2DOPE  H16X  250   4.329   3.238   9.382  0.8149  0.0150  1.4336
    2DOPE  H16Y  251   4.162   3.210   9.433 -0.6055  0.9062 -1.3351
    2DOPE  C317  252   4.262   3.371   9.539  0.1989 -0.0526  0.4992
    2DOPE  H17X  253   4.319   3.459   9.502  0.5932 -1.3730 -2.2989
    2DOPE  H17Y  254   4.168   3.408   9.586 -0.6914 -1.4712 -0.0807
    2DOPE  C318  255   4.345   3.296   9.639 -0.8044  0.0803 -0.5803
    2DOPE  H18X  256   4.290   3.214   9.689 -0.2293  0.0588  0.0171
    2DOPE  H18Y  257   4.434   3.249   9.592  0.4402  0.6588  1.1305
    2DOPE  H18Z  258   4.377   3.371   9.714 -1.9253  1.5594 -1.5067
    3DOPE     N  259   3.409   4.664  10.473  0.6609 -0.0220 -0.3924
    3DOPE   HN1  260   3.338   4.590  10.454 -0.6387  1.5144 -1.8913
    3DOPE   HN2  261   3.442   4.708  10.385 -2.5895  1.1718 -1.1734
    3DOPE   HN3  262   3.491   4.610  10.505  0.7023 -0.1141 -0.6504
    3DOPE   C12  263   3.351   4.772  10.563  0.1177  0.3841 -0.3699
    3DOPE  H12A  264   3.409   4.778  10.658 -1.1920  0.4485  0.4373
    3DOPE  H12B  265   3.251   4.744  10.600 -1.0662  2.1294 -2.0832
    3DOPE   C11  266   3.342   4.903  10.483 -0.2086  0.3153  0.4770
    3DOPE  H11A  267   3.279   4.979  10.533 -2.9028 -1.1060 -0.5576
    3DOPE  H11B  268   3.289   4.887  10.387  0.6689  0.9734 -0.1294
    3DOPE     P  269   3.521   5.074  10.395  0.5477 -0.4002  0.2180
    3DOPE   O13  270   3.658   5.103  10.433 -0.0664  0.5258 -0.2495
    3DOPE   O14  271   3.420   5.178  10.424  0.3722 -0.2906 -0.2164
    3DOPE   O11  272   3.514   5.039  10.238 -0.3573 -0.2738 -0.3072
    3DOPE   O12  273   3.484   4.937  10.462 -0.4000  0.0039 -0.1371
    3DOPE    C1  274   3.407   5.097  10.164  0.4344 -0.5600  0.4528
    3DOPE    HA  275   3.407   5.208  10.167 -0.8850 -0.5572  1.9185
    3DOPE    HB  276   3.311   5.075  10.215 -0.8880  0.7170 -1.3486
    3DOPE    C2  277   3.398   5.060  10.017  0.3556  0.5687  0.3094
    3DOPE    HS  278   3.310   5.112   9.972  0.1845 -1.1997 -1.5731
    3DOPE   O21  279   3.379   4.919   9.999 -0.2345  0.2441  0.1908
    3DOPE   C21  280   3.254   4.878  10.029  0.0353  0.0875 -0.3142
    3DOPE   O22  281   3.169   4.953  10.071  0.6830 -0.0017 -0.0412
    3DOPE   C22  282   3.240   4.729  10.011  0.1747 -0.0954 -0.8475
    3DOPE   H2R  283   3.256   4.680  10.109  1.1120  1.4617 -0.1790
    3DOPE   H2S  284   3.329   4.701   9.951  1.0190 -0.5607  0.5821
    3DOPE    C3  285   3.520   5.112   9.940  0.2412  0.4861 -0.1967
    3DOPE    HX  286   3.607   5.064   9.989  2.0916  2.8565 -0.9781
    3DOPE    HY  287   3.525   5.221   9.959 -2.4628  0.8208 -1.0174
    3DOPE   O31  288   3.509   5.081   9.802 -0.0261  0.2129 -0.4327
    3DOPE   C31  289   3.608   5.138   9.728  0.3776 -0.5072  0.3204
    3DOPE   O32  290   3.702   5.202   9.767  0.1004 -0.5036  0.1562
    3DOPE   C32  291   3.591   5.090   9.582 -0.1437 -0.4112  0.2640
    3DOPE   H2X  292   3.585   4.980   9.599  0.2187 -0.3848  0.5714
    3DOPE   H2Y  293   3.489   5.121   9.550 -0.3689 -0.4329  0.9359
    3DOPE   C23  294   3.096   4.725   9.954  0.9809  0.0748 -1.2984
    3DOPE   H3R  295   3.023   4.773  10.023  0.8627 -0.6184 -0.9214
    3DOPE   H3S  296   3.063   4.619   9.950  0.5052  0.2395 -1.8228
    3DOPE   C24  297   3.085   4.781   9.816  0.3595 -0.3973  0.8745
    3DOPE   H4R  298   3.106   4.889   9.800 -1.9286 -0.2563 -1.8735
    3DOPE   H4S  299   2.979   4.785   9.785  1.0280  1.0537 -1.4740
    3DOPE   C25  300   3.157   4.698   9.710 -0.8071  0.8316  0.4490
    3DOPE   H5R  301   3.086   4.615   9.691 -0.1260  0.0242  1.3203
    3DOPE   H5S  302   3.254   4.657   9.745  0.0399  1.6403 -0.8542
    3DOPE   C26  303   3.185   4.775   9.576 -0.7152 -0.2921 -0.0213
    3DOPE   H6R  304   3.286   4.821   9.580 -0.7353  0.0828 -2.1931
    3DOPE   H6S  305   3.112   4.858   9.577 -0.6003 -0.1886 -0.1327
    3DOPE   C27  306   3.171   4.702   9.448 -0.6301 -0.1432 -0.0016
    3DOPE   H7R  307   3.064   4.680   9.425 -0.6020  1.4497 -1.9563
    3DOPE   H7S  308   3.243   4.617   9.448 -1.2506 -0.7487  2.3814
    3DOPE   C28  309   3.200   4.790   9.321  0.3482 -0.2338 -0.5944
    3DOPE   H8R  310   3.129   4.874   9.343 -1.0774 -1.0607 -1.8206
    3DOPE   H8S  311   3.170   4.735   9.230 -0.0118  0.0353 -0.6449
    3DOPE   C29  312   3.344   4.836   9.307 -0.8589 -0.2201 -0.8373
    3DOPE   H9R  313   3.375   4.887   9.399  0.1283 -1.4660 -0.4526
    3DOPE  C210  314   3.414   4.846   9.192 -0.6941 -0.2095  0.4623
    3DOPE  H10R  315   3.518   4.880   9.196 -0.0801 -1.6707 -1.4696
    3DOPE  C211  316   3.374   4.801   9.056  0.1557 -0.1528  0.3142
    3DOPE  H11R  317   3.273   4.838   9.027  1.0347  1.7192 -0.5335
    3DOPE  H11S  318   3.372   4.692   9.035 -2.0390 -0.0072 -0.4811
    3DOPE  C212  319   3.469   4.857   8.947  0.3787  0.1590 -0.7792
    3DOPE  H12R  320   3.576   4.831   8.958  0.6920  2.0097  0.9404
    3DOPE  H12S  321   3.459   4.967   8.947 -4.1470 -0.0308 -2.6421
    3DOPE  C213  322   3.429   4.799   8.808  0.2452 -0.3767  0.3690
    3DOPE  H13R  323   3.331   4.840   8.776  0.5144  0.4499  0.5751
    3DOPE  H13S  324   3.423   4.688   8.816  1.1285 -0.4635  0.0186
    3DOPE  C214  325   3.532   4.846   8.691 -0.0574  0.0104 -0.5190
    3DOPE  H14R  326   3.626   4.800   8.732 -0.3825 -0.2648 -0.0641
    3DOPE  H14S  327   3.533   4.957   8.688 -0.7412  0.0151 -0.6180
    3DOPE  C215  328   3.501   4.807   8.544 -0.6166  0.1859 -0.0240
    3DOPE  H15R  329   3.484   4.701   8.518 -2.4355  0.9498 -2.2572
    3DOPE  H15S  330   3.579   4.854   8.479  0.5780 -0.2099  1.0818
    3DOPE  C216  331   3.371   4.872   8.484 -0.0159 -0.4572  0.3956
    3DOPE  H16R  332   3.381   4.983   8.484  0.4532 -0.4863  1.9410
    3DOPE  H16S  333   3.294   4.847   8.560  1.3284 -2.0500  1.2688
    3DOPE  C217  334   3.342   4.815   8.344  0.8797  0.0233 -0.7734
    3DOPE  H17R  335   3.257   4.858   8.288  1.2542  0.9700 -0.6221
    3DOPE  H17S  336   3.318   4.707   8.354  1.8674  0.0193  3.1361
    3DOPE  C218  337   3.462   4.821   8.246  0.2488  0.0610  0.5744
    3DOPE  H18R  338   3.435   4.799   8.140 -0.4257  1.7194  0.3639
    3DOPE  H18S  339   3.544   4.757   8.284  0.1717 -1.9708 -2.3419
    3DOPE  H18T  340   3.495   4.927   8.244  0.4033 -0.0000 -1.2109
    3DOPE   C33  341   3.708   5.128   9.486  0.3019 -0.4655  0.1818
    3DOPE   H3X  342   3.797   5.063   9.496  1.5870  0.9651 -1.4177
    3DOPE   H3Y  343   3.746   5.231   9.501  0.1414 -0.6407  1.9763
    3DOPE   C34  344   3.667   5.116   9.335 -0.5185 -0.1583  0.0264
    3DOPE   H4X  345   3.625   5.015   9.317 -0.4155  0.0408 -1.4044
    3DOPE   H4Y  346   3.582   5.185   9.313 -1.6662 -1.6098 -0.2538
    3DOPE   C35  347   3.776   5.147   9.232 -0.2473  0.3581  0.4046
    3DOPE   H5X  348   3.858   5.072   9.245  0.5924  0.9951 -0.9506
    3DOPE   H5Y  349   3.808   5.253   9.244  0.5460  0.1379  0.3443
    3DOPE   C36  350   3.731   5.132   9.083  0.7620 -0.9384  1.1379
    3DOPE   H6X  351   3.659   5.210   9.052 -0.1844 -1.8199  1.0862
    3DOPE   H6Y  352   3.671   5.039   9.072 -1.7879  0.0473  4.9368
    3DOPE   C37  353   3.859   5.127   8.990  0.5471 -0.0679 -0.4148
    3DOPE   H7X  354   3.902   5.228   8.978  0.1315  0.3279  1.2446
    3DOPE   H7Y  355   3.931   5.061   9.044 -0.4977  0.6912  2.0449
    3DOPE   C38  356   3.829   5.045   8.860 -0.6728  0.6064  0.8385
    3DOPE   H8X  357   3.762   4.958   8.875  0.8683 -0.5730  1.1408
    3DOPE   H8Y  358   3.927   5.011   8.822 -0.3209  1.3019  1.0988
    3DOPE   C39  359   3.755   5.131   8.761 -0.3980  0.4569 -0.6495
    3DOPE   H9X  360   3.677   5.191   8.810 -1.1333 -1.2694  0.3771
    3DOPE  C310  361   3.778   5.143   8.629 -0.1304  0.2182 -0.5707
    3DOPE  H10X  362   3.719   5.215   8.571  1.0743  2.1150  0.4562
    3DOPE  C311  363   3.876   5.068   8.546  0.1373  0.6099 -0.2633
    3DOPE  H11X  364   3.956   5.014   8.600 -0.9831 -2.7591 -1.7244
    3DOPE  H11Y  365   3.830   4.983   8.491 -0.2434 -0.4234  1.5573
    3DOPE  C312  366   3.942   5.158   8.438 -0.5788  0.4385 -0.4444
    3DOPE  H12X  367   4.023   5.226   8.472 -0.3052 -0.6661  1.2239
    3DOPE  H12Y  368   3.856   5.211   8.391 -0.4930 -0.5241 -1.7668
    3DOPE  C313  369   4.015   5.072   8.330  0.2983  1.1503 -0.5144
    3DOPE  H13X  370   4.099   5.120   8.275  1.0376 -0.8610 -1.2209
    3DOPE  H13Y  371   4.069   4.989   8.380  1.5963  0.8939 -2.2688
    3DOPE  C314  372   3.917   5.005   8.224  0.0969 -0.1917  0.2001
    3DOPE  H14X  373   3.823   4.986   8.280 -1.1299 -0.5165 -1.8748
    3DOPE  H14Y  374   3.957   4.906   8.193  1.2349  0.5873 -0.8987
    3DOPE  C315  375   3.886   5.100   8.110  0.1628 -0.1722 -0.2287
    3DOPE  H15X  376   3.965   5.095   8.032 -0.0495  1.5194 -0.5820
    3DOPE  H15Y  377   3.867   5.207   8.129  1.4072  1.4298 -6.0472
    3DOPE  C316  378   3.762   5.068   8.030 -0.4549  0.4235  0.2036
    3DOPE  H16X  379   3.670   5.087   8.090 -2.0684 -1.5641 -1.4998
    3DOPE  H16Y  380   3.757   4.960   8.006  0.1720  0.5319 -0.4431
    3DOPE  C317  381   3.764   5.158   7.904 -0.5114 -0.2180 -0.4837
    3DOPE  H17X  382   3.785   5.263   7.936  0.3809 -0.5038 -0.1070
    3DOPE  H17Y  383   3.849   5.119   7.844 -0.4093 -0.7874  0.0192
    3DOPE  C318  384   3.633   5.156   7.827 -0.2760  0.2241  0.5651
    3DOPE  H18X  385   3.540   5.193   7.875  0.1168 -1.0984  2.4618
    3DOPE  H18Y  386   3.650   5.230   7.746  1.0003 -0.3383  0.3034
    3DOPE  H18Z  387   3.619   5.055   7.781 -0.6906  1.3065 -1.8096
    4DOPE     N  388   3.479   1.942   9.935  0.2128 -0.2740  0.2452
    4DOPE   HN1  389   3.385   1.919   9.898 -0.5392  0.1789  1.7833
    4DOPE   HN2  390   3.513   2.012   9.866 -0.7700 -1.5262 -1.6045
    4DOPE   HN3  391   3.541   1.858   9.928  1.0624  0.2264  1.3716
    4DOPE   C12  392   3.476   2.006  10.070 -0.2080 -0.4790 -0.1110
    4DOPE  H12A  393   3.455   1.924  10.142  0.2774 -1.4980 -1.0990
    4DOPE  H12B  394   3.394   2.079  10.085  0.1661 -0.6397  3.9033
    4DOPE   C11  395   3.612   2.075  10.099 -0.4696  1.4882  0.4813
    4DOPE  H11A  396   3.686   1.994  10.119  0.6535  1.9466 -1.5760
    4DOPE  H11B  397   3.608   2.127  10.197  1.1685  2.7404 -0.0667
    4DOPE     P  398   3.777   2.258  10.019 -0.3141  0.1264  0.0614
    4DOPE   O13  399   3.842   2.216  10.145  0.1926 -0.2487  0.2120
    4DOPE   O14  400   3.735   2.398  10.002  0.0897 -0.4634  0.2105
    4DOPE   O11  401   3.872   2.222   9.899  0.1919 -0.1847  0.6852
    4DOPE   O12  402   3.659   2.158   9.991  0.1130  0.2217  0.3054
    4DOPE    C1  403   3.876   2.101   9.825 -0.3762 -0.2857 -0.5069
    4DOPE    HA  404   3.802   2.030   9.866  0.1601 -0.2275  0.5988
    4DOPE    HB  405   3.982   2.070   9.843 -0.0012  1.1922 -0.0327
    4DOPE    C2  406   3.857   2.125   9.674  0.1686 -0.7234  0.1839
    4DOPE    HS  407   3.777   2.199   9.653 -0.3055 -0.9576  1.1252
    4DOPE   O21  408   3.813   2.005   9.602 -1.0089  0.2906  0.3290
    4DOPE   C21  409   3.696   1.959   9.625 -0.0689  0.1696 -0.3646
    4DOPE   O22  410   3.612   2.016   9.696  0.0547 -0.3621 -0.5393
    4DOPE   C22  411   3.663   1.845   9.530 -0.0649 -0.7360  0.0058
    4DOPE   H2R  412   3.679   1.745   9.577  0.3392  0.5454  2.7377
    4DOPE   H2S  413   3.741   1.842   9.451  0.0852 -1.0128  0.1620
    4DOPE    C3  414   3.989   2.175   9.608  0.2522 -0.2365 -0.6401
    4DOPE    HX  415   4.071   2.101   9.627 -1.9014 -2.3911  0.8382
    4DOPE    HY  416   4.017   2.273   9.653  0.0120 -0.6405  0.4282
    4DOPE   O31  417   3.971   2.188   9.466  0.1504  0.0810  0.1238
    4DOPE   C31  418   3.903   2.296   9.418 -0.1988 -0.2056 -0.1705
    4DOPE   O32  419   3.868   2.390   9.488 -0.9791 -0.6032  0.0148
    4DOPE   C32  420   3.896   2.292   9.266  0.1279 -0.2731  0.0606
    4DOPE   H2X  421   3.793   2.321   9.238  0.4922 -0.2300 -1.3117
    4DOPE   H2Y  422   3.965   2.374   9.239  1.3436 -0.8266  1.3950
    4DOPE   C23  423   3.521   1.848   9.482 -0.6266  0.4740  0.5774
    4DOPE   H3R  424   3.459   1.860   9.574  1.0219 -0.4042  1.8563
    4DOPE   H3S  425   3.495   1.750   9.437 -0.6401  0.4793  0.5736
    4DOPE   C24  426   3.485   1.949   9.369 -0.8308  0.2423 -0.2563
    4DOPE   H4R  427   3.479   2.050   9.415  0.5687  0.0419  0.4123
    4DOPE   H4S  428   3.379   1.940   9.335 -1.0590 -0.2756  0.5664
    4DOPE   C25  429   3.575   1.948   9.237 -0.2519  0.6770 -0.0844
    4DOPE   H5R  430   3.610   1.848   9.204 -1.5824  0.0470  0.3762
    4DOPE   H5S  431   3.665   2.013   9.252  0.8347 -1.2278  2.4870
    4DOPE   C26  432   3.501   2.007   9.112  0.5927 -0.3952  0.3759
    4DOPE   H6R  433   3.491   2.117   9.123 -0.7061 -0.0863 -2.9187
    4DOPE   H6S  434   3.401   1.959   9.102  0.8526 -1.4466  2.2821
    4DOPE   C27  435   3.572   1.959   8.981 -0.0826 -0.5217 -0.4865
    4DOPE   H7R  436   3.568   1.852   8.953  0.1923 -1.0548  1.4098
    4DOPE   H7S  437   3.679   1.989   8.994 -0.7710  2.9970 -1.6974
    4DOPE   C28  438   3.523   2.046   8.865  0.2127 -0.2666 -0.7343
    4DOPE   H8R  439   3.530   2.152   8.897  1.8589 -0.5769  0.0440
    4DOPE   H8S  440   3.415   2.023   8.857  0.2111 -0.0771 -1.3130
    4DOPE   C29  441   3.592   2.031   8.727 -0.3405  0.4321 -0.7518
    4DOPE   H9R  442   3.688   1.977   8.723 -0.6972 -0.2371 -0.3885
    4DOPE  C210  443   3.540   2.061   8.611  0.2124  0.1405  0.1874
    4DOPE  H10R  444   3.599   2.035   8.522 -3.4618 -1.9310 -1.9047
    4DOPE  C211  445   3.408   2.132   8.591  1.1183  0.1514 -0.5468
    4DOPE  H11R  446   3.377   2.197   8.676 -1.2757 -0.7831 -0.6437
    4DOPE  H11S  447   3.334   2.052   8.570  0.3875  0.5438  0.4578
    4DOPE  C212  448   3.424   2.228   8.473 -0.4279 -0.1287  0.1967
    4DOPE  H12R  449   3.514   2.291   8.484 -1.2361  1.4499 -1.6172
    4DOPE  H12S  450   3.344   2.304   8.468  0.2008  0.4926 -0.9043
    4DOPE  C213  451   3.439   2.160   8.340 -0.0245 -0.2440  0.7261
    4DOPE  H13R  452   3.348   2.101   8.317 -1.4760  2.4265 -0.7813
    4DOPE  H13S  453   3.536   2.106   8.331  0.4972  0.9624 -1.5576
    4DOPE  C214  454   3.451   2.277   8.231  0.4345  0.1832 -0.3157
    4DOPE  H14R  455   3.525   2.349   8.271  0.3249  1.2892 -1.9808
    4DOPE  H14S  456   3.351   2.326   8.237 -0.8839 -2.4624  0.9590
    4DOPE  C215  457   3.489   2.231   8.093  0.9980  0.4600  0.0065
    4DOPE  H15R  458   3.417   2.149   8.073  0.6028  1.5752 -3.8565
    4DOPE  H15S  459   3.589   2.183   8.081  0.2612 -1.1265 -0.0627
    4DOPE  C216  460   3.495   2.336   7.982  0.4007  0.6467  0.6441
    4DOPE  H16R  461   3.574   2.409   8.009  0.3657  1.1274 -0.4599
    4DOPE  H16S  462   3.393   2.380   7.994 -1.8351 -3.1653 -2.1603
    4DOPE  C217  463   3.508   2.276   7.844 -0.1631 -0.3662 -0.0239
    4DOPE  H17R  464   3.593   2.204   7.851 -0.7319 -0.8813  2.4748
    4DOPE  H17S  465   3.515   2.360   7.772 -0.6409 -0.1991  0.1259
    4DOPE  C218  466   3.390   2.189   7.803  0.4719 -0.3147  0.1809
    4DOPE  H18R  467   3.395   2.168   7.694  3.2334  2.1741 -0.2899
    4DOPE  H18S  468   3.303   2.257   7.818  1.1261  0.4893  0.3596
    4DOPE  H18T  469   3.368   2.103   7.870 -1.6447  0.8481  1.0600
    4DOPE   C33  470   3.946   2.168   9.192  0.8431 -0.8516 -0.0601
    4DOPE   H3X  471   3.875   2.086   9.219  1.7716 -0.9973  2.1816
    4DOPE   H3Y  472   4.049   2.143   9.227  0.2267  0.6016  3.1175
    4DOPE   C34  473   3.917   2.183   9.040 -0.6937  0.3158  0.1872
    4DOPE   H4X  474   3.910   2.083   8.993 -0.0995 -0.0142  0.7766
    4DOPE   H4Y  475   3.819   2.235   9.029 -0.8187 -0.2169 -1.5192
    4DOPE   C35  476   4.018   2.261   8.962 -0.2108  0.7960 -0.4724
    4DOPE   H5X  477   4.113   2.217   8.999 -1.0648 -2.1685 -1.5071
    4DOPE   H5Y  478   4.028   2.369   8.985  1.3988  0.5276  0.1845
    4DOPE   C36  479   4.020   2.234   8.806 -0.2278 -0.4681 -0.4648
    4DOPE   H6X  480   4.006   2.124   8.794  0.8365 -0.6084 -0.5047
    4DOPE   H6Y  481   4.122   2.258   8.770  0.2755 -1.8685 -0.0324
    4DOPE   C37  482   3.918   2.322   8.731  0.0723 -0.0797 -0.0070
    4DOPE   H7X  483   3.817   2.313   8.776 -0.8551  2.2489 -1.4296
    4DOPE   H7Y  484   3.949   2.429   8.735  1.4792 -0.4993  1.2303
    4DOPE   C38  485   3.900   2.272   8.583  0.1718 -0.5263 -0.6204
    4DOPE   H8X  486   3.871   2.165   8.590  1.8408 -0.8994  2.2352
    4DOPE   H8Y  487   3.998   2.280   8.532  0.3309  3.8298 -0.0340
    4DOPE   C39  488   3.796   2.354   8.512  0.7405  0.1257 -0.1145
    4DOPE   H9X  489   3.718   2.384   8.584  0.6610  1.6938 -0.8277
    4DOPE  C310  490   3.792   2.397   8.386  0.0502 -0.0531  0.8566
    4DOPE  H10X  491   3.704   2.451   8.350  0.2109 -0.5186 -0.3037
    4DOPE  C311  492   3.896   2.372   8.270 -0.0170 -0.4635 -0.1425
    4DOPE  H11X  493   3.946   2.467   8.242  1.4099 -1.7305 -2.1902
    4DOPE  H11Y  494   3.982   2.306   8.297  1.9367  1.0253 -2.3674
    4DOPE  C312  495   3.829   2.316   8.147 -0.0922 -0.1407  0.1172
    4DOPE  H12X  496   3.752   2.395   8.130  1.9617  2.0535  0.4595
    4DOPE  H12Y  497   3.798   2.213   8.172  1.2516 -0.7924 -0.8054
    4DOPE  C313  498   3.931   2.322   8.027 -0.0333  0.0811  0.7421
    4DOPE  H13X  499   3.964   2.425   8.001  1.2891 -0.8413 -1.5345
    4DOPE  H13Y  500   4.016   2.252   8.042 -0.8524 -1.0262  0.3654
    4DOPE  C314  501   3.859   2.270   7.901 -0.2308  0.1689  0.0329
    4DOPE  H14X  502   3.804   2.358   7.862 -0.2301  0.4425  0.6383
    4DOPE  H14Y  503   3.796   2.182   7.927  1.6150 -2.4268 -3.4251
    4DOPE  C315  504   3.957   2.220   7.791 -0.0114 -0.3868 -0.1764
    4DOPE  H15X  505   3.906   2.138   7.737  1.3508 -0.9863 -0.6045
    4DOPE  H15Y  506   4.041   2.173   7.846 -0.1734  1.5760  1.9172
    4DOPE  C316  507   4.004   2.333   7.698  0.4122  0.9078 -0.3701
    4DOPE  H16X  508   4.043   2.419   7.758  0.1443  0.6965  0.1182
    4DOPE  H16Y  509   3.921   2.370   7.635 -1.4492  0.3943  1.6420
    4DOPE  C317  510   4.123   2.291   7.609 -0.0179  0.2645 -0.5797
    4DOPE  H17X  511   4.152   2.379   7.547 -1.5881  0.3891 -1.2057
    4DOPE  H17Y  512   4.210   2.269   7.674 -1.0530 -1.1553  0.3977
    4DOPE  C318  513   4.095   2.173   7.522  0.7481  0.8859  1.4348
    4DOPE  H18X  514   4.071   2.081   7.579  0.6078 -0.2813 -0.4215
    4DOPE  H18Y  515   4.013   2.200   7.452  1.3547  1.3388  0.8836
    4DOPE  H18Z  516   4.182   2.153   7.455 -0.6249 -0.3713 -0.0633
    5DOPE     N  517   1.378   4.000  10.157 -0.4353 -0.2741  0.0680
    5DOPE   HN1  518   1.395   4.087  10.103 -0.5487  0.3653  1.0452
    5DOPE   HN2  519   1.318   4.021  10.239 -0.5522 -1.0326  0.1882
    5DOPE   HN3  520   1.465   3.953  10.190  0.4702  0.5828 -1.0558
    5DOPE   C12  521   1.304   3.908  10.064  0.4115 -0.1168  0.9183
    5DOPE  H12A  522   1.207   3.956  10.036 -0.5108 -0.9482  2.5513
    5DOPE  H12B  523   1.277   3.815  10.118 -1.3849 -1.3871 -1.9107
    5DOPE   C11  524   1.378   3.872   9.934 -0.7853  0.4707  0.0822
    5DOPE  H11A  525   1.417   3.963   9.884  0.3702 -0.2571 -0.3854
    5DOPE  H11B  526   1.311   3.826   9.858  0.6198 -2.2878  0.3887
    5DOPE     P  527   1.482   3.636   9.944  0.0956  0.2556 -0.2901
    5DOPE   O13  528   1.352   3.589  10.000  0.0274  0.1398 -0.1572
    5DOPE   O14  529   1.607   3.582   9.997  0.2147  0.5349  0.0489
    5DOPE   O11  530   1.469   3.634   9.787  0.2681 -0.2931  0.2212
    5DOPE   O12  531   1.488   3.786   9.973  0.0602  0.1277 -0.5860
    5DOPE    C1  532   1.535   3.722   9.699  0.4497 -0.3002  0.8613
    5DOPE    HA  533   1.558   3.822   9.742  0.4302  0.9986 -1.9256
    5DOPE    HB  534   1.458   3.757   9.627 -0.0925 -1.1934  0.9994
    5DOPE    C2  535   1.648   3.655   9.617  0.7181 -0.5669  0.4148
    5DOPE    HS  536   1.655   3.716   9.525  0.7371  2.4004  2.2332
    5DOPE   O21  537   1.621   3.522   9.580 -0.3705 -0.2996 -0.2564
    5DOPE   C21  538   1.522   3.504   9.498 -0.1053 -0.3403  0.5226
    5DOPE   O22  539   1.467   3.592   9.433  0.0435  0.1923  0.8953
    5DOPE   C22  540   1.465   3.364   9.524 -0.2849  0.0140 -0.2983
    5DOPE   H2R  541   1.357   3.363   9.498  0.0357 -0.4831 -1.6961
    5DOPE   H2S  542   1.487   3.341   9.630 -0.4765 -0.4399 -0.3538
    5DOPE    C3  543   1.785   3.668   9.671  0.5551 -0.6835 -0.0283
    5DOPE    HX  544   1.856   3.620   9.600  1.5732  0.3962  0.2134
    5DOPE    HY  545   1.793   3.603   9.761  0.5077 -0.1676  0.3538
    5DOPE   O31  546   1.816   3.809   9.700  0.1124  0.1828  0.6675
    5DOPE   C31  547   1.928   3.856   9.647 -0.3425 -0.3107 -0.2014
    5DOPE   O32  548   2.006   3.789   9.582  0.2073 -0.1274 -0.8380
    5DOPE   C32  549   1.945   4.011   9.688  0.3125  0.7361 -0.7098
    5DOPE   H2X  550   1.845   4.058   9.697  0.7727  1.4558  1.3928
    5DOPE   H2Y  551   1.987   4.006   9.791  1.8452  0.8775 -1.3034
    5DOPE   C23  552   1.526   3.251   9.432  0.1046 -0.0441  0.5138
    5DOPE   H3R  553   1.482   3.154   9.463  0.3131  0.2173  1.6644
    5DOPE   H3S  554   1.635   3.250   9.454 -0.1915 -2.4898  2.2140
    5DOPE   C24  555   1.485   3.285   9.282 -0.1916  0.2614  0.1937
    5DOPE   H4R  556   1.522   3.387   9.255  1.4109  0.1473  1.7984
    5DOPE   H4S  557   1.376   3.265   9.275  0.1474 -1.8223  0.1516
    5DOPE   C25  558   1.544   3.183   9.192  0.2126  0.1400  0.1169
    5DOPE   H5R  559   1.524   3.083   9.236  1.3783 -0.4547 -0.6445
    5DOPE   H5S  560   1.653   3.198   9.207 -0.2892  3.1431  1.3407
    5DOPE   C26  561   1.505   3.192   9.046 -0.9854  0.2598  0.2211
    5DOPE   H6R  562   1.526   3.291   9.000  1.5879  0.5682  1.8530
    5DOPE   H6S  563   1.396   3.175   9.040 -1.0761  0.8206  0.2142
    5DOPE   C27  564   1.576   3.089   8.950 -0.2271  0.0901 -0.6604
    5DOPE   H7R  565   1.592   2.997   9.011  3.0315  1.5355  0.8785
    5DOPE   H7S  566   1.681   3.121   8.935  0.3559 -1.1195  0.5497
    5DOPE   C28  567   1.513   3.077   8.813 -0.4145  0.4448 -0.0755
    5DOPE   H8R  568   1.579   3.013   8.750 -0.7607 -0.1761  0.1751
    5DOPE   H8S  569   1.516   3.169   8.751  0.3080 -2.0801 -4.1864
    5DOPE   C29  570   1.378   3.014   8.812  0.3939 -0.3338  0.1782
    5DOPE   H9R  571   1.358   2.951   8.900 -0.6340 -1.0533 -0.5535
    5DOPE  C210  572   1.277   3.034   8.716 -0.8489  0.1236 -0.0569
    5DOPE  H10R  573   1.178   2.989   8.729 -1.2476  0.3388 -2.0707
    5DOPE  C211  574   1.289   3.119   8.590 -0.3710  0.1849  0.8920
    5DOPE  H11R  575   1.323   3.222   8.611 -1.0916  1.0535 -1.7873
    5DOPE  H11S  576   1.187   3.137   8.550 -0.1514  0.8909  0.6305
    5DOPE  C212  577   1.369   3.054   8.474  0.1952  2.0497 -0.4940
    5DOPE  H12R  578   1.340   2.951   8.444  3.5319  1.4528 -2.1059
    5DOPE  H12S  579   1.475   3.068   8.504 -0.6102  3.3898  2.0592
    5DOPE  C213  580   1.358   3.131   8.342 -0.7696 -0.0951  0.0929
    5DOPE  H13R  581   1.386   3.236   8.367  1.3453 -0.9718  1.7018
    5DOPE  H13S  582   1.255   3.131   8.300 -0.9285 -1.0209  0.4598
    5DOPE  C214  583   1.459   3.086   8.234  0.1420  0.2198 -0.0283
    5DOPE  H14R  584   1.428   2.987   8.195 -0.3582  0.1600  0.5088
    5DOPE  H14S  585   1.558   3.074   8.282 -1.0119 -1.2027  2.1886
    5DOPE  C215  586   1.465   3.179   8.114 -0.7347  0.5141  0.3109
    5DOPE  H15R  587   1.557   3.158   8.055 -0.2719  1.3303  0.7111
    5DOPE  H15S  588   1.466   3.287   8.143  2.1376  1.0146 -1.2365
    5DOPE  C216  589   1.345   3.164   8.024  0.1598 -0.0312 -0.6582
    5DOPE  H16R  590   1.259   3.207   8.080  0.6333 -0.9666  0.8591
    5DOPE  H16S  591   1.324   3.057   8.003 -0.4162  0.1899 -1.2481
    5DOPE  C217  592   1.348   3.225   7.882 -0.0325  0.3742 -0.6583
    5DOPE  H17R  593   1.426   3.172   7.823 -1.7236 -0.7151 -1.9940
    5DOPE  H17S  594   1.377   3.332   7.888 -1.3439  0.6859  0.6758
    5DOPE  C218  595   1.213   3.205   7.815 -0.3108 -0.3280  0.2713
    5DOPE  H18R  596   1.191   3.097   7.802  0.4209 -1.1211  4.3905
    5DOPE  H18S  597   1.221   3.258   7.717  0.4341  1.2266  1.1409
    5DOPE  H18T  598   1.139   3.265   7.872  0.4812 -0.1119  1.0941
    5DOPE   C33  599   2.048   4.087   9.607 -0.1708 -0.1950 -0.1970
    5DOPE   H3X  600   2.143   4.034   9.631 -0.2735  0.1059  0.9244
    5DOPE   H3Y  601   2.066   4.189   9.647 -1.1528 -0.4354  0.9134
    5DOPE   C34  602   2.018   4.081   9.456 -0.1361  0.1301  0.4192
    5DOPE   H4X  603   2.101   4.130   9.401  0.3551 -0.0657  0.9768
    5DOPE   H4Y  604   2.019   3.978   9.414 -0.9770  1.0362 -2.0203
    5DOPE   C35  605   1.893   4.153   9.413 -0.1541 -0.4251 -0.2254
    5DOPE   H5X  606   1.879   4.238   9.482 -1.2601 -0.1437 -0.7722
    5DOPE   H5Y  607   1.799   4.094   9.419 -0.8976  0.7725  0.3062
    5DOPE   C36  608   1.887   4.223   9.271 -0.2926  0.7975 -0.1372
    5DOPE   H6X  609   1.983   4.277   9.256  0.4601  0.2633  2.2557
    5DOPE   H6Y  610   1.812   4.304   9.259  0.5315  1.8266  1.2428
    5DOPE   C37  611   1.867   4.117   9.158 -0.3728  0.2418  0.5910
    5DOPE   H7X  612   1.773   4.061   9.174  0.2400 -0.6445  1.1156
    5DOPE   H7Y  613   1.854   4.179   9.066 -0.2408 -0.5048  0.0561
    5DOPE   C38  614   1.986   4.023   9.133  0.3542 -0.0915  0.0232
    5DOPE   H8X  615   1.954   3.962   9.046  1.4852  0.7425 -1.0208
    5DOPE   H8Y  616   1.999   3.948   9.213  0.6103 -0.8750 -0.7429
    5DOPE   C39  617   2.110   4.099   9.100  0.1152  0.8282 -0.7968
    5DOPE   H9X  618   2.157   4.143   9.190  0.3139 -1.4111  0.2806
    5DOPE  C310  619   2.161   4.112   8.976  0.0397 -0.2954 -0.3874
    5DOPE  H10X  620   2.259   4.159   8.957 -0.1045 -0.2473 -1.0313
    5DOPE  C311  621   2.095   4.044   8.858  0.2500 -0.3162  0.1988
    5DOPE  H11X  622   2.121   3.937   8.868  1.6409 -0.0704 -0.5176
    5DOPE  H11Y  623   1.986   4.059   8.874  0.5888  0.9954  1.5300
    5DOPE  C312  624   2.143   4.106   8.720 -0.3928 -0.4781 -0.2900
    5DOPE  H12X  625   2.251   4.088   8.701 -0.3699 -0.0016 -0.6275
    5DOPE  H12Y  626   2.119   4.214   8.722  2.4432  0.2364  0.0764
    5DOPE  C313  627   2.064   4.048   8.599  0.1032  0.0691  0.1479
    5DOPE  H13X  628   2.006   3.959   8.633  0.6949 -0.8655 -1.1569
    5DOPE  H13Y  629   1.974   4.108   8.573  0.5922  0.6644 -0.1853
    5DOPE  C314  630   2.149   4.040   8.471  0.5982  0.1947  0.1069
    5DOPE  H14X  631   2.090   3.995   8.388  1.0358  1.0249 -0.6883
    5DOPE  H14Y  632   2.236   3.974   8.492 -1.4043 -2.7210 -0.2216
    5DOPE  C315  633   2.200   4.176   8.421 -0.3284 -0.1259  0.1910
    5DOPE  H15X  634   2.244   4.224   8.511  1.1872  0.5675 -0.8809
    5DOPE  H15Y  635   2.121   4.244   8.384  0.0221  0.0226 -0.2964
    5DOPE  C316  636   2.312   4.169   8.318  0.5086 -0.0001  0.0123
    5DOPE  H16X  637   2.381   4.083   8.329 -0.2854 -1.1589 -3.0972
    5DOPE  H16Y  638   2.372   4.262   8.324 -0.5027  0.6433  0.4106
    5DOPE  C317  639   2.266   4.161   8.173 -0.0427  0.2173  0.2626
    5DOPE  H17X  640   2.188   4.085   8.156 -0.4354  1.0779 -2.0674
    5DOPE  H17Y  641   2.225   4.259   8.140 -3.0266 -0.9811  0.0980
    5DOPE  C318  642   2.382   4.131   8.077  0.0495  0.7832 -0.5506
    5DOPE  H18X  643   2.423   4.034   8.111 -0.8189  0.0865 -1.4211
    5DOPE  H18Y  644   2.358   4.122   7.969 -0.2274 -0.4695 -0.4020
    5DOPE  H18Z  645   2.461   4.209   8.085  2.9118 -2.0949  1.4495
    6DOPE     N  646   1.437   4.630  10.266 -0.0562  0.0080  0.0779
    6DOPE   HN1  647   1.353   4.643  10.207 -0.3460  1.4397  0.7642
    6DOPE   HN2  648   1.430   4.657  10.366  0.4220  0.4574 -0.0069
    6DOPE   HN3  649   1.507   4.696  10.228  0.5310 -1.1239 -0.8616
    6DOPE   C12  650   1.484   4.486  10.249 -0.4494 -0.2744 -0.2617
    6DOPE  H12A  651   1.457   4.459  10.144  0.2254 -0.1576 -0.4732
    6DOPE  H12B  652   1.431   4.414  10.315 -0.5902 -1.9219 -2.0735
    6DOPE   C11  653   1.639   4.480  10.278  0.1901  0.1919 -0.3168
    6DOPE  H11A  654   1.666   4.372  10.275 -0.9984 -0.1105 -0.9725
    6DOPE  H11B  655   1.667   4.524  10.376  1.9657 -0.7285 -0.3715
    6DOPE     P  656   1.708   4.512  10.019 -0.0521 -0.2066  0.4597
    6DOPE   O13  657   1.651   4.379   9.996  0.6865 -0.5711 -0.1433
    6DOPE   O14  658   1.843   4.541   9.968 -0.1078  0.0618 -0.1492
    6DOPE   O11  659   1.610   4.630   9.970 -0.2193 -0.2669 -0.4549
    6DOPE   O12  660   1.710   4.541  10.176  0.4067  0.3039  0.6957
    6DOPE    C1  661   1.611   4.683   9.838  0.1243 -0.0534  0.4791
    6DOPE    HA  662   1.715   4.700   9.802  0.0836 -1.8272 -0.5723
    6DOPE    HB  663   1.557   4.780   9.839  2.0830  1.1045 -0.3045
    6DOPE    C2  664   1.532   4.605   9.732  0.5633 -0.6503  0.2374
    6DOPE    HS  665   1.429   4.587   9.769  0.1133 -2.2139 -1.6232
    6DOPE   O21  666   1.602   4.486   9.698 -0.3366 -0.0662 -0.2263
    6DOPE   C21  667   1.521   4.388   9.665 -0.3055  0.0693  0.5058
    6DOPE   O22  668   1.401   4.395   9.642  0.4333 -0.1700 -0.0896
    6DOPE   C22  669   1.607   4.258   9.647  0.1749  0.4268  0.3330
    6DOPE   H2R  670   1.649   4.229   9.746  0.4447  1.9889  0.7014
    6DOPE   H2S  671   1.693   4.270   9.578  2.2865 -0.6615  2.6301
    6DOPE    C3  672   1.517   4.696   9.606 -0.8497 -0.6761  0.1464
    6DOPE    HX  673   1.460   4.790   9.626  2.0238  1.1497  0.3933
    6DOPE    HY  674   1.461   4.630   9.537  1.4451 -0.8831 -1.6615
    6DOPE   O31  675   1.643   4.738   9.554 -0.4027  0.2729 -0.2781
    6DOPE   C31  676   1.713   4.647   9.480 -0.3054  0.2306  0.6417
    6DOPE   O32  677   1.670   4.537   9.446  1.1987  0.2501  0.1710
    6DOPE   C32  678   1.853   4.689   9.435 -0.6288 -0.1721 -0.2302
    6DOPE   H2X  679   1.849   4.798   9.414 -1.9030 -0.3789 -1.1496
    6DOPE   H2Y  680   1.922   4.672   9.522 -0.4902  1.2971 -0.0409
    6DOPE   C23  681   1.526   4.136   9.593 -0.4931 -0.0020 -0.5390
    6DOPE   H3R  682   1.427   4.119   9.642 -0.9473 -0.4208 -1.5701
    6DOPE   H3S  683   1.582   4.041   9.606 -0.3561  0.2235  0.6190
    6DOPE   C24  684   1.501   4.135   9.443 -1.3922 -0.7476 -0.1957
    6DOPE   H4R  685   1.607   4.146   9.412 -0.7274  0.3035  2.2658
    6DOPE   H4S  686   1.461   4.227   9.394 -0.4686 -0.1868  0.0820
    6DOPE   C25  687   1.452   4.002   9.385 -0.8835  0.3828  0.4864
    6DOPE   H5R  688   1.342   4.012   9.375 -1.0652 -2.1497 -0.9965
    6DOPE   H5S  689   1.461   3.923   9.463 -0.8047  0.1362  0.2309
    6DOPE   C26  690   1.529   3.963   9.255 -0.1564 -0.3088  0.0563
    6DOPE   H6R  691   1.632   3.944   9.292  0.6202  1.1566 -1.2382
    6DOPE   H6S  692   1.531   4.057   9.195  0.5880  0.5925  1.4289
    6DOPE   C27  693   1.460   3.848   9.180  0.1130 -0.6924 -0.3929
    6DOPE   H7R  694   1.350   3.859   9.195  0.4007  2.8711 -0.0865
    6DOPE   H7S  695   1.485   3.750   9.226 -0.3862  0.2621  2.0563
    6DOPE   C28  696   1.480   3.857   9.029  0.4429  0.0993  0.1782
    6DOPE   H8R  697   1.429   3.950   8.997  2.0973  0.4593 -1.5673
    6DOPE   H8S  698   1.435   3.771   8.974  1.2067 -0.6898  0.7596
    6DOPE   C29  699   1.624   3.855   8.996 -0.4482  0.2784  0.3197
    6DOPE   H9R  700   1.671   3.761   9.027 -1.6513 -0.1439  0.9428
    6DOPE  C210  701   1.691   3.941   8.919  0.6974  0.1241  0.4382
    6DOPE  H10R  702   1.796   3.916   8.898  0.3795 -1.0106  0.1215
    6DOPE  C211  703   1.620   4.046   8.832 -0.1180  0.1351  0.0059
    6DOPE  H11R  704   1.694   4.128   8.823 -0.8141  0.8185  0.3347
    6DOPE  H11S  705   1.532   4.083   8.888  0.5779 -1.5044  2.3869
    6DOPE  C212  706   1.565   3.982   8.704  0.4380  0.2475 -0.3150
    6DOPE  H12R  707   1.483   4.045   8.664 -0.4170 -0.5070  0.2103
    6DOPE  H12S  708   1.525   3.881   8.726 -0.0281  0.2785 -0.9845
    6DOPE  C213  709   1.671   3.975   8.590 -0.5988  0.1940  0.0936
    6DOPE  H13R  710   1.763   3.929   8.632 -1.2824 -1.1906  0.1451
    6DOPE  H13S  711   1.702   4.080   8.570  0.6160 -0.1380  0.1492
    6DOPE  C214  712   1.628   3.892   8.468 -0.9021 -0.1939 -0.4028
    6DOPE  H14R  713   1.550   3.938   8.404  0.1165  1.2726 -0.6382
    6DOPE  H14S  714   1.591   3.794   8.505 -2.1208  0.4463  0.1194
    6DOPE  C215  715   1.752   3.865   8.381 -0.8014  0.1947  0.7102
    6DOPE  H15R  716   1.734   3.780   8.312  0.8667  0.6249 -0.3247
    6DOPE  H15S  717   1.828   3.823   8.450  0.3019  1.4777  0.3320
    6DOPE  C216  718   1.810   3.980   8.297  0.1361  0.5166 -0.3038
    6DOPE  H16R  719   1.908   3.947   8.257  0.5092  1.2494 -0.0292
    6DOPE  H16S  720   1.833   4.068   8.361  0.5197 -0.1608  0.5149
    6DOPE  C217  721   1.719   4.028   8.175 -0.0525  0.1244 -0.1831
    6DOPE  H17R  722   1.621   4.060   8.217 -1.2623  1.4453 -3.6946
    6DOPE  H17S  723   1.699   3.943   8.107  0.4118 -0.0697 -0.0827
    6DOPE  C218  724   1.791   4.137   8.092  0.8012 -0.5199  0.0987
    6DOPE  H18R  725   1.830   4.219   8.158  0.9761  0.8198 -1.6022
    6DOPE  H18S  726   1.727   4.173   8.009  0.1892 -1.0327  0.3423
    6DOPE  H18T  727   1.868   4.084   8.032  0.8196 -1.7449  1.1744
    6DOPE   C33  728   1.900   4.597   9.316 -0.2065  0.0596  0.6108
    6DOPE   H3X  729   1.818   4.603   9.241  2.2421 -1.0404 -2.3622
    6DOPE   H3Y  730   1.898   4.490   9.347 -2.1337 -0.4649 -1.0728
    6DOPE   C34  731   2.042   4.634   9.262 -0.4415  0.0935 -0.2758
    6DOPE   H4X  732   2.043   4.744   9.249 -0.8046  0.4141  2.0210
    6DOPE   H4Y  733   2.120   4.622   9.341  1.2342  0.4897 -1.7922
    6DOPE   C35  734   2.086   4.556   9.139 -0.3646  0.4026  0.3491
    6DOPE   H5X  735   2.027   4.462   9.129 -0.3613  0.4463 -0.1066
    6DOPE   H5Y  736   2.192   4.526   9.154 -0.5241 -0.2212  0.2721
    6DOPE   C36  737   2.070   4.644   9.018  0.5502 -0.6430 -0.3212
    6DOPE   H6X  738   2.150   4.720   9.010  1.2919 -1.3093  0.4706
    6DOPE   H6Y  739   1.966   4.680   9.005 -0.5189 -2.3222  2.4753
    6DOPE   C37  740   2.092   4.556   8.890 -0.4656 -0.8138 -0.7141
    6DOPE   H7X  741   2.193   4.509   8.898 -0.4222 -0.9757 -1.9645
    6DOPE   H7Y  742   2.017   4.474   8.881  0.2528 -1.4002 -1.6498
    6DOPE   C38  743   2.081   4.635   8.758  0.0396  0.0867  0.2322
    6DOPE   H8X  744   2.145   4.726   8.752  0.0640 -0.0056 -1.5442
    6DOPE   H8Y  745   1.975   4.666   8.752  0.2285  0.6637 -0.3603
    6DOPE   C39  746   2.108   4.536   8.643 -0.7766  0.5393  0.3288
    6DOPE   H9X  747   2.064   4.436   8.656  0.4554  0.2034  2.4695
    6DOPE  C310  748   2.149   4.575   8.523 -0.3571  0.1027  0.0171
    6DOPE  H10X  749   2.160   4.499   8.444  1.2534  0.0719  0.2391
    6DOPE  C311  750   2.197   4.713   8.476  0.5826  0.0840  0.3892
    6DOPE  H11X  751   2.115   4.785   8.491 -0.2680 -0.5218 -1.0624
    6DOPE  H11Y  752   2.287   4.749   8.530  0.9978  0.8582 -0.7729
    6DOPE  C312  753   2.225   4.694   8.321  0.5528 -0.2613  0.0679
    6DOPE  H12X  754   2.237   4.794   8.276 -0.1852 -0.6000 -0.9108
    6DOPE  H12Y  755   2.132   4.654   8.276  1.1043  0.2146 -1.5371
    6DOPE  C313  756   2.345   4.599   8.285 -0.4884 -0.5844 -0.4203
    6DOPE  H13X  757   2.439   4.637   8.329  0.6048 -2.6190 -0.9050
    6DOPE  H13Y  758   2.342   4.492   8.312 -0.4120 -0.6639 -0.7255
    6DOPE  C314  759   2.375   4.609   8.137  0.4805  0.6355  0.1064
    6DOPE  H14X  760   2.367   4.713   8.100 -0.4529  0.6560  0.3270
    6DOPE  H14Y  761   2.294   4.565   8.074  2.6395  0.5570 -2.8081
    6DOPE  C315  762   2.510   4.547   8.113 -0.5699  0.3754  0.0820
    6DOPE  H15X  763   2.491   4.441   8.141  1.7508 -0.0085  0.3448
    6DOPE  H15Y  764   2.587   4.596   8.177 -1.7152  1.5034  0.6513
    6DOPE  C316  765   2.546   4.541   7.963  0.0429  0.3551  0.4478
    6DOPE  H16X  766   2.550   4.649   7.937 -0.6898  1.0066  2.7937
    6DOPE  H16Y  767   2.465   4.491   7.905  0.4816 -1.3057  1.1980
    6DOPE  C317  768   2.682   4.465   7.934 -0.4341  0.1724 -0.7085
    6DOPE  H17X  769   2.714   4.507   7.836  1.0297  1.9745  0.4624
    6DOPE  H17Y  770   2.754   4.492   8.014 -0.6468  1.7580 -1.0217
    6DOPE  C318  771   2.673   4.315   7.926  0.2711  0.2450  0.2062
    6DOPE  H18X  772   2.778   4.282   7.906  1.0295  0.6133  3.0048
    6DOPE  H18Y  773   2.624   4.260   8.010  2.1364  0.1508  1.2998
    6DOPE  H18Z  774   2.610   4.294   7.837  0.4759 -0.4849  0.2238
    7DOPE     N  775   3.858   4.955  10.514 -0.5585  0.0676 -0.9796
    7DOPE   HN1  776   3.780   5.017  10.483 -0.1641  1.5110  0.7488
    7DOPE   HN2  777   3.831   4.915  10.607  2.3310  1.5306  0.6350
    7DOPE   HN3  778   3.941   5.013  10.535  0.1339 -1.1566 -0.2061
    7DOPE   C12  779   3.895   4.874  10.393  0.3441  1.0153  0.3604
    7DOPE  H12A  780   3.820   4.791  10.393  0.6700  0.7177  0.8792
    7DOPE  H12B  781   3.998   4.838  10.410 -0.2159 -0.1740  1.4162
    7DOPE   C11  782   3.876   4.942  10.257 -0.6046 -0.1624  0.0708
    7DOPE  H11A  783   3.769   4.960  10.234  0.1052  3.3767 -1.0762
    7DOPE  H11B  784   3.909   4.870  10.180 -1.8143 -0.0410 -0.5787
    7DOPE     P  785   4.084   5.095  10.222  0.0002  0.1394  0.2413
    7DOPE   O13  786   4.163   5.020  10.325  0.3581  0.3543  0.7903
    7DOPE   O14  787   4.105   5.239  10.208  0.7069  0.3603  0.7588
    7DOPE   O11  788   4.105   5.028  10.084 -0.1090  0.1831 -0.1553
    7DOPE   O12  789   3.930   5.072  10.253  0.0152 -0.0494 -0.4963
    7DOPE    C1  790   4.024   5.053   9.968 -0.9406 -0.1773  0.1444
    7DOPE    HA  791   3.983   5.156   9.973 -0.3698  0.0457  0.3850
    7DOPE    HB  792   3.935   4.987   9.964 -0.6830 -0.4800 -0.7950
    7DOPE    C2  793   4.103   5.052   9.832 -0.5859 -0.1266 -0.4004
    7DOPE    HS  794   4.158   4.955   9.828  0.1744  0.3008 -0.5395
    7DOPE   O21  795   4.196   5.162   9.816  0.1004  0.5446  0.1703
    7DOPE   C21  796   4.306   5.143   9.740  0.7002 -0.4520 -0.3542
    7DOPE   O22  797   4.343   5.041   9.691  0.2995 -0.0774  0.7951
    7DOPE   C22  798   4.393   5.274   9.742 -0.5276 -0.9452 -0.0994
    7DOPE   H2R  799   4.466   5.258   9.824  0.6690  0.3010 -0.8807
    7DOPE   H2S  800   4.320   5.350   9.777 -0.2330 -1.0487  0.7576
    7DOPE    C3  801   3.994   5.063   9.718  0.0962 -0.2301 -0.1485
    7DOPE    HX  802   3.955   5.167   9.714  0.9047  0.1256  0.7123
    7DOPE    HY  803   3.905   5.010   9.757  1.0660 -1.0604  1.0265
    7DOPE   O31  804   4.044   5.023   9.585  0.7757 -0.2151  0.2655
    7DOPE   C31  805   4.033   4.894   9.579  0.1936 -0.1809 -0.6042
    7DOPE   O32  806   3.988   4.820   9.670  0.1757 -0.5788  0.2671
    7DOPE   C32  807   4.093   4.840   9.449 -0.5463  0.3959  0.1142
    7DOPE   H2X  808   4.071   4.731   9.440  0.0439  0.3069 -0.3071
    7DOPE   H2Y  809   4.052   4.903   9.367 -2.0938  0.6486  1.0417
    7DOPE   C23  810   4.452   5.318   9.605 -0.3520  0.4717  0.2374
    7DOPE   H3R  811   4.495   5.419   9.621 -0.7310  0.8083 -0.7471
    7DOPE   H3S  812   4.367   5.329   9.533 -1.0314 -0.0720  0.9369
    7DOPE   C24  813   4.553   5.214   9.554 -0.3140  0.2549 -0.4112
    7DOPE   H4R  814   4.514   5.111   9.547 -1.7354  0.5600  1.7988
    7DOPE   H4S  815   4.634   5.203   9.629 -0.6080  0.0845 -0.1116
    7DOPE   C25  816   4.612   5.265   9.421 -0.2194 -0.5025 -1.0150
    7DOPE   H5R  817   4.693   5.332   9.455 -1.4563  1.6386 -2.0401
    7DOPE   H5S  818   4.529   5.320   9.372 -0.2988  2.6672  2.2813
    7DOPE   C26  819   4.672   5.155   9.326  0.1787  0.3336 -0.3527
    7DOPE   H6R  820   4.593   5.106   9.266  1.2314  0.3516 -1.8022
    7DOPE   H6S  821   4.733   5.085   9.387  0.2744  1.5817  1.0243
    7DOPE   C27  822   4.774   5.209   9.221 -0.0794  0.9844 -0.0209
    7DOPE   H7R  823   4.825   5.119   9.180  0.0439  1.2137 -0.3787
    7DOPE   H7S  824   4.846   5.255   9.292  0.6111 -0.0378 -0.0431
    7DOPE   C28  825   4.721   5.289   9.105 -0.1887 -0.2765  0.9146
    7DOPE   H8R  826   4.813   5.332   9.060 -1.1600 -0.9065 -1.8376
    7DOPE   H8S  827   4.656   5.371   9.142  1.0448  1.0236  0.2906
    7DOPE   C29  828   4.634   5.198   9.016 -0.0287 -0.0330  0.2448
    7DOPE   H9R  829   4.540   5.167   9.064  0.3043 -2.2888 -0.4187
    7DOPE  C210  830   4.659   5.154   8.888  0.5725  0.1210  0.0973
    7DOPE  H10R  831   4.588   5.079   8.848  1.2164  0.6896 -2.2227
    7DOPE  C211  832   4.787   5.185   8.812 -0.4758 -0.6753  0.6097
    7DOPE  H11R  833   4.874   5.119   8.830  0.5419 -1.0172 -4.2309
    7DOPE  H11S  834   4.822   5.287   8.838  0.0809  0.0174 -2.4703
    7DOPE  C212  835   4.771   5.169   8.660  0.2944 -0.3034  0.0164
    7DOPE  H12R  836   4.694   5.240   8.623 -0.3829  0.0770  2.0407
    7DOPE  H12S  837   4.745   5.064   8.635 -0.7684 -0.2881  0.9704
    7DOPE  C213  838   4.895   5.200   8.570  0.2285 -0.1384  0.1639
    7DOPE  H13R  839   4.973   5.123   8.587 -0.3223 -0.9519 -0.9021
    7DOPE  H13S  840   4.933   5.303   8.589  0.5766 -0.1736 -0.3182
    7DOPE  C214  841   4.853   5.193   8.424  0.7882  1.2784 -0.5976
    7DOPE  H14R  842   4.768   5.257   8.391  0.8510  2.1852  0.8996
    7DOPE  H14S  843   4.817   5.089   8.407  0.5566  1.4248 -1.0039
    7DOPE  C215  844   4.975   5.225   8.343 -0.0159 -0.1559  0.8711
    7DOPE  H15R  845   5.063   5.168   8.381 -0.9089 -3.6538 -1.7630
    7DOPE  H15S  846   5.008   5.329   8.362 -0.8427  0.1593  0.6239
    7DOPE  C216  847   4.953   5.194   8.200 -0.8745 -0.1970  0.3169
    7DOPE  H16R  848   4.852   5.220   8.161 -1.5584 -3.8958 -0.7938
    7DOPE  H16S  849   4.955   5.084   8.191 -0.2436 -0.3762  2.1929
    7DOPE  C217  850   5.069   5.244   8.114 -0.5099 -0.2164 -0.3187
    7DOPE  H17R  851   5.159   5.184   8.142 -0.3271 -0.2294 -0.9342
    7DOPE  H17S  852   5.091   5.349   8.141  1.4103 -0.5915 -0.3031
    7DOPE  C218  853   5.040   5.238   7.965 -0.0156 -0.7456 -0.5583
    7DOPE  H18R  854   4.948   5.294   7.941 -0.5722  0.6339  3.9049
    7DOPE  H18S  855   5.037   5.131   7.936 -1.0531 -0.2806 -2.3418
    7DOPE  H18T  856   5.119   5.280   7.898  0.7981  0.0346  0.8437
    7DOPE   C33  857   4.246   4.854   9.438 -0.5086  0.1352 -0.6701
    7DOPE   H3X  858   4.300   4.802   9.520 -1.7645 -0.8479 -0.4471
    7DOPE   H3Y  859   4.271   4.962   9.450  0.4872 -0.2046  0.5948
    7DOPE   C34  860   4.301   4.811   9.297  0.0555 -0.4992 -0.2696
    7DOPE   H4X  861   4.325   4.703   9.308  1.4378 -0.0586  1.6995
    7DOPE   H4Y  862   4.226   4.836   9.220  0.2708 -0.2945 -0.4163
    7DOPE   C35  863   4.428   4.889   9.242 -0.0450  0.8137 -0.1559
    7DOPE   H5X  864   4.514   4.865   9.309 -0.3548 -1.1954 -0.4189
    7DOPE   H5Y  865   4.401   4.994   9.264 -0.9256  0.6267 -0.3349
    7DOPE   C36  866   4.465   4.853   9.095  0.5578  0.3473 -0.4410
    7DOPE   H6X  867   4.483   4.744   9.087  0.9995  0.1277  2.5449
    7DOPE   H6Y  868   4.564   4.902   9.083  1.5224 -0.8855  1.8315
    7DOPE   C37  869   4.370   4.906   8.984 -0.5722 -0.2351 -0.3141
    7DOPE   H7X  870   4.271   4.858   9.001  0.4862 -1.5017  3.1364
    7DOPE   H7Y  871   4.344   5.012   9.007 -3.6911 -1.1365  0.8657
    7DOPE   C38  872   4.410   4.870   8.844 -0.0149  0.0212  0.4505
    7DOPE   H8X  873   4.389   4.761   8.839  1.0295 -0.3400  2.7531
    7DOPE   H8Y  874   4.519   4.888   8.828  0.0625 -0.5234  0.3701
    7DOPE   C39  875   4.319   4.945   8.746 -0.0611 -1.2271 -0.2893
    7DOPE   H9X  876   4.240   5.004   8.795  0.2936 -0.7396 -0.3001
    7DOPE  C310  877   4.339   4.952   8.610  0.5917  0.6348  0.0352
    7DOPE  H10X  878   4.272   5.008   8.543 -0.6104 -2.4153 -1.4638
    7DOPE  C311  879   4.439   4.866   8.535 -0.0116 -0.3580 -0.0839
    7DOPE  H11X  880   4.508   4.816   8.606 -1.2855  0.3841  1.7794
    7DOPE  H11Y  881   4.386   4.783   8.484  0.6494 -1.6163  1.2330
    7DOPE  C312  882   4.525   4.951   8.432  0.2246 -0.5019 -0.0032
    7DOPE  H12X  883   4.601   5.010   8.487  1.0273  0.0452 -1.6277
    7DOPE  H12Y  884   4.459   5.021   8.376 -1.6836 -1.3858  1.0388
    7DOPE  C313  885   4.593   4.871   8.320  0.5732 -0.2968 -0.1885
    7DOPE  H13X  886   4.681   4.813   8.357 -0.6321 -3.0065 -1.3322
    7DOPE  H13Y  887   4.528   4.791   8.279 -0.8228  0.9017 -0.3989
    7DOPE  C314  888   4.642   4.971   8.203 -0.2064  0.3864 -0.5758
    7DOPE  H14X  889   4.722   5.046   8.220 -1.3767  1.7122 -0.8017
    7DOPE  H14Y  890   4.552   5.031   8.179  0.8122  1.4546 -1.8686
    7DOPE  C315  891   4.678   4.902   8.076 -0.3112 -0.0075  0.5390
    7DOPE  H15X  892   4.605   4.827   8.038  0.7726 -0.6468 -0.3660
    7DOPE  H15Y  893   4.772   4.846   8.100 -0.1482  0.4886  1.0813
    7DOPE  C316  894   4.712   5.005   7.966  0.2723 -0.0767 -0.1449
    7DOPE  H16X  895   4.784   5.077   8.011  1.2966 -2.7693  2.9490
    7DOPE  H16Y  896   4.619   5.063   7.949 -0.0557 -0.0460  1.5923
    7DOPE  C317  897   4.765   4.953   7.835  0.3453  0.5542 -0.6023
    7DOPE  H17X  898   4.817   5.028   7.771  2.2083 -0.8419 -0.7897
    7DOPE  H17Y  899   4.840   4.873   7.853  0.4772  0.6891 -0.5543
    7DOPE  C318  900   4.657   4.876   7.757  0.2686 -0.3106  0.2502
    7DOPE  H18X  901   4.604   4.795   7.812  1.6647 -2.0484 -0.8446
    7DOPE  H18Y  902   4.578   4.938   7.709  2.0038  1.4758 -0.4523
    7DOPE  H18Z  903   4.703   4.807   7.682  0.8154 -0.5099  0.7604
    8DOPE     N  904   4.832   6.230  10.204  0.0786 -0.8183  0.4011
    8DOPE   HN1  905   4.857   6.280  10.291  1.7768 -1.8955  0.5698
    8DOPE   HN2  906   4.762   6.155  10.224 -2.0563  1.0023  0.2212
    8DOPE   HN3  907   4.917   6.190  10.160  1.5112  1.0037  1.3818
    8DOPE   C12  908   4.796   6.333  10.101 -0.9556 -0.2077 -0.3538
    8DOPE  H12A  909   4.887   6.386  10.066 -1.5450  1.2307  0.2122
    8DOPE  H12B  910   4.730   6.411  10.144  0.9773  0.4717  1.5781
    8DOPE   C11  911   4.730   6.266   9.971  0.2188 -0.0605 -0.4794
    8DOPE  H11A  912   4.813   6.208   9.924  1.2663 -0.6011  1.8423
    8DOPE  H11B  913   4.703   6.354   9.909 -1.1212 -1.1097 -1.4373
    8DOPE     P  914   4.646   6.027  10.006  0.4163  0.0771 -0.0086
    8DOPE   O13  915   4.517   5.968  10.042 -0.1689  0.0133  0.9407
    8DOPE   O14  916   4.760   5.982  10.089  0.5511  0.2591 -0.4367
    8DOPE   O11  917   4.676   6.001   9.850  0.1664  0.1098  0.7992
    8DOPE   O12  918   4.630   6.182  10.019  0.3237  0.2487 -0.2004
    8DOPE    C1  919   4.569   6.045   9.763 -0.1613  0.4581  0.3496
    8DOPE    HA  920   4.608   6.117   9.688  0.4020  0.9385  1.0740
    8DOPE    HB  921   4.479   6.094   9.806  0.5990  1.7456  0.5554
    8DOPE    C2  922   4.506   5.923   9.688 -0.5276 -1.1098  0.1041
    8DOPE    HS  923   4.461   5.869   9.774  0.0316 -0.8938  0.5445
    8DOPE   O21  924   4.606   5.842   9.626  0.6238 -0.2805 -0.0681
    8DOPE   C21  925   4.583   5.713   9.612 -0.0455  0.3195  0.5885
    8DOPE   O22  926   4.491   5.655   9.665  0.0449 -0.0122 -0.7675
    8DOPE   C22  927   4.683   5.655   9.516 -0.2833 -0.1531  0.2828
    8DOPE   H2R  928   4.735   5.569   9.564 -1.5762  0.2019  2.4600
    8DOPE   H2S  929   4.763   5.730   9.498  0.7200 -0.7190  2.1427
    8DOPE    C3  930   4.386   5.960   9.592 -0.6336 -0.8253 -0.0777
    8DOPE    HX  931   4.320   6.012   9.665  0.1271 -2.6631  2.0345
    8DOPE    HY  932   4.325   5.869   9.570 -0.2652 -1.1250  0.1186
    8DOPE   O31  933   4.427   6.022   9.469  0.0046 -0.0764  0.6365
    8DOPE   C31  934   4.397   6.153   9.458  0.6240 -0.0814 -0.4536
    8DOPE   O32  935   4.345   6.222   9.548  0.4093 -0.1646  0.3165
    8DOPE   C32  936   4.439   6.210   9.323 -0.0013  0.8110 -0.2655
    8DOPE   H2X  937   4.391   6.310   9.315 -1.1198  0.3762  0.6226
    8DOPE   H2Y  938   4.547   6.232   9.337  0.0564  0.4863 -0.1788
    8DOPE   C23  939   4.625   5.604   9.377  0.4742 -1.0340 -0.1545
    8DOPE   H3R  940   4.541   5.535   9.398 -1.0518  0.4300 -1.1678
    8DOPE   H3S  941   4.699   5.544   9.320  1.0973 -0.5525  0.1355
    8DOPE   C24  942   4.558   5.716   9.290 -0.1442 -0.3639 -0.1355
    8DOPE   H4R  943   4.637   5.789   9.264 -0.9235 -0.4047 -2.9155
    8DOPE   H4S  944   4.484   5.764   9.358  2.0835  1.2010  1.3361
    8DOPE   C25  945   4.503   5.675   9.148  0.4065  0.1426  0.2579
    8DOPE   H5R  946   4.419   5.603   9.156  0.5652 -0.2867 -1.5089
    8DOPE   H5S  947   4.597   5.630   9.109 -0.5163 -0.0725 -1.8528
    8DOPE   C26  948   4.470   5.785   9.046  0.3436 -1.0319 -0.3043
    8DOPE   H6R  949   4.558   5.853   9.045 -0.8563  0.6263  0.7176
    8DOPE   H6S  950   4.389   5.849   9.088  1.8965  1.4849 -0.9640
    8DOPE   C27  951   4.421   5.753   8.908  0.2665  0.1640  0.6027
    8DOPE   H7R  952   4.494   5.706   8.838  0.0372  0.2879  0.2748
    8DOPE   H7S  953   4.414   5.852   8.858  1.4136 -0.1515 -0.2310
    8DOPE   C28  954   4.280   5.680   8.899 -0.1399  0.3916 -0.6142
    8DOPE   H8R  955   4.303   5.584   8.951  0.9631  0.1356 -1.5464
    8DOPE   H8S  956   4.285   5.649   8.793  0.8929  2.3459 -1.2028
    8DOPE   C29  957   4.158   5.756   8.944 -0.2464  0.5705  0.1908
    8DOPE   H9R  958   4.149   5.764   9.053  1.1323 -3.0342  0.6856
    8DOPE  C210  959   4.069   5.822   8.867  0.1051 -0.4982 -0.7427
    8DOPE  H10R  960   3.982   5.859   8.923  1.8615  2.0746  0.5092
    8DOPE  C211  961   4.077   5.829   8.720 -0.0762  0.1204  0.4421
    8DOPE  H11R  962   3.973   5.825   8.682 -1.1661 -0.1994  3.1857
    8DOPE  H11S  963   4.119   5.742   8.666 -1.5280 -0.7331  0.6343
    8DOPE  C212  964   4.151   5.958   8.670 -0.0389  0.3127 -0.1928
    8DOPE  H12R  965   4.252   5.932   8.709 -0.3742 -3.0093 -1.1768
    8DOPE  H12S  966   4.115   6.053   8.715 -3.3727 -1.5319  1.4518
    8DOPE  C213  967   4.164   5.967   8.515 -0.3783  0.4389 -0.1122
    8DOPE  H13R  968   4.071   6.008   8.469 -0.6562  1.4093  1.2316
    8DOPE  H13S  969   4.189   5.867   8.474  1.1522  0.5828  0.4167
    8DOPE  C214  970   4.297   6.040   8.476  1.4841  0.2191 -0.7288
    8DOPE  H14R  971   4.381   5.975   8.507 -0.3840 -1.8689  0.2365
    8DOPE  H14S  972   4.310   6.143   8.517 -1.5725  1.7159 -3.0803
    8DOPE  C215  973   4.301   6.058   8.327 -0.2246 -0.0901  0.7852
    8DOPE  H15R  974   4.216   6.115   8.283  0.2636  0.5660  0.6835
    8DOPE  H15S  975   4.293   5.959   8.278  0.4641  0.6448 -0.9011
    8DOPE  C216  976   4.432   6.127   8.276 -0.3255  0.2791 -0.2976
    8DOPE  H16R  977   4.522   6.068   8.300 -0.6690  0.4939  1.6916
    8DOPE  H16S  978   4.450   6.226   8.323 -0.1569 -0.2647  0.8101
    8DOPE  C217  979   4.442   6.145   8.122 -0.1511 -0.7230  0.0900
    8DOPE  H17R  980   4.544   6.182   8.097  0.2167 -1.8879 -0.2237
    8DOPE  H17S  981   4.374   6.227   8.093 -0.5816  0.1239  3.1619
    8DOPE  C218  982   4.410   6.027   8.031 -0.5062 -0.3475 -0.2224
    8DOPE  H18R  983   4.305   5.994   8.045 -1.4787  0.9683 -3.4807
    8DOPE  H18S  984   4.485   5.947   8.049  2.1246  2.1148  0.3820
    8DOPE  H18T  985   4.424   6.051   7.924 -1.2293  0.5714 -0.1228
    8DOPE   C33  986   4.394   6.120   9.204 -0.9966  0.8982  0.0863
    8DOPE   H3X  987   4.288   6.087   9.209 -0.3968 -1.0485  1.0012
    8DOPE   H3Y  988   4.453   6.026   9.212 -1.2073  0.9252  2.7668
    8DOPE   C34  989   4.433   6.199   9.073 -0.4697  0.6806 -0.1811
    8DOPE   H4X  990   4.534   6.244   9.082  0.9225 -2.2259 -0.1671
    8DOPE   H4Y  991   4.438   6.129   8.987 -1.5140 -0.3181  0.5445
    8DOPE   C35  992   4.339   6.307   9.031  0.6226 -0.0411  0.0941
    8DOPE   H5X  993   4.329   6.371   9.121 -0.5448  0.9503 -0.7024
    8DOPE   H5Y  994   4.235   6.269   9.024  0.1935  1.1316 -0.2047
    8DOPE   C36  995   4.366   6.395   8.905 -0.1499  0.7216  0.2085
    8DOPE   H6X  996   4.476   6.402   8.896  0.0980 -0.7733  1.6736
    8DOPE   H6Y  997   4.333   6.495   8.939 -1.7129  1.3032 -2.6450
    8DOPE   C37  998   4.284   6.354   8.778  0.7842 -0.7286  0.9917
    8DOPE   H7X  999   4.323   6.256   8.744  0.0554 -0.6426 -0.1578
    8DOPE   H7Y 1000   4.182   6.334   8.815  0.8779 -0.0382  1.6524
    8DOPE   C38 1001   4.286   6.461   8.663  0.1056  0.7983 -0.8835
    8DOPE   H8X 1002   4.394   6.466   8.636  0.1003  2.5221 -0.6490
    8DOPE   H8Y 1003   4.242   6.557   8.695 -3.3705 -0.2422 -2.0396
    8DOPE   C39 1004   4.219   6.421   8.536 -0.1043  0.5642  0.0825
    8DOPE   H9X 1005   4.160   6.328   8.540  0.9609 -0.2384 -1.6776
    8DOPE  C310 1006   4.238   6.474   8.415 -0.3275  0.4835  0.0811
    8DOPE  H10X 1007   4.178   6.432   8.333  2.2184 -1.7482 -0.7799
    8DOPE  C311 1008   4.343   6.572   8.375 -0.6140  0.7411 -0.1602
    8DOPE  H11X 1009   4.422   6.598   8.450 -0.5463  0.4073 -0.1145
    8DOPE  H11Y 1010   4.395   6.532   8.286 -0.6642 -0.7139  0.4371
    8DOPE  C312 1011   4.270   6.706   8.333 -0.1246 -0.0498 -0.3739
    8DOPE  H12X 1012   4.219   6.754   8.420  1.2711  0.5344  0.1461
    8DOPE  H12Y 1013   4.186   6.691   8.261  0.1983  0.1702 -0.7979
    8DOPE  C313 1014   4.375   6.810   8.279 -0.1371 -0.4735  0.1294
    8DOPE  H13X 1015   4.318   6.904   8.259 -0.6707 -0.9683 -0.8027
    8DOPE  H13Y 1016   4.460   6.836   8.345  0.5573  0.4429 -1.0830
    8DOPE  C314 1017   4.428   6.772   8.135 -0.7866 -0.0825 -0.2386
    8DOPE  H14X 1018   4.509   6.698   8.150  0.3800  1.3729  1.0375
    8DOPE  H14Y 1019   4.474   6.864   8.092  1.0172 -1.6058 -1.7623
    8DOPE  C315 1020   4.329   6.710   8.037  0.0265 -0.3791 -0.3785
    8DOPE  H15X 1021   4.227   6.754   8.025  0.0360 -0.0579  0.6138
    8DOPE  H15Y 1022   4.302   6.612   8.080  0.2258  0.4194  1.6732
    8DOPE  C316 1023   4.388   6.693   7.895 -0.0077 -0.3246  0.4051
    8DOPE  H16X 1024   4.447   6.782   7.863  0.1759 -0.1990  1.0611
    8DOPE  H16Y 1025   4.304   6.673   7.825  0.7455 -0.4363 -0.4842
    8DOPE  C317 1026   4.487   6.576   7.887 -0.6168  0.3378  0.5051
    8DOPE  H17X 1027   4.543   6.576   7.792  0.9933  0.8027  1.4180
    8DOPE  H17Y 1028   4.564   6.591   7.966 -0.9672  2.0860  0.5474
    8DOPE  C318 1029   4.423   6.442   7.886  0.3916  0.2083 -0.9017
    8DOPE  H18X 1030   4.350   6.445   7.802  0.6437  2.3354 -1.1084
    8DOPE  H18Y 1031   4.367   6.420   7.979 -0.4204  3.0249 -0.6412
    8DOPE  H18Z 1032   4.490   6.354   7.875 -1.3785 -1.2243 -0.6836
    9DOPE     N 1033   0.625   3.859   9.908 -0.5644 -0.1023  0.1153
    9DOPE   HN1 1034   0.561   3.863   9.826 -1.1215 -0.8254  0.5052
    9DOPE   HN2 1035   0.574   3.839   9.996  1.7406  1.0441  1.7994
    9DOPE   HN3 1036   0.661   3.956   9.906  0.7814 -0.5850 -0.8822
    9DOPE   C12 1037   0.721   3.752   9.874  0.6741  0.2559  0.2643
    9DOPE  H12A 1038   0.669   3.654   9.865  1.8661 -0.3872  0.1181
    9DOPE  H12B 1039   0.790   3.736   9.960 -0.4738  0.2180  1.1887
    9DOPE   C11 1040   0.791   3.785   9.746  0.1477  0.4421  0.2630
    9DOPE  H11A 1041   0.722   3.780   9.660  2.1764 -0.4333 -1.4190
    9DOPE  H11B 1042   0.868   3.709   9.720  0.1021  0.8711 -1.2290
    9DOPE     P 1043   0.991   3.934   9.838 -0.0773 -0.1741  0.6984
    9DOPE   O13 1044   1.009   3.831   9.946  0.3918  0.2587  0.4441
    9DOPE   O14 1045   1.017   4.079   9.868 -0.2897  0.0707  0.0778
    9DOPE   O11 1046   1.094   3.902   9.723  0.7705 -0.3599  0.3451
    9DOPE   O12 1047   0.852   3.915   9.760 -0.1547 -0.4147  0.0076
    9DOPE    C1 1048   1.101   3.978   9.602 -0.3850  0.1073  0.3235
    9DOPE    HA 1049   1.200   4.026   9.589 -1.7518  2.4864 -2.2247
    9DOPE    HB 1050   1.026   4.059   9.594 -2.0674 -1.3631  0.4676
    9DOPE    C2 1051   1.068   3.887   9.479 -0.0271 -0.1819  0.4995
    9DOPE    HS 1052   1.106   3.933   9.385 -2.0934  0.7742  0.0705
    9DOPE   O21 1053   0.926   3.846   9.468  0.3266  0.2140  0.1801
    9DOPE   C21 1054   0.858   3.942   9.407 -0.0991 -0.6948 -0.0820
    9DOPE   O22 1055   0.909   4.040   9.360  0.5000  0.7204 -0.6815
    9DOPE   C22 1056   0.709   3.915   9.408  0.4664  0.0507 -0.0859
    9DOPE   H2R 1057   0.675   3.932   9.513 -0.4899 -2.2064  0.0285
    9DOPE   H2S 1058   0.699   3.806   9.386 -0.5528 -0.5118  2.7658
    9DOPE    C3 1059   1.152   3.754   9.485  0.4361  0.0068  0.1854
    9DOPE    HX 1060   1.101   3.692   9.562 -0.2647  2.1695  1.5546
    9DOPE    HY 1061   1.255   3.775   9.521  0.9693  1.1623 -1.8767
    9DOPE   O31 1062   1.169   3.698   9.350  0.9213  0.1414  0.1392
    9DOPE   C31 1063   1.177   3.565   9.359  0.6178 -0.2741 -0.6417
    9DOPE   O32 1064   1.145   3.497   9.457  0.7152 -0.3173  0.2217
    9DOPE   C32 1065   1.235   3.523   9.225 -0.0058  0.6480 -0.2288
    9DOPE   H2X 1066   1.342   3.552   9.214  0.5439 -1.0694  0.2766
    9DOPE   H2Y 1067   1.248   3.413   9.233 -2.3032  0.1764 -1.9442
    9DOPE   C23 1068   0.628   4.002   9.319 -0.6172 -0.2567 -0.4364
    9DOPE   H3R 1069   0.658   4.109   9.322  0.3205 -0.4915 -1.0755
    9DOPE   H3S 1070   0.522   3.988   9.348 -0.7990 -0.2422 -1.0756
    9DOPE   C24 1071   0.637   3.961   9.174 -0.1445  0.8795 -0.4883
    9DOPE   H4R 1072   0.589   3.861   9.163  2.4587 -0.8383  2.1967
    9DOPE   H4S 1073   0.745   3.946   9.154 -0.2881  1.5384 -1.8997
    9DOPE   C25 1074   0.576   4.062   9.077  0.0003 -0.9836 -0.5375
    9DOPE   H5R 1075   0.614   4.163   9.103  0.4000 -1.2953  0.1356
    9DOPE   H5S 1076   0.472   4.078   9.113  0.8946  1.8565  1.1544
    9DOPE   C26 1077   0.569   4.042   8.930  0.0887  0.6219  0.4109
    9DOPE   H6R 1078   0.517   3.946   8.909  2.1068  0.1651 -3.1847
    9DOPE   H6S 1079   0.672   4.030   8.891  1.3533  1.1748  3.3145
    9DOPE   C27 1080   0.502   4.163   8.859  0.6220 -0.2917  0.5756
    9DOPE   H7R 1081   0.559   4.249   8.900  2.2808  0.4823 -2.9723
    9DOPE   H7S 1082   0.396   4.181   8.888  1.0072  0.2469  1.7070
    9DOPE   C28 1083   0.503   4.156   8.702 -0.6280 -0.2569  0.3580
    9DOPE   H8R 1084   0.431   4.080   8.665  0.7072 -0.1568 -2.7276
    9DOPE   H8S 1085   0.601   4.111   8.677 -0.4103  0.7626 -0.6848
    9DOPE   C29 1086   0.481   4.298   8.646 -0.0355  0.6440 -0.2206
    9DOPE   H9R 1087   0.478   4.382   8.717  0.9686 -0.7498  1.5635
    9DOPE  C210 1088   0.468   4.324   8.514 -0.0027 -0.1124 -0.1698
    9DOPE  H10R 1089   0.448   4.431   8.496  1.5571  0.8901  3.2673
    9DOPE  C211 1090   0.467   4.235   8.383 -1.0106  0.2719 -0.1003
    9DOPE  H11R 1091   0.368   4.234   8.332 -0.6040 -0.0672 -0.9007
    9DOPE  H11S 1092   0.478   4.129   8.415  5.5783  1.3132  2.7287
    9DOPE  C212 1093   0.580   4.276   8.294  0.2942 -0.6304 -0.6432
    9DOPE  H12R 1094   0.577   4.199   8.213 -0.3683  1.0596 -2.3099
    9DOPE  H12S 1095   0.679   4.239   8.328 -0.9905 -3.8527 -0.0374
    9DOPE  C213 1096   0.563   4.418   8.234 -0.1614 -0.2247  0.1597
    9DOPE  H13R 1097   0.634   4.482   8.290 -1.8382  0.9846  0.9950
    9DOPE  H13S 1098   0.464   4.467   8.252 -0.7180 -1.2167 -0.1248
    9DOPE  C214 1099   0.605   4.431   8.090  0.3626 -0.0664  0.2991
    9DOPE  H14R 1100   0.715   4.435   8.080  0.2925 -1.3625 -1.4829
    9DOPE  H14S 1101   0.577   4.535   8.060  2.0445 -0.2539 -2.2328
    9DOPE  C215 1102   0.536   4.338   7.983  0.4837  0.2259 -0.5354
    9DOPE  H15R 1103   0.430   4.369   7.970 -0.5387 -2.0989  1.5709
    9DOPE  H15S 1104   0.538   4.230   8.006 -1.5763  0.0046 -1.2392
    9DOPE  C216 1105   0.596   4.349   7.836 -0.3557 -0.1923 -0.1798
    9DOPE  H16R 1106   0.517   4.287   7.788 -1.6256 -0.2691  1.8925
    9DOPE  H16S 1107   0.699   4.309   7.824 -0.6872 -0.3777 -2.9762
    9DOPE  C217 1108   0.605   4.496   7.784  0.0778  0.5420 -0.3580
    9DOPE  H17R 1109   0.669   4.560   7.848 -2.0729  1.4978  0.9365
    9DOPE  H17S 1110   0.500   4.532   7.787 -0.2314 -0.2807 -0.7231
    9DOPE  C218 1111   0.653   4.509   7.633 -0.7493 -0.0101  0.4657
    9DOPE  H18R 1112   0.620   4.603   7.584  0.1545 -0.9813 -2.2390
    9DOPE  H18S 1113   0.617   4.420   7.577  1.9815 -0.6278 -0.4893
    9DOPE  H18T 1114   0.763   4.493   7.628 -0.7131  0.4451 -0.4356
    9DOPE   C33 1115   1.153   3.573   9.111  0.4743 -0.0509 -0.0514
    9DOPE   H3X 1116   1.175   3.680   9.092 -0.8950  0.0497 -1.2774
    9DOPE   H3Y 1117   1.044   3.564   9.132  0.3440 -0.4912 -0.8702
    9DOPE   C34 1118   1.187   3.497   8.981  0.3930  0.6534 -0.3742
    9DOPE   H4X 1119   1.289   3.514   8.940  0.7910 -0.0666  0.2890
    9DOPE   H4Y 1120   1.193   3.391   9.011 -1.9763  1.3261  3.0718
    9DOPE   C35 1121   1.072   3.519   8.885 -0.1957  0.0090 -0.4066
    9DOPE   H5X 1122   1.065   3.624   8.850 -3.1367 -0.6168 -2.0900
    9DOPE   H5Y 1123   0.973   3.502   8.933 -0.8498  3.4304 -0.2902
    9DOPE   C36 1124   1.082   3.427   8.759  0.2420  0.0350  0.2703
    9DOPE   H6X 1125   1.098   3.320   8.786  0.0505 -1.1105 -3.5668
    9DOPE   H6Y 1126   1.175   3.455   8.705  0.1274  0.1887  0.1558
    9DOPE   C37 1127   0.949   3.432   8.684 -0.6723 -0.7664 -0.5572
    9DOPE   H7X 1128   0.863   3.392   8.742 -0.8088  1.5137  0.9272
    9DOPE   H7Y 1129   0.927   3.541   8.673  0.9549 -0.4218 -0.6718
    9DOPE   C38 1130   0.938   3.345   8.557 -0.3655 -0.7451  0.3425
    9DOPE   H8X 1131   0.834   3.357   8.521 -0.3019  0.0221  0.3934
    9DOPE   H8Y 1132   0.951   3.241   8.593  3.0288 -0.3255  0.6894
    9DOPE   C39 1133   1.047   3.369   8.452  0.7590 -0.5088 -0.0411
    9DOPE   H9X 1134   1.145   3.395   8.495 -0.6758 -0.4443  3.4703
    9DOPE  C310 1135   1.023   3.368   8.319 -0.5775 -0.3234 -0.4711
    9DOPE  H10X 1136   1.110   3.382   8.253  1.0376  1.3945  1.8747
    9DOPE  C311 1137   0.894   3.362   8.249  0.3070  0.6586  0.1164
    9DOPE  H11X 1138   0.906   3.259   8.209 -0.3538 -0.2160  2.0327
    9DOPE  H11Y 1139   0.811   3.360   8.323 -1.6017 -0.9737 -1.9468
    9DOPE  C312 1140   0.856   3.467   8.138  0.4634  0.3924  0.2849
    9DOPE  H12X 1141   0.876   3.570   8.174 -0.2077  1.2107 -1.5597
    9DOPE  H12Y 1142   0.755   3.455   8.094  1.2165  0.9918 -1.7511
    9DOPE  C313 1143   0.953   3.443   8.013  0.4045  0.3611 -1.0873
    9DOPE  H13X 1144   1.050   3.408   8.056 -0.2571 -0.5163 -0.2706
    9DOPE  H13Y 1145   0.919   3.354   7.955 -2.3693  0.5096  0.1617
    9DOPE  C314 1146   0.962   3.561   7.914  0.8790  0.3825 -0.3590
    9DOPE  H14X 1147   0.979   3.652   7.976 -1.4103 -0.7981  2.2130
    9DOPE  H14Y 1148   0.861   3.583   7.872  0.5001  1.6425  1.0852
    9DOPE  C315 1149   1.054   3.543   7.791  0.3107  0.5656 -0.1160
    9DOPE  H15X 1150   1.025   3.447   7.743 -0.4063  0.5454  0.3420
    9DOPE  H15Y 1151   1.161   3.528   7.819  0.5086  0.9279 -0.6761
    9DOPE  C316 1152   1.029   3.660   7.698  0.2793 -0.0693  0.4084
    9DOPE  H16X 1153   1.048   3.749   7.762  1.7433  0.0960 -0.2193
    9DOPE  H16Y 1154   0.928   3.679   7.657  2.1130  0.9200 -4.1882
    9DOPE  C317 1155   1.121   3.674   7.576  0.2471  0.6136  0.4132
    9DOPE  H17X 1156   1.103   3.765   7.513  2.4038  0.9275  0.1941
    9DOPE  H17Y 1157   1.225   3.688   7.611  0.2548  1.3570  0.1179
    9DOPE  C318 1158   1.123   3.544   7.489 -0.9692 -0.6894 -0.2532
    9DOPE  H18X 1159   1.169   3.567   7.391 -1.2492  3.0695  0.3572
    9DOPE  H18Y 1160   1.176   3.464   7.545 -2.2162  0.0072  2.0837
    9DOPE  H18Z 1161   1.022   3.502   7.470 -1.0708 -0.8108  0.5107
   10DOPE     N 1162   2.161   5.430  10.199  0.2219 -0.2455  0.0361
   10DOPE   HN1 1163   2.098   5.512  10.209  0.9644  0.1885  1.3522
   10DOPE   HN2 1164   2.239   5.416  10.266  1.2992 -2.2644 -1.5276
   10DOPE   HN3 1165   2.203   5.438  10.104  1.2035 -0.3493  0.4564
   10DOPE   C12 1166   2.063   5.315  10.210  0.0219 -0.0540 -0.9192
   10DOPE  H12A 1167   2.001   5.327  10.302 -1.7727  3.2044 -2.3459
   10DOPE  H12B 1168   2.121   5.221  10.217 -0.1043 -0.0247  1.2383
   10DOPE   C11 1169   1.967   5.307  10.084 -0.0692 -0.0843  0.2528
   10DOPE  H11A 1170   2.045   5.289  10.006 -0.0923  0.5493  0.0841
   10DOPE  H11B 1171   1.921   5.407  10.081  0.3185  0.0866 -0.2686
   10DOPE     P 1172   1.736   5.209  10.035 -0.3353  0.1468  0.2374
   10DOPE   O13 1173   1.672   5.339  10.067 -0.1801  0.0747 -0.1374
   10DOPE   O14 1174   1.659   5.085  10.077 -0.7183 -0.3534  0.5396
   10DOPE   O11 1175   1.763   5.205   9.882 -0.0923  0.2790  0.2432
   10DOPE   O12 1176   1.877   5.200  10.097  0.5815 -0.3430 -0.3534
   10DOPE    C1 1177   1.804   5.088   9.818  0.2761  0.0802  1.1261
   10DOPE    HA 1178   1.783   4.996   9.876 -3.2085 -0.7076 -1.0981
   10DOPE    HB 1179   1.915   5.082   9.811  0.1784  0.2024 -2.6642
   10DOPE    C2 1180   1.738   5.070   9.679  0.8228  0.1295 -0.1769
   10DOPE    HS 1181   1.765   4.966   9.648 -1.3142  0.1053 -2.2084
   10DOPE   O21 1182   1.783   5.169   9.582 -0.0180 -0.0857 -0.4392
   10DOPE   C21 1183   1.899   5.147   9.525  0.4860  0.4069  0.5172
   10DOPE   O22 1184   1.971   5.055   9.548  0.2908 -0.2706 -0.7989
   10DOPE   C22 1185   1.934   5.267   9.435  0.8904 -0.6462  0.0038
   10DOPE   H2R 1186   2.032   5.242   9.390  0.4264  0.4547 -1.6914
   10DOPE   H2S 1187   1.945   5.352   9.505  1.1219 -1.4756  1.0134
   10DOPE    C3 1188   1.582   5.085   9.689  0.2957 -0.2988 -0.4989
   10DOPE    HX 1189   1.571   5.194   9.709 -2.0017 -0.6899  0.7714
   10DOPE    HY 1190   1.547   5.021   9.772 -0.9455  0.5961 -0.2940
   10DOPE   O31 1191   1.521   5.051   9.564 -0.2689  0.2974  0.1592
   10DOPE   C31 1192   1.393   5.079   9.566  0.0415  0.0490  0.5512
   10DOPE   O32 1193   1.346   5.132   9.664  0.3982  0.3050  0.1111
   10DOPE   C32 1194   1.325   5.031   9.435 -0.1411  0.0123 -0.1619
   10DOPE   H2X 1195   1.295   4.927   9.461  0.3319 -0.5859 -1.9147
   10DOPE   H2Y 1196   1.233   5.090   9.417 -1.0277 -1.1115  0.5184
   10DOPE   C23 1197   1.814   5.286   9.341  0.0122 -0.2118  0.8149
   10DOPE   H3R 1198   1.825   5.388   9.298 -2.9923  0.7231  1.9662
   10DOPE   H3S 1199   1.717   5.284   9.395 -0.0086  1.7753  0.8963
   10DOPE   C24 1200   1.803   5.180   9.229  0.1753 -0.4296  0.1334
   10DOPE   H4R 1201   1.701   5.171   9.188  0.1291 -1.6165  0.4933
   10DOPE   H4S 1202   1.851   5.087   9.266  2.3988  1.1446  1.4731
   10DOPE   C25 1203   1.887   5.210   9.100 -0.5039  0.2293  0.2526
   10DOPE   H5R 1204   1.993   5.216   9.132 -1.1866 -0.3461  2.8712
   10DOPE   H5S 1205   1.854   5.307   9.058  2.9103  0.6347 -1.8604
   10DOPE   C26 1206   1.893   5.098   8.998 -1.6647  0.1611  0.1723
   10DOPE   H6R 1207   1.789   5.075   8.966 -1.4679 -0.0817 -0.2982
   10DOPE   H6S 1208   1.934   5.002   9.034 -1.5770  0.4551  0.8687
   10DOPE   C27 1209   1.978   5.144   8.889  0.0533  0.1291  0.2978
   10DOPE   H7R 1210   2.080   5.167   8.926 -0.2129  0.9989  0.5135
   10DOPE   H7S 1211   1.943   5.241   8.845 -0.7063  0.3040  1.2485
   10DOPE   C28 1212   1.998   5.043   8.771 -0.2815  0.0639 -0.2707
   10DOPE   H8R 1213   2.047   4.954   8.816  2.1495  2.4176  2.1662
   10DOPE   H8S 1214   2.077   5.091   8.711 -0.7890  1.0364 -0.1894
   10DOPE   C29 1215   1.874   5.004   8.700 -0.3840  0.1573  0.2651
   10DOPE   H9R 1216   1.812   4.929   8.751 -1.8906  1.3427  0.2464
   10DOPE  C210 1217   1.840   5.059   8.584 -0.1120  0.9456 -0.1449
   10DOPE  H10R 1218   1.747   5.032   8.531  0.5057 -0.1051 -0.7341
   10DOPE  C211 1219   1.924   5.156   8.506 -0.2033  0.7177 -0.2891
   10DOPE  H11R 1220   1.969   5.231   8.574 -0.0754  1.6452 -1.3797
   10DOPE  H11S 1221   1.847   5.217   8.455 -0.2872  0.4133 -0.5315
   10DOPE  C212 1222   2.013   5.109   8.394  0.0293 -0.2806  0.3752
   10DOPE  H12R 1223   2.068   5.016   8.422  0.5330  0.3375  1.5193
   10DOPE  H12S 1224   2.089   5.189   8.388 -1.1828  0.9241  0.7002
   10DOPE  C213 1225   1.928   5.101   8.264  0.3831 -0.0616  0.5252
   10DOPE  H13R 1226   1.878   5.196   8.235 -0.4019 -0.5938  0.1043
   10DOPE  H13S 1227   1.850   5.025   8.287  1.8423 -1.6148  0.5601
   10DOPE  C214 1228   2.014   5.070   8.141  0.1247  0.4548 -0.4075
   10DOPE  H14R 1229   2.044   4.965   8.158  1.5847  1.1576  1.8466
   10DOPE  H14S 1230   2.108   5.128   8.139 -0.9332  2.3884  1.5097
   10DOPE  C215 1231   1.935   5.082   8.008  0.1278  0.3910 -1.0563
   10DOPE  H15R 1232   1.942   5.189   7.977 -0.2826  0.8278  0.2869
   10DOPE  H15S 1233   1.827   5.061   8.023  0.1481  1.5757  1.0834
   10DOPE  C216 1234   1.988   4.985   7.897 -0.5112 -0.1378 -0.5353
   10DOPE  H16R 1235   2.099   4.974   7.896 -0.3891  1.0190 -0.7594
   10DOPE  H16S 1236   1.970   5.038   7.801 -1.3046 -0.6828 -0.6968
   10DOPE  C217 1237   1.908   4.852   7.878 -0.1456 -0.0688  0.6480
   10DOPE  H17R 1238   1.801   4.882   7.869  1.0347  4.5917 -0.3477
   10DOPE  H17S 1239   1.908   4.790   7.970  0.3079 -1.1514 -0.0567
   10DOPE  C218 1240   1.946   4.776   7.749  0.0870  0.0184 -0.5683
   10DOPE  H18R 1241   2.029   4.711   7.783 -0.6950 -0.3020  0.8110
   10DOPE  H18S 1242   1.980   4.845   7.669 -3.1114  1.2472 -0.9988
   10DOPE  H18T 1243   1.859   4.717   7.715 -0.3541 -0.6847  1.6074
   10DOPE   C33 1244   1.413   5.032   9.311 -0.0183  0.8318 -0.2316
   10DOPE   H3X 1245   1.488   4.950   9.315  3.5542  3.8686  1.4197
   10DOPE   H3Y 1246   1.482   5.120   9.307  2.8024 -1.1429  1.3540
   10DOPE   C34 1247   1.347   5.019   9.169  0.5611 -0.3471 -0.0580
   10DOPE   H4X 1248   1.279   4.931   9.164 -1.6791  1.2855 -0.0601
   10DOPE   H4Y 1249   1.284   5.110   9.154  2.2740  1.1668  1.5562
   10DOPE   C35 1250   1.445   5.005   9.049  0.4902 -0.7117 -0.6541
   10DOPE   H5X 1251   1.504   4.916   9.079 -2.0861 -2.8957 -1.5971
   10DOPE   H5Y 1252   1.506   5.097   9.046  0.2318 -0.5477 -1.0791
   10DOPE   C36 1253   1.388   4.956   8.917  0.2655 -0.1021  0.1854
   10DOPE   H6X 1254   1.311   5.034   8.899  2.6908  2.3192 -0.2349
   10DOPE   H6Y 1255   1.339   4.856   8.920  0.5441 -0.2153  1.1294
   10DOPE   C37 1256   1.485   4.975   8.803  0.0836  0.5192  0.3034
   10DOPE   H7X 1257   1.524   5.077   8.786  1.3848  0.0271  0.2207
   10DOPE   H7Y 1258   1.569   4.912   8.840 -1.3076 -0.4159  2.0608
   10DOPE   C38 1259   1.433   4.920   8.670  0.6223 -0.3522 -0.5269
   10DOPE   H8X 1260   1.383   4.822   8.682  0.5280 -0.2181  0.2033
   10DOPE   H8Y 1261   1.525   4.904   8.609 -0.7837  1.3224 -3.2789
   10DOPE   C39 1262   1.346   5.022   8.597 -0.3401 -0.3619 -0.4469
   10DOPE   H9X 1263   1.283   5.080   8.666  0.2511  1.7055 -1.5630
   10DOPE  C310 1264   1.345   5.049   8.468 -0.2119  0.1318  0.0346
   10DOPE  H10X 1265   1.288   5.135   8.430  0.9186  1.7548  1.8813
   10DOPE  C311 1266   1.438   4.974   8.369 -0.2743  0.2219  0.1794
   10DOPE  H11X 1267   1.497   4.893   8.416  2.3615  1.4043 -0.9052
   10DOPE  H11Y 1268   1.378   4.917   8.295 -0.6657  3.3364 -2.0794
   10DOPE  C312 1269   1.532   5.071   8.299 -0.3547 -0.2098 -0.0577
   10DOPE  H12X 1270   1.612   5.016   8.246 -2.6181 -0.9750 -2.9131
   10DOPE  H12Y 1271   1.584   5.144   8.365  0.9519 -1.3026  0.1692
   10DOPE  C313 1272   1.460   5.153   8.187 -0.1588 -0.6528  0.4680
   10DOPE  H13X 1273   1.411   5.079   8.120  0.6789 -0.6649 -0.1597
   10DOPE  H13Y 1274   1.384   5.217   8.236 -0.7307 -0.4442 -0.6381
   10DOPE  C314 1275   1.566   5.220   8.099 -0.3971 -0.1617  0.3582
   10DOPE  H14X 1276   1.623   5.136   8.052  1.7689  2.0741 -1.3343
   10DOPE  H14Y 1277   1.637   5.277   8.162 -2.3328 -1.1327  3.6815
   10DOPE  C315 1278   1.499   5.296   7.984 -0.0231 -0.2704  0.1665
   10DOPE  H15X 1279   1.459   5.389   8.028  1.0376 -0.8674  2.5150
   10DOPE  H15Y 1280   1.420   5.238   7.931 -3.3834  3.0161  1.1998
   10DOPE  C316 1281   1.590   5.336   7.860  1.0722 -0.3286  0.3308
   10DOPE  H16X 1282   1.605   5.239   7.807 -0.3376 -1.2899  1.5862
   10DOPE  H16Y 1283   1.692   5.369   7.890  0.7012  0.9388  0.2165
   10DOPE  C317 1284   1.520   5.432   7.759 -0.4576  0.3604 -0.2935
   10DOPE  H17X 1285   1.414   5.404   7.745 -0.2406 -1.1890  0.9190
   10DOPE  H17Y 1286   1.510   5.536   7.796 -0.0894  0.2591  0.1059
   10DOPE  C318 1287   1.596   5.438   7.620 -0.0242  0.1930  0.8001
   10DOPE  H18X 1288   1.565   5.348   7.562 -0.2729  0.0806  1.1000
   10DOPE  H18Y 1289   1.555   5.522   7.560 -0.7115 -1.1832 -0.7274
   10DOPE  H18Z 1290   1.706   5.444   7.632 -0.0673  0.0024  1.3523
   11DOPE     N 1291   0.229   3.257   9.210  0.3982  0.2531  0.5929
   11DOPE   HN1 1292   0.319   3.238   9.161 -0.1810  1.4952 -1.0683
   11DOPE   HN2 1293   0.133   3.243   9.173  0.3882  0.4018  0.5619
   11DOPE   HN3 1294   0.230   3.356   9.243  1.5826  0.2766  0.5437
   11DOPE   C12 1295   0.223   3.180   9.337 -0.7447  0.2350 -0.0248
   11DOPE  H12A 1296   0.320   3.190   9.389 -0.5812 -1.7415  0.1078
   11DOPE  H12B 1297   0.194   3.076   9.308 -1.1140  1.0393 -2.8849
   11DOPE   C11 1298   0.120   3.238   9.433 -0.2759 -0.2600 -0.0255
   11DOPE  H11A 1299   0.126   3.349   9.441 -0.4289 -0.0849 -1.9288
   11DOPE  H11B 1300   0.156   3.201   9.531  1.2220 -0.2863 -0.5619
   11DOPE     P 1301  -0.114   3.276   9.318 -0.1390  0.1126  0.3048
   11DOPE   O13 1302  -0.138   3.409   9.379  0.1994  0.4032 -0.3000
   11DOPE   O14 1303  -0.233   3.191   9.301  0.1600 -0.3090 -0.3987
   11DOPE   O11 1304  -0.032   3.286   9.189 -0.1888 -0.2775 -0.1584
   11DOPE   O12 1305  -0.014   3.190   9.403  0.1129  0.0566  0.3334
   11DOPE    C1 1306  -0.075   3.228   9.062 -0.1171  0.3885 -0.0983
   11DOPE    HA 1307  -0.025   3.283   8.979  3.6638 -0.7191  1.2147
   11DOPE    HB 1308  -0.184   3.243   9.048  0.0866  1.9239 -0.1940
   11DOPE    C2 1309  -0.048   3.077   9.044  0.7012  0.5830  0.0696
   11DOPE    HS 1310  -0.071   3.036   9.145  1.3993 -0.7284 -0.2745
   11DOPE   O21 1311   0.097   3.064   9.031  0.3027  0.0951  0.6272
   11DOPE   C21 1312   0.136   2.936   9.043 -0.3152 -0.5251  0.1200
   11DOPE   O22 1313   0.066   2.844   9.084  0.4586  0.0316  0.4773
   11DOPE   C22 1314   0.286   2.930   9.008 -0.0998 -0.3576 -0.4727
   11DOPE   H2R 1315   0.337   2.998   9.079  0.9997 -0.5281 -1.0723
   11DOPE   H2S 1316   0.297   2.973   8.906  0.8177 -0.4832 -0.4435
   11DOPE    C3 1317  -0.134   3.011   8.932 -0.3811  0.0754 -0.4969
   11DOPE    HX 1318  -0.242   3.003   8.957 -0.9971 -1.1080 -3.1256
   11DOPE    HY 1319  -0.099   2.907   8.916 -0.2889  0.3017 -1.9107
   11DOPE   O31 1320  -0.126   3.092   8.810  0.3301  0.0067 -0.0001
   11DOPE   C31 1321  -0.045   3.044   8.716  0.5005  0.1966  0.7342
   11DOPE   O32 1322   0.021   2.939   8.718  0.4825  0.0213  0.2109
   11DOPE   C32 1323  -0.060   3.130   8.599  0.2838  0.0102  0.5078
   11DOPE   H2X 1324  -0.164   3.127   8.559  1.2773  0.5405 -2.3104
   11DOPE   H2Y 1325  -0.046   3.238   8.624 -2.0709  0.7431 -1.0220
   11DOPE   C23 1326   0.352   2.791   9.007  0.9589 -0.1551 -0.4409
   11DOPE   H3R 1327   0.322   2.747   9.104  1.9687  1.4071  0.6180
   11DOPE   H3S 1328   0.462   2.803   9.020  1.2777 -0.3580 -2.5558
   11DOPE   C24 1329   0.296   2.702   8.890 -0.5699  0.2381  0.2765
   11DOPE   H4R 1330   0.187   2.682   8.901 -0.3321 -1.4663 -0.2193
   11DOPE   H4S 1331   0.326   2.598   8.916 -3.3567 -0.6306  0.3040
   11DOPE   C25 1332   0.336   2.755   8.752  0.0027 -0.4160  0.7073
   11DOPE   H5R 1333   0.293   2.857   8.741  0.4569 -0.1436  1.4364
   11DOPE   H5S 1334   0.297   2.684   8.675  2.5478 -2.9886  1.6436
   11DOPE   C26 1335   0.486   2.758   8.734  0.4543 -0.2384  0.6670
   11DOPE   H6R 1336   0.535   2.667   8.775 -1.7319 -0.9859  1.7513
   11DOPE   H6S 1337   0.531   2.853   8.770  1.2479 -0.7313  1.0085
   11DOPE   C27 1338   0.515   2.757   8.580 -0.4136 -0.3361  0.0740
   11DOPE   H7R 1339   0.477   2.660   8.540 -0.8101 -0.6801  1.2544
   11DOPE   H7S 1340   0.625   2.747   8.574 -0.3074  0.4898  0.5408
   11DOPE   C28 1341   0.460   2.872   8.501 -0.5477 -0.3369  0.0984
   11DOPE   H8R 1342   0.466   2.966   8.559 -2.2709 -0.2037  0.1107
   11DOPE   H8S 1343   0.352   2.863   8.480 -0.6561 -1.0525  0.8881
   11DOPE   C29 1344   0.544   2.878   8.377  0.1895  0.1022 -0.2535
   11DOPE   H9R 1345   0.545   2.784   8.321 -0.9510  0.9639 -1.8074
   11DOPE  C210 1346   0.600   2.990   8.325 -0.0691  0.0373 -0.2797
   11DOPE  H10R 1347   0.636   2.983   8.221 -4.0116  1.3474 -1.9464
   11DOPE  C211 1348   0.605   3.137   8.375  0.1716  0.2954  0.3232
   11DOPE  H11R 1349   0.706   3.183   8.361  0.2559 -0.1275 -0.5776
   11DOPE  H11S 1350   0.589   3.124   8.484  1.1624 -1.9241  0.2491
   11DOPE  C212 1351   0.494   3.227   8.319  0.7588 -0.2649  0.3912
   11DOPE  H12R 1352   0.491   3.326   8.369 -1.6572 -0.7192  1.2655
   11DOPE  H12S 1353   0.392   3.185   8.323  0.3352  0.3044 -2.2583
   11DOPE  C213 1354   0.507   3.269   8.172 -0.4915  0.2887 -0.2551
   11DOPE  H13R 1355   0.540   3.175   8.122 -3.2822 -1.7852  1.4991
   11DOPE  H13S 1356   0.588   3.346   8.168  0.6673 -0.7125  2.1066
   11DOPE  C214 1357   0.375   3.316   8.109 -0.2224  0.0046  0.2437
   11DOPE  H14R 1358   0.303   3.367   8.176 -1.4658 -0.4949 -0.6701
   11DOPE  H14S 1359   0.331   3.228   8.058  1.7009 -1.6089  1.2423
   11DOPE  C215 1360   0.399   3.418   7.991  0.2279  0.1450 -0.1112
   11DOPE  H15R 1361   0.446   3.511   8.029  1.4818 -1.5757  2.9484
   11DOPE  H15S 1362   0.299   3.445   7.950 -0.0599  0.1709  0.5961
   11DOPE  C216 1363   0.485   3.357   7.886  0.1955 -0.0346 -0.1305
   11DOPE  H16R 1364   0.451   3.260   7.844  3.1615 -1.4716  0.4803
   11DOPE  H16S 1365   0.592   3.346   7.915  0.5297  1.1095 -0.8283
   11DOPE  C217 1366   0.505   3.439   7.756  0.4930 -0.1098  0.2667
   11DOPE  H17R 1367   0.403   3.450   7.714  0.6763 -1.2922 -0.5334
   11DOPE  H17S 1368   0.566   3.381   7.684  1.4264  1.3421 -0.1729
   11DOPE  C218 1369   0.564   3.574   7.768  0.1457  0.2049 -0.1889
   11DOPE  H18R 1370   0.524   3.627   7.857 -0.9022  1.2155 -1.2319
   11DOPE  H18S 1371   0.538   3.635   7.679  2.9076 -0.0150 -1.2765
   11DOPE  H18T 1372   0.675   3.573   7.775  0.4489  0.1799 -3.5444
   11DOPE   C33 1373   0.035   3.090   8.486  0.3137  0.6751 -0.1635
   11DOPE   H3X 1374   0.018   2.985   8.453  0.8077  0.9363 -1.2994
   11DOPE   H3Y 1375   0.138   3.094   8.527  0.2391  1.1899 -0.0280
   11DOPE   C34 1376   0.015   3.175   8.362  0.3710 -0.2228  0.8700
   11DOPE   H4X 1377   0.029   3.283   8.380 -1.6811  0.3416 -0.5813
   11DOPE   H4Y 1378   0.093   3.139   8.291 -0.4996 -0.1852 -0.1423
   11DOPE   C35 1379  -0.117   3.164   8.272 -0.3960 -0.1735 -0.3243
   11DOPE   H5X 1380  -0.204   3.192   8.335 -0.0733  1.7218 -0.6569
   11DOPE   H5Y 1381  -0.127   3.055   8.251 -1.5626 -0.5079  1.6956
   11DOPE   C36 1382  -0.120   3.251   8.157  0.2989 -0.3459  0.1476
   11DOPE   H6X 1383  -0.087   3.354   8.184 -0.3508  0.1522 -0.8707
   11DOPE   H6Y 1384  -0.223   3.257   8.116  1.0651  2.7029 -1.6787
   11DOPE   C37 1385  -0.027   3.216   8.036 -0.5711  0.3818  0.6091
   11DOPE   H7X 1386  -0.011   3.307   7.974 -0.7137  0.0421  0.0671
   11DOPE   H7Y 1387   0.068   3.183   8.083 -0.4611  0.5650  0.5131
   11DOPE   C38 1388  -0.070   3.101   7.944  0.1809  0.2777 -0.2756
   11DOPE   H8X 1389  -0.177   3.119   7.920 -0.8330 -1.0867  2.6867
   11DOPE   H8Y 1390  -0.071   2.997   7.985  2.2988  0.1327 -0.4870
   11DOPE   C39 1391   0.015   3.097   7.820 -0.2742  0.4100  0.1504
   11DOPE   H9X 1392   0.109   3.044   7.841  0.3371  0.7432 -1.5867
   11DOPE  C310 1393  -0.010   3.142   7.688  0.6248 -0.6928 -0.0507
   11DOPE  H10X 1394   0.063   3.148   7.606 -1.5512  1.6389 -1.9745
   11DOPE  C311 1395  -0.131   3.215   7.645 -0.3448 -0.2031  0.6669
   11DOPE  H11X 1396  -0.200   3.152   7.586 -0.8208  1.1515 -0.2815
   11DOPE  H11Y 1397  -0.186   3.246   7.737  0.9114  1.9257  0.7706
   11DOPE  C312 1398  -0.109   3.347   7.570 -0.1473  0.3968  0.2535
   11DOPE  H12X 1399  -0.026   3.327   7.498  1.2233 -1.2412  2.1838
   11DOPE  H12Y 1400  -0.072   3.435   7.627  0.8220  0.2127 -0.0708
   11DOPE  C313 1401  -0.232   3.398   7.489  0.4790 -0.9491  0.7315
   11DOPE  H13X 1402  -0.265   3.331   7.407  2.3824 -2.4823  1.1518
   11DOPE  H13Y 1403  -0.315   3.389   7.563 -0.0406 -1.8791  0.0511
   11DOPE  C314 1404  -0.215   3.540   7.429 -0.0911  0.1765  0.9578
   11DOPE  H14X 1405  -0.118   3.539   7.375  0.8164 -0.8323  2.5339
   11DOPE  H14Y 1406  -0.193   3.612   7.511  2.9529  0.7413 -0.2185
   11DOPE  C315 1407  -0.335   3.585   7.339  0.2672 -0.0573  0.1023
   11DOPE  H15X 1408  -0.332   3.693   7.314  0.9885  0.0982  0.7787
   11DOPE  H15Y 1409  -0.424   3.570   7.404  0.4942 -0.5679  0.2993
   11DOPE  C316 1410  -0.337   3.515   7.205 -0.7151 -0.2612 -0.1043
   11DOPE  H16X 1411  -0.330   3.404   7.207 -0.6563 -0.2773 -0.8742
   11DOPE  H16Y 1412  -0.263   3.551   7.130  0.5054 -3.3255 -0.5383
   11DOPE  C317 1413  -0.477   3.539   7.137  0.4182  1.0611  0.4349
   11DOPE  H17X 1414  -0.561   3.495   7.195  2.3986 -0.5663  2.2309
   11DOPE  H17Y 1415  -0.485   3.650   7.132  1.3668  1.1609  1.0020
   11DOPE  C318 1416  -0.488   3.485   6.997 -1.0685  0.5005 -0.8130
   11DOPE  H18X 1417  -0.394   3.525   6.953  0.3354 -0.4602  1.1859
   11DOPE  H18Y 1418  -0.475   3.375   6.984 -0.7892  0.7722 -3.3456
   11DOPE  H18Z 1419  -0.576   3.517   6.937 -1.4242  0.4871 -0.2991
   12DOPE     N 1420   2.762   6.650  10.137 -0.2522  0.0782 -0.1309
   12DOPE   HN1 1421   2.722   6.706  10.215  1.8754 -0.8786  1.7785
   12DOPE   HN2 1422   2.803   6.573  10.194  0.0535  2.1027  2.5760
   12DOPE   HN3 1423   2.846   6.699  10.102 -0.5989  0.7797  0.0051
   12DOPE   C12 1424   2.672   6.603  10.027  0.0803  0.0128 -0.0912
   12DOPE  H12A 1425   2.660   6.683   9.952  0.8331  1.0619  0.8738
   12DOPE  H12B 1426   2.573   6.581  10.071 -0.1100  2.6420  0.9638
   12DOPE   C11 1427   2.738   6.474   9.968 -0.0541 -0.5013  0.8921
   12DOPE  H11A 1428   2.844   6.489   9.939 -0.1670 -1.4497 -0.1000
   12DOPE  H11B 1429   2.684   6.457   9.872  1.5502 -1.1808  0.0772
   12DOPE     P 1430   2.755   6.206  10.015 -0.1315 -0.1128 -0.1160
   12DOPE   O13 1431   2.634   6.145  10.077 -0.0158 -0.1381  0.2713
   12DOPE   O14 1432   2.880   6.154  10.066 -0.3295 -0.3321  0.4755
   12DOPE   O11 1433   2.753   6.193   9.857  0.3549  0.2732  0.1058
   12DOPE   O12 1434   2.741   6.361  10.047  0.2793 -0.3323 -0.0781
   12DOPE    C1 1435   2.629   6.210   9.783 -0.3961  0.2004 -0.3136
   12DOPE    HA 1436   2.566   6.296   9.815 -1.0639 -0.0476 -0.9450
   12DOPE    HB 1437   2.567   6.120   9.804  0.2222 -0.8857 -2.8202
   12DOPE    C2 1438   2.658   6.219   9.637 -0.3883  0.2214 -0.2263
   12DOPE    HS 1439   2.671   6.327   9.615  0.7711 -0.1312 -1.4115
   12DOPE   O21 1440   2.548   6.158   9.561 -0.5641 -0.1879 -0.0723
   12DOPE   C21 1441   2.437   6.231   9.559  0.2907  0.5960  0.1288
   12DOPE   O22 1442   2.408   6.322   9.631  0.1606  0.2640  0.0482
   12DOPE   C22 1443   2.350   6.186   9.443 -0.1132 -0.1063 -0.0711
   12DOPE   H2R 1444   2.356   6.273   9.373  1.1851  1.2052  1.5751
   12DOPE   H2S 1445   2.246   6.177   9.481 -0.6723  1.1140 -1.2095
   12DOPE    C3 1446   2.790   6.142   9.610 -0.6629  0.3795 -0.3097
   12DOPE    HX 1447   2.806   6.052   9.672  2.7769  1.1851  0.1862
   12DOPE    HY 1448   2.862   6.221   9.641 -1.1812  1.0039 -0.6579
   12DOPE   O31 1449   2.811   6.105   9.468 -0.3052 -0.3912  0.1704
   12DOPE   C31 1450   2.929   6.128   9.419 -0.2644  0.4312  0.3113
   12DOPE   O32 1451   3.030   6.145   9.485  0.1141  0.3676 -0.3957
   12DOPE   C32 1452   2.918   6.087   9.271 -0.7236 -0.0012 -0.2470
   12DOPE   H2X 1453   2.929   5.977   9.261  0.9835 -0.1337  2.0209
   12DOPE   H2Y 1454   2.813   6.105   9.240 -0.8506  0.4283  0.3987
   12DOPE   C23 1455   2.394   6.065   9.368  0.3014 -0.2244  0.3987
   12DOPE   H3R 1456   2.303   6.020   9.322 -0.5466  1.1696  0.6382
   12DOPE   H3S 1457   2.436   5.981   9.426  0.0177 -0.3209  0.4650
   12DOPE   C24 1458   2.480   6.098   9.246  0.1749  0.0276  0.4402
   12DOPE   H4R 1459   2.585   6.119   9.276 -0.1810  0.7172  1.2777
   12DOPE   H4S 1460   2.449   6.196   9.202  3.0990  0.7826 -0.1186
   12DOPE   C25 1461   2.475   5.991   9.133  0.0616  0.3000 -0.0230
   12DOPE   H5R 1462   2.371   5.981   9.094  0.1596  1.3414 -0.5637
   12DOPE   H5S 1463   2.495   5.896   9.188 -0.1394 -0.5820 -1.4180
   12DOPE   C26 1464   2.577   6.006   9.029 -0.0495  0.5667  0.4213
   12DOPE   H6R 1465   2.653   6.079   9.065  0.0555  0.5642  0.2109
   12DOPE   H6S 1466   2.527   6.064   8.948  2.7239  1.3886 -0.8536
   12DOPE   C27 1467   2.638   5.869   8.985  0.2021  0.1907 -0.3561
   12DOPE   H7R 1468   2.556   5.798   8.964 -1.2572  0.9139  2.4239
   12DOPE   H7S 1469   2.720   5.833   9.051 -0.3379  2.2454  1.5675
   12DOPE   C28 1470   2.699   5.882   8.848 -0.1116 -0.2839 -0.2441
   12DOPE   H8R 1471   2.633   5.934   8.776  0.2714 -1.6383 -1.6406
   12DOPE   H8S 1472   2.708   5.781   8.802 -1.7157 -1.0991  1.1168
   12DOPE   C29 1473   2.834   5.947   8.844 -0.4700  0.4182  0.3925
   12DOPE   H9R 1474   2.857   6.011   8.930  0.8287  0.4543  0.0362
   12DOPE  C210 1475   2.927   5.923   8.749  0.0484 -0.2878 -0.5816
   12DOPE  H10R 1476   3.022   5.978   8.737  1.1714 -2.5402 -3.0756
   12DOPE  C211 1477   2.912   5.825   8.631 -0.2610  0.3236  0.2085
   12DOPE  H11R 1478   2.818   5.769   8.616  0.8732 -1.3076 -1.2667
   12DOPE  H11S 1479   2.980   5.737   8.630 -1.2428 -0.4914  1.7007
   12DOPE  C212 1480   2.944   5.901   8.500  0.0859  0.1579  0.0262
   12DOPE  H12R 1481   3.043   5.951   8.510 -0.3746  1.3579 -1.1075
   12DOPE  H12S 1482   2.853   5.959   8.475 -1.1671 -2.3152 -1.5275
   12DOPE  C213 1483   2.956   5.800   8.383 -0.2656 -0.1080  0.1370
   12DOPE  H13R 1484   2.867   5.734   8.370 -1.8818  1.8993  0.4829
   12DOPE  H13S 1485   3.046   5.739   8.407  0.8340  0.9265 -1.2538
   12DOPE  C214 1486   2.988   5.862   8.244 -0.7135 -0.0567  0.0514
   12DOPE  H14R 1487   3.067   5.939   8.252 -1.1465  0.7903 -2.6960
   12DOPE  H14S 1488   2.898   5.913   8.204 -1.1990 -1.8562 -1.2852
   12DOPE  C215 1489   3.033   5.757   8.142 -0.4674  0.0655  0.9655
   12DOPE  H15R 1490   2.964   5.670   8.139 -0.7660  0.3206 -1.4595
   12DOPE  H15S 1491   3.131   5.717   8.175 -0.4777  1.5116  2.8808
   12DOPE  C216 1492   3.048   5.814   7.996 -0.0884  0.7408  0.2660
   12DOPE  H16R 1493   3.116   5.902   8.001 -1.4246  1.9124 -1.2164
   12DOPE  H16S 1494   2.949   5.859   7.971 -1.1436 -0.6688  1.7403
   12DOPE  C217 1495   3.100   5.702   7.901  0.2209  0.9963  0.1539
   12DOPE  H17R 1496   3.029   5.617   7.902  1.2023  0.1731  1.4200
   12DOPE  H17S 1497   3.198   5.674   7.946 -0.5471 -0.0142  1.2412
   12DOPE  C218 1498   3.134   5.754   7.763 -0.4113 -0.5295 -0.2986
   12DOPE  H18R 1499   3.192   5.684   7.701 -0.3419 -1.1970  0.5060
   12DOPE  H18S 1500   3.181   5.854   7.774 -3.1033  0.7362  0.9184
   12DOPE  H18T 1501   3.043   5.782   7.705  1.0377 -0.0707 -2.4428
   12DOPE   C33 1502   3.025   6.157   9.186  0.1639  0.0906  0.9853
   12DOPE   H3X 1503   3.041   6.096   9.094 -1.7196  2.6213 -1.1773
   12DOPE   H3Y 1504   3.125   6.163   9.234  0.3356  3.4379  0.3989
   12DOPE   C34 1505   2.974   6.297   9.145 -0.1335 -0.5806  0.0525
   12DOPE   H4X 1506   2.903   6.298   9.059 -1.2359 -0.7777  0.9347
   12DOPE   H4Y 1507   2.934   6.347   9.236  1.3877  0.1320  0.3541
   12DOPE   C35 1508   3.089   6.395   9.114  0.3089  0.8939  0.1388
   12DOPE   H5X 1509   3.172   6.387   9.187  0.1025 -0.7319  0.2343
   12DOPE   H5Y 1510   3.047   6.498   9.118 -3.3703 -0.4554 -0.0355
   12DOPE   C36 1511   3.146   6.374   8.970  0.5840 -0.8957 -0.0104
   12DOPE   H6X 1512   3.227   6.299   8.979  1.4231  0.0355  0.5158
   12DOPE   H6Y 1513   3.201   6.467   8.946 -0.6315 -0.3627 -0.8291
   12DOPE   C37 1514   3.038   6.356   8.859  0.7848  0.1831  0.6419
   12DOPE   H7X 1515   3.004   6.251   8.871  0.5775  0.3391  1.4552
   12DOPE   H7Y 1516   2.956   6.428   8.879  0.3833 -0.1965  0.3652
   12DOPE   C38 1517   3.087   6.384   8.710 -0.3186  0.2111 -0.1457
   12DOPE   H8X 1518   3.124   6.489   8.708  2.8660 -0.7688  0.9695
   12DOPE   H8Y 1519   3.005   6.372   8.636  0.5082  0.7658 -1.1762
   12DOPE   C39 1520   3.204   6.300   8.681  0.5299 -0.3249 -0.2120
   12DOPE   H9X 1521   3.270   6.280   8.767  0.0966  0.5601  0.3418
   12DOPE  C310 1522   3.232   6.252   8.557  0.8768  0.0737 -1.0258
   12DOPE  H10X 1523   3.314   6.180   8.553  1.9286  1.2662 -1.8122
   12DOPE  C311 1524   3.153   6.269   8.428  0.1183 -0.0576  0.9948
   12DOPE  H11X 1525   3.112   6.174   8.390 -0.6138  0.7064 -0.1941
   12DOPE  H11Y 1526   3.064   6.333   8.441 -0.6520 -0.8901 -0.0190
   12DOPE  C312 1527   3.249   6.325   8.317 -0.1976 -0.2046 -0.5979
   12DOPE  H12X 1528   3.330   6.391   8.357 -1.8896  0.4752  1.9359
   12DOPE  H12Y 1529   3.180   6.390   8.260 -0.4675  2.1022  2.1057
   12DOPE  C313 1530   3.325   6.235   8.225  0.5386 -0.2605  0.1531
   12DOPE  H13X 1531   3.425   6.216   8.269  0.1087  1.9133  2.2769
   12DOPE  H13Y 1532   3.261   6.148   8.201 -2.4318  0.2130  5.0105
   12DOPE  C314 1533   3.355   6.306   8.091  0.7790  0.5122 -0.2959
   12DOPE  H14X 1534   3.433   6.382   8.113  3.5409 -2.6846  1.8718
   12DOPE  H14Y 1535   3.263   6.364   8.069 -0.0161 -0.8644 -0.6494
   12DOPE  C315 1536   3.402   6.236   7.961 -0.1513  0.4673 -0.6837
   12DOPE  H15X 1537   3.329   6.155   7.941  0.8499  0.1190 -3.4001
   12DOPE  H15Y 1538   3.505   6.196   7.973 -0.2127  0.9723  2.3243
   12DOPE  C316 1539   3.401   6.345   7.850 -1.0480 -0.3226  0.4228
   12DOPE  H16X 1540   3.479   6.416   7.886 -2.4051 -0.0549  3.0335
   12DOPE  H16Y 1541   3.302   6.395   7.846 -1.2015 -0.5271  1.3947
   12DOPE  C317 1542   3.442   6.294   7.712  0.7646  0.4155 -0.3924
   12DOPE  H17X 1543   3.536   6.235   7.716 -1.5360 -3.6350 -0.0449
   12DOPE  H17Y 1544   3.369   6.221   7.669  0.4707  1.7006 -2.1918
   12DOPE  C318 1545   3.458   6.412   7.618 -0.1068 -0.2051 -0.4585
   12DOPE  H18X 1546   3.381   6.492   7.625  0.5773  0.4012  0.4380
   12DOPE  H18Y 1547   3.557   6.459   7.631  0.3131 -1.3164  0.5472
   12DOPE  H18Z 1548   3.445   6.376   7.514 -1.6789 -0.8453 -0.0819
   13DOPE     N 1549   1.683   0.873   9.519  0.1593 -0.4567 -0.2310
   13DOPE   HN1 1550   1.714   0.821   9.603  2.3990  0.2329 -0.5854
   13DOPE   HN2 1551   1.647   0.961   9.562  1.5500  0.4768 -0.9271
   13DOPE   HN3 1552   1.602   0.826   9.473 -0.9721 -1.5981  2.6582
   13DOPE   C12 1553   1.799   0.899   9.428  0.2756  0.0312  0.2998
   13DOPE  H12A 1554   1.762   0.979   9.360  1.1373  0.0730 -0.1251
   13DOPE  H12B 1555   1.815   0.809   9.366 -2.1749 -1.0892  1.1816
   13DOPE   C11 1556   1.929   0.950   9.490 -0.0683  0.3479 -0.4019
   13DOPE  H11A 1557   2.007   0.964   9.411  2.3353  1.1323  1.9513
   13DOPE  H11B 1558   1.972   0.868   9.551  0.4889  2.8048  2.7366
   13DOPE     P 1559   2.034   1.151   9.609 -0.0083  0.2709  0.4753
   13DOPE   O13 1560   2.146   1.051   9.616  0.4404  0.2260 -0.2390
   13DOPE   O14 1561   1.990   1.221   9.728 -0.5161 -0.0853  0.1130
   13DOPE   O11 1562   2.070   1.252   9.489  0.7124  0.2601 -0.0549
   13DOPE   O12 1563   1.907   1.070   9.565  0.0316  0.4751 -0.0631
   13DOPE    C1 1564   1.984   1.359   9.447 -0.4831 -0.0223  0.3089
   13DOPE    HA 1565   2.035   1.453   9.480 -3.2402  2.7575 -2.5479
   13DOPE    HB 1566   1.885   1.343   9.495  0.6679  0.0101  2.8261
   13DOPE    C2 1567   1.957   1.358   9.294  0.8319  0.4570  0.3012
   13DOPE    HS 1568   2.054   1.349   9.241  0.3936 -0.5855 -0.3337
   13DOPE   O21 1569   1.880   1.465   9.240 -0.1973 -0.4253 -0.4836
   13DOPE   C21 1570   1.915   1.584   9.262  0.0981 -0.3746  0.1619
   13DOPE   O22 1571   1.999   1.628   9.341  0.0036  0.2059  0.5071
   13DOPE   C22 1572   1.821   1.676   9.185  0.1067 -0.5374 -0.0895
   13DOPE   H2R 1573   1.865   1.776   9.170 -1.3737 -0.1790 -2.6874
   13DOPE   H2S 1574   1.731   1.697   9.247  0.1590 -0.8032  0.0787
   13DOPE    C3 1575   1.879   1.227   9.253 -0.9024  0.6663  0.5838
   13DOPE    HX 1576   1.783   1.249   9.305 -1.4091  0.1353 -0.1197
   13DOPE    HY 1577   1.927   1.136   9.295 -0.6161  0.2241 -0.6575
   13DOPE   O31 1578   1.871   1.210   9.108  0.1139  0.3879  0.6201
   13DOPE   C31 1579   1.765   1.160   9.068  0.1861 -1.0293 -0.6300
   13DOPE   O32 1580   1.672   1.129   9.145 -0.5227 -0.4149  0.2987
   13DOPE   C32 1581   1.756   1.139   8.917  0.0496  0.1774 -0.1878
   13DOPE   H2X 1582   1.760   1.029   8.902  0.3924  0.0448  0.7477
   13DOPE   H2Y 1583   1.658   1.183   8.889 -1.1145 -2.0319  0.1624
   13DOPE   C23 1584   1.785   1.616   9.054  0.2568 -0.4901 -0.3030
   13DOPE   H3R 1585   1.681   1.641   9.025  0.3921  1.2804  0.6035
   13DOPE   H3S 1586   1.773   1.506   9.048 -3.8164 -0.1399 -1.2978
   13DOPE   C24 1587   1.887   1.665   8.940 -0.6814 -1.0029 -0.6432
   13DOPE   H4R 1588   1.983   1.610   8.943 -0.4708 -0.6285  2.5049
   13DOPE   H4S 1589   1.911   1.773   8.957 -0.9784 -0.7903 -1.5307
   13DOPE   C25 1590   1.815   1.653   8.804 -0.2202  0.6302  0.2270
   13DOPE   H5R 1591   1.740   1.734   8.794  1.1291  1.7712 -1.0101
   13DOPE   H5S 1592   1.754   1.560   8.814 -0.3083  0.7003  0.3531
   13DOPE   C26 1593   1.905   1.658   8.691 -0.0529  0.5294 -0.1644
   13DOPE   H6R 1594   1.979   1.576   8.702  0.5399  1.0962  0.1075
   13DOPE   H6S 1595   1.946   1.760   8.681 -1.0873  0.8503 -1.4527
   13DOPE   C27 1596   1.840   1.634   8.553 -0.3094  0.2861 -0.3875
   13DOPE   H7R 1597   1.748   1.696   8.543 -0.1142  0.7700  0.7321
   13DOPE   H7S 1598   1.820   1.525   8.552  0.9871  0.0099 -2.0584
   13DOPE   C28 1599   1.922   1.681   8.435 -0.2707 -0.2578 -0.7347
   13DOPE   H8R 1600   2.030   1.676   8.461 -0.1504 -0.4007 -1.2519
   13DOPE   H8S 1601   1.907   1.789   8.418  3.2646  0.7756  1.6465
   13DOPE   C29 1602   1.905   1.599   8.309 -0.2633  0.3722 -0.0402
   13DOPE   H9R 1603   1.939   1.496   8.331 -1.6750 -0.5404 -1.8453
   13DOPE  C210 1604   1.882   1.638   8.186 -0.7513 -0.2299  0.2277
   13DOPE  H10R 1605   1.872   1.557   8.112  1.2922 -1.1739  0.9348
   13DOPE  C211 1606   1.858   1.785   8.157  0.2557  0.1391  0.1247
   13DOPE  H11R 1607   1.950   1.847   8.168 -0.4399  1.4203 -0.9594
   13DOPE  H11S 1608   1.774   1.828   8.216 -1.8779 -0.4661 -2.2817
   13DOPE  C212 1609   1.816   1.819   8.014 -0.2109 -0.7071 -0.8302
   13DOPE  H12R 1610   1.885   1.776   7.938 -1.1368 -0.0523 -2.0720
   13DOPE  H12S 1611   1.825   1.929   8.005  1.9525 -0.6657  1.0339
   13DOPE  C213 1612   1.674   1.777   7.971 -0.5623  0.2500  0.7549
   13DOPE  H13R 1613   1.601   1.837   8.030 -0.2721  2.9716 -1.4360
   13DOPE  H13S 1614   1.660   1.667   7.981 -0.1392  0.1814  0.5983
   13DOPE  C214 1615   1.649   1.823   7.826  0.5658  0.1914  0.4730
   13DOPE  H14R 1616   1.722   1.776   7.757  1.8980  0.0327  1.9135
   13DOPE  H14S 1617   1.648   1.933   7.809 -1.3386  0.1401  0.0408
   13DOPE  C215 1618   1.512   1.780   7.770 -0.1180  0.0234  0.1458
   13DOPE  H15R 1619   1.430   1.810   7.839 -1.3920  0.6671 -1.5797
   13DOPE  H15S 1620   1.516   1.671   7.746  0.9389  0.3076 -1.0870
   13DOPE  C216 1621   1.462   1.835   7.632 -0.2660  0.6819 -0.0039
   13DOPE  H16R 1622   1.544   1.817   7.559  0.6759  0.8956  0.9635
   13DOPE  H16S 1623   1.451   1.944   7.647 -1.7874  0.5315  0.1082
   13DOPE  C217 1624   1.338   1.766   7.577 -0.1214  0.9128  0.2058
   13DOPE  H17R 1625   1.294   1.836   7.502 -1.0020  0.8869  0.6897
   13DOPE  H17S 1626   1.259   1.769   7.655  0.8322 -2.1831  1.4147
   13DOPE  C218 1627   1.367   1.633   7.503  1.3648  0.6192 -0.0945
   13DOPE  H18R 1628   1.448   1.579   7.557 -1.2925 -1.8902  1.6221
   13DOPE  H18S 1629   1.400   1.643   7.397 -1.0975 -1.6698 -1.1760
   13DOPE  H18T 1630   1.278   1.567   7.502  2.5378 -1.0850  1.2243
   13DOPE   C33 1631   1.878   1.207   8.835  0.9380 -0.0635  0.0935
   13DOPE   H3X 1632   1.978   1.192   8.881  0.4255 -0.1280  1.2075
   13DOPE   H3Y 1633   1.861   1.316   8.831  0.9284  0.1865  3.9986
   13DOPE   C34 1634   1.907   1.147   8.697  0.8098 -0.1145 -0.0727
   13DOPE   H4X 1635   2.007   1.177   8.657  0.6566 -0.8518 -1.0398
   13DOPE   H4Y 1636   1.923   1.038   8.713 -2.5711 -0.6433  0.3477
   13DOPE   C35 1637   1.799   1.182   8.595  0.0861  0.3634  0.5129
   13DOPE   H5X 1638   1.811   1.291   8.578 -0.4249  0.6366  1.8103
   13DOPE   H5Y 1639   1.696   1.155   8.628  0.0388 -2.4689 -1.5692
   13DOPE   C36 1640   1.830   1.111   8.462 -0.1177  0.3430  0.5198
   13DOPE   H6X 1641   1.810   1.001   8.457  1.5261 -0.1135  2.5540
   13DOPE   H6Y 1642   1.939   1.119   8.445 -0.0053  0.3060  1.2055
   13DOPE   C37 1643   1.759   1.189   8.344  1.5169  0.0770 -0.2996
   13DOPE   H7X 1644   1.652   1.189   8.374  2.1057  0.7368  1.9907
   13DOPE   H7Y 1645   1.788   1.296   8.350 -0.9475  0.8406 -0.9677
   13DOPE   C38 1646   1.785   1.136   8.199  0.1639 -0.5347 -0.6140
   13DOPE   H8X 1647   1.744   1.202   8.120 -0.0268 -0.1242 -0.1842
   13DOPE   H8Y 1648   1.725   1.043   8.195  0.1696 -0.4852 -2.0194
   13DOPE   C39 1649   1.931   1.111   8.172 -0.5732  0.3244  0.5898
   13DOPE   H9X 1650   1.969   1.019   8.218 -2.0691  0.3872  2.0161
   13DOPE  C310 1651   2.012   1.198   8.111  0.2388 -0.2834  0.4949
   13DOPE  H10X 1652   2.118   1.175   8.094  0.0477 -0.4927 -0.4599
   13DOPE  C311 1653   1.974   1.330   8.045  0.0256 -0.2329  0.6031
   13DOPE  H11X 1654   1.865   1.349   8.053  0.4430  3.4597 -0.7416
   13DOPE  H11Y 1655   2.028   1.411   8.097 -0.4292 -0.7781  1.9782
   13DOPE  C312 1656   2.001   1.321   7.896  0.0370 -0.0827 -0.6905
   13DOPE  H12X 1657   1.952   1.236   7.845 -0.4705  0.4233 -1.0610
   13DOPE  H12Y 1658   2.111   1.317   7.878  0.4032 -1.1382  1.5059
   13DOPE  C313 1659   1.950   1.446   7.823 -0.2071  0.3867  0.6350
   13DOPE  H13X 1660   1.845   1.465   7.852 -1.0443 -2.0231 -0.5272
   13DOPE  H13Y 1661   2.005   1.541   7.838 -1.8453  1.5248 -0.2198
   13DOPE  C314 1662   1.949   1.434   7.666  0.1205 -0.4260 -0.0422
   13DOPE  H14X 1663   1.897   1.343   7.629 -0.8743  0.5319 -1.0634
   13DOPE  H14Y 1664   2.054   1.428   7.629  0.0399  2.1741 -0.8645
   13DOPE  C315 1665   1.885   1.558   7.598  0.1116  0.1581 -0.8069
   13DOPE  H15X 1666   1.939   1.650   7.628  1.2658 -0.3057 -1.3897
   13DOPE  H15Y 1667   1.778   1.550   7.624 -0.0018 -1.6066 -1.6601
   13DOPE  C316 1668   1.894   1.553   7.448  0.2060 -0.1004 -0.2506
   13DOPE  H16X 1669   1.828   1.473   7.406  1.5490  0.2501 -3.3017
   13DOPE  H16Y 1670   1.997   1.523   7.419  0.7511 -0.2669  1.7196
   13DOPE  C317 1671   1.844   1.687   7.399 -0.6839 -0.0388 -0.0183
   13DOPE  H17X 1672   1.810   1.669   7.295 -0.0250 -0.6970 -0.1266
   13DOPE  H17Y 1673   1.752   1.719   7.452  0.1227  0.9495  0.8305
   13DOPE  C318 1674   1.951   1.801   7.398 -0.1250 -0.0763 -0.4356
   13DOPE  H18X 1675   1.899   1.888   7.353 -0.9582  1.3082  2.9301
   13DOPE  H18Y 1676   1.990   1.829   7.498  0.3276 -1.0395 -0.3316
   13DOPE  H18Z 1677   2.034   1.779   7.327  0.6542 -1.7243  0.9265
   14DOPE     N 1678   5.265   4.773   9.840  0.5278 -0.2988 -0.2008
   14DOPE   HN1 1679   5.251   4.672   9.816 -0.0411 -1.1433  3.1763
   14DOPE   HN2 1680   5.198   4.790   9.918  2.1850 -0.9878  1.4538
   14DOPE   HN3 1681   5.246   4.840   9.762  0.3280 -0.9862 -0.7578
   14DOPE   C12 1682   5.410   4.786   9.879 -0.0611  0.0766  0.9035
   14DOPE  H12A 1683   5.425   4.873   9.946  3.6297  0.0410  0.3254
   14DOPE  H12B 1684   5.471   4.805   9.788  1.3789  0.1340  1.8503
   14DOPE   C11 1685   5.456   4.650   9.942  0.4364 -0.5976  0.0971
   14DOPE  H11A 1686   5.406   4.647  10.041  1.8181  0.2273  0.8607
   14DOPE  H11B 1687   5.566   4.651   9.961  0.3223 -2.4775  1.0289
   14DOPE     P 1688   5.511   4.472   9.747  0.2139  0.0288  0.1699
   14DOPE   O13 1689   5.412   4.397   9.660 -0.2587 -0.3388  0.5993
   14DOPE   O14 1690   5.618   4.394   9.812  0.4624  0.0829  0.2062
   14DOPE   O11 1691   5.577   4.586   9.656  0.4774  0.3404 -0.4198
   14DOPE   O12 1692   5.424   4.540   9.861 -0.7889  0.4138  0.7771
   14DOPE    C1 1693   5.509   4.675   9.573  0.1827 -0.5670  0.2229
   14DOPE    HA 1694   5.538   4.778   9.604 -0.0584 -0.2009 -0.7210
   14DOPE    HB 1695   5.398   4.669   9.584  0.4826 -1.6224  3.6148
   14DOPE    C2 1696   5.542   4.657   9.414 -0.0942 -0.0061  0.2075
   14DOPE    HS 1697   5.501   4.749   9.366 -0.9307 -0.9834 -0.9889
   14DOPE   O21 1698   5.481   4.543   9.356  0.4367 -0.6002  0.0487
   14DOPE   C21 1699   5.347   4.534   9.352 -0.8612  0.1593 -0.5592
   14DOPE   O22 1700   5.268   4.607   9.409 -0.0265  0.3841  0.6442
   14DOPE   C22 1701   5.316   4.407   9.268 -0.1083 -0.9916  0.5445
   14DOPE   H2R 1702   5.342   4.318   9.330 -0.7987  0.6684  3.3793
   14DOPE   H2S 1703   5.382   4.401   9.178 -1.1239 -0.7355 -0.2292
   14DOPE    C3 1704   5.699   4.644   9.391  0.3008 -0.4473 -0.2307
   14DOPE    HX 1705   5.735   4.548   9.434  0.9150 -0.7406 -1.3555
   14DOPE    HY 1706   5.752   4.725   9.445  4.0455 -2.8066  0.0002
   14DOPE   O31 1707   5.732   4.648   9.250  0.2687 -0.2741  0.4846
   14DOPE   C31 1708   5.864   4.634   9.228  0.3616 -0.0730 -0.3329
   14DOPE   O32 1709   5.952   4.658   9.310  0.5187  0.1388  0.3528
   14DOPE   C32 1710   5.886   4.598   9.082  0.7888  0.3027 -0.2793
   14DOPE   H2X 1711   5.808   4.530   9.042  1.6515  0.0382 -1.6002
   14DOPE   H2Y 1712   5.882   4.689   9.018 -0.4369 -0.2265 -0.9804
   14DOPE   C23 1713   5.175   4.394   9.213 -0.0205  0.0458 -0.2310
   14DOPE   H3R 1714   5.173   4.470   9.132 -0.9698 -0.2502 -0.4983
   14DOPE   H3S 1715   5.089   4.406   9.282 -0.5074  1.3962 -1.0382
   14DOPE   C24 1716   5.143   4.265   9.142  0.0859  0.6015  0.2307
   14DOPE   H4R 1717   5.114   4.184   9.213  0.1180 -0.5439 -1.0206
   14DOPE   H4S 1718   5.239   4.224   9.102 -0.3121 -1.7423  1.4826
   14DOPE   C25 1719   5.048   4.279   9.020 -0.1687  0.1308  0.3028
   14DOPE   H5R 1720   5.068   4.383   8.988  0.6946 -0.2829 -0.5350
   14DOPE   H5S 1721   4.941   4.271   9.050 -0.0427  0.5731  0.8816
   14DOPE   C26 1722   5.074   4.192   8.897  0.2153  0.4841  0.1951
   14DOPE   H6R 1723   5.068   4.086   8.928  0.9537  0.1380 -0.8020
   14DOPE   H6S 1724   5.177   4.205   8.857 -0.3974 -0.2649 -1.6950
   14DOPE   C27 1725   4.974   4.225   8.781 -0.0222  0.1389 -0.3313
   14DOPE   H7R 1726   4.879   4.252   8.832  0.0934 -1.4624  0.8212
   14DOPE   H7S 1727   4.959   4.129   8.729  1.9371 -0.1350 -0.4925
   14DOPE   C28 1728   5.019   4.337   8.696 -0.6328 -0.3940 -0.6660
   14DOPE   H8R 1729   5.121   4.311   8.659 -0.2563 -0.6322  0.5048
   14DOPE   H8S 1730   5.019   4.423   8.767 -0.8479 -1.6295  0.8621
   14DOPE   C29 1731   4.929   4.342   8.571  0.0315 -0.1039  0.3879
   14DOPE   H9R 1732   4.831   4.392   8.580 -0.7876 -1.5206 -0.3090
   14DOPE  C210 1733   4.958   4.286   8.447 -0.2932  0.3271  0.2113
   14DOPE  H10R 1734   4.876   4.298   8.375 -0.5936 -0.5597  0.3933
   14DOPE  C211 1735   5.079   4.212   8.413 -0.7505 -0.3828  0.4827
   14DOPE  H11R 1736   5.055   4.111   8.372  1.3214 -0.5516 -0.4367
   14DOPE  H11S 1737   5.141   4.200   8.504  2.4692  0.2046 -1.4803
   14DOPE  C212 1738   5.173   4.277   8.298  0.2473 -0.0727 -0.8123
   14DOPE  H12R 1739   5.274   4.233   8.316  0.5952  0.6895 -0.8571
   14DOPE  H12S 1740   5.192   4.384   8.319 -1.9094  0.2020 -0.0763
   14DOPE  C213 1741   5.131   4.248   8.156 -0.3688 -0.1967 -0.2861
   14DOPE  H13R 1742   5.096   4.348   8.121  0.5681  0.1810 -0.1603
   14DOPE  H13S 1743   5.042   4.181   8.159  0.1051 -0.9636 -2.1363
   14DOPE  C214 1744   5.242   4.175   8.074  0.5259  0.0086 -0.4789
   14DOPE  H14R 1745   5.200   4.155   7.973 -0.0864  2.6925 -0.8259
   14DOPE  H14S 1746   5.265   4.077   8.122 -1.2491  0.4807  1.4858
   14DOPE  C215 1747   5.371   4.257   8.053  0.0658  0.0691 -0.2102
   14DOPE  H15R 1748   5.429   4.283   8.144  1.7592 -3.5058 -0.0962
   14DOPE  H15S 1749   5.344   4.356   8.011  1.5805 -0.4278 -2.5057
   14DOPE  C216 1750   5.468   4.199   7.952  0.1161 -0.2356  0.1330
   14DOPE  H16R 1751   5.555   4.267   7.936  0.1528 -0.4791 -0.7535
   14DOPE  H16S 1752   5.416   4.187   7.854 -0.0820 -0.5378  0.2761
   14DOPE  C217 1753   5.522   4.062   7.980  0.6532 -0.1513 -0.1556
   14DOPE  H17R 1754   5.433   3.996   7.972  0.8965 -0.3188 -1.7718
   14DOPE  H17S 1755   5.569   4.043   8.079 -1.7072 -0.5114  0.9782
   14DOPE  C218 1756   5.622   4.011   7.869 -0.1104  0.5902  0.1432
   14DOPE  H18R 1757   5.566   3.985   7.777  2.3798 -2.8450 -0.5765
   14DOPE  H18S 1758   5.668   3.917   7.906 -0.3517  0.2545 -0.4059
   14DOPE  H18T 1759   5.703   4.084   7.847 -0.7290  1.4245  0.5921
   14DOPE   C33 1760   6.024   4.531   9.064  0.4941  0.2805  0.5946
   14DOPE   H3X 1761   6.019   4.428   9.104 -0.7280 -0.0270 -0.2878
   14DOPE   H3Y 1762   6.106   4.581   9.120 -0.8790 -0.2096  3.1475
   14DOPE   C34 1763   6.061   4.525   8.912 -0.1236  0.7160 -0.4935
   14DOPE   H4X 1764   5.972   4.498   8.851 -2.1897  1.4058  2.0330
   14DOPE   H4Y 1765   6.086   4.619   8.860 -0.1321  1.5388  0.9544
   14DOPE   C35 1766   6.175   4.418   8.877 -0.8196 -0.0842 -0.2861
   14DOPE   H5X 1767   6.143   4.317   8.910  1.7952  0.0473  3.2094
   14DOPE   H5Y 1768   6.264   4.450   8.935 -0.0545 -0.2901 -1.3077
   14DOPE   C36 1769   6.202   4.427   8.725  0.1041 -0.1866  0.3392
   14DOPE   H6X 1770   6.205   4.533   8.692 -1.8924 -0.3052 -0.3669
   14DOPE   H6Y 1771   6.116   4.385   8.669  0.7507  1.5450 -2.1121
   14DOPE   C37 1772   6.333   4.374   8.672 -0.2112 -0.3384  0.2404
   14DOPE   H7X 1773   6.423   4.412   8.727 -1.8772  1.1172  2.1080
   14DOPE   H7Y 1774   6.314   4.265   8.681 -0.1978 -0.5002 -1.3993
   14DOPE   C38 1775   6.350   4.416   8.527 -0.7026  0.6375  0.2103
   14DOPE   H8X 1776   6.456   4.399   8.500 -0.3563  1.0897  1.2276
   14DOPE   H8Y 1777   6.333   4.525   8.512 -0.5772  0.3539 -2.6016
   14DOPE   C39 1778   6.257   4.347   8.429 -0.2172  0.0883 -0.0442
   14DOPE   H9X 1779   6.261   4.237   8.421  2.5765  0.1436 -0.2438
   14DOPE  C310 1780   6.163   4.402   8.346 -0.3313  0.2686  0.6075
   14DOPE  H10X 1781   6.105   4.331   8.284  1.4470  0.2446 -1.1408
   14DOPE  C311 1782   6.125   4.548   8.345  0.4310 -0.7105 -0.8078
   14DOPE  H11X 1783   6.022   4.554   8.385  1.5984 -0.3875  2.4536
   14DOPE  H11Y 1784   6.185   4.612   8.413 -1.4752 -1.0706  1.2990
   14DOPE  C312 1785   6.133   4.597   8.200  0.8847  0.1324  0.6139
   14DOPE  H12X 1786   6.070   4.687   8.187 -0.0500 -0.6408 -0.3093
   14DOPE  H12Y 1787   6.089   4.523   8.131  1.9760  0.7505 -0.8116
   14DOPE  C313 1788   6.279   4.643   8.154 -0.4557  0.3562  0.0005
   14DOPE  H13X 1789   6.322   4.725   8.215  0.1179  0.1251 -0.0891
   14DOPE  H13Y 1790   6.354   4.561   8.160  0.3920  1.1955  3.4900
   14DOPE  C314 1791   6.272   4.694   8.009  0.3474  0.0804  0.1780
   14DOPE  H14X 1792   6.241   4.801   8.010  1.4765  0.4763  3.0235
   14DOPE  H14Y 1793   6.207   4.628   7.948  2.5752 -1.9811 -0.0994
   14DOPE  C315 1794   6.411   4.691   7.941  0.0800 -0.6494 -0.1285
   14DOPE  H15X 1795   6.441   4.585   7.932  1.4185 -0.1473 -2.3970
   14DOPE  H15Y 1796   6.487   4.734   8.010 -0.6317  1.3223 -0.5057
   14DOPE  C316 1797   6.422   4.791   7.829  0.4138  0.7889 -0.4891
   14DOPE  H16X 1798   6.376   4.889   7.857  0.3651  0.7820 -0.5422
   14DOPE  H16Y 1799   6.350   4.758   7.751 -0.3592  0.1742  0.4523
   14DOPE  C317 1800   6.558   4.808   7.769 -0.4537 -0.4736  0.5816
   14DOPE  H17X 1801   6.602   4.710   7.741  0.5237  0.3394 -0.8476
   14DOPE  H17Y 1802   6.545   4.866   7.675 -0.7850  1.1483  1.5972
   14DOPE  C318 1803   6.655   4.896   7.850 -0.1568  0.0272  0.3838
   14DOPE  H18X 1804   6.679   4.845   7.946 -1.9395 -1.1408  0.2631
   14DOPE  H18Y 1805   6.752   4.908   7.799 -0.7308 -1.8760 -1.2784
   14DOPE  H18Z 1806   6.611   4.995   7.878 -1.9370 -0.9455  1.2407
   15DOPE     N 1807   0.826   2.659   9.555 -0.1752  0.1616  0.2420
   15DOPE   HN1 1808   0.723   2.676   9.549 -0.7798 -3.2790 -2.1238
   15DOPE   HN2 1809   0.859   2.755   9.578  0.6547  0.4380 -1.8636
   15DOPE   HN3 1810   0.854   2.635   9.457 -1.7390 -2.0824  0.2726
   15DOPE   C12 1811   0.864   2.562   9.658 -0.3702 -0.3445  0.0205
   15DOPE  H12A 1812   0.828   2.591   9.759 -1.2101 -0.2075 -0.3107
   15DOPE  H12B 1813   0.974   2.553   9.662 -0.1776  1.3219 -0.7488
   15DOPE   C11 1814   0.808   2.419   9.628 -1.0101 -0.0841 -0.1294
   15DOPE  H11A 1815   0.860   2.379   9.538 -0.4626 -1.2993  0.6952
   15DOPE  H11B 1816   0.700   2.423   9.601 -1.0867 -2.2637 -0.3494
   15DOPE     P 1817   0.724   2.249   9.803 -0.5920  0.2227  0.1957
   15DOPE   O13 1818   0.614   2.340   9.845  0.1666 -0.1018 -0.2837
   15DOPE   O14 1819   0.783   2.168   9.914 -0.1172 -0.7872  0.4596
   15DOPE   O11 1820   0.674   2.156   9.691  0.4913  0.4845  0.1822
   15DOPE   O12 1821   0.840   2.320   9.734  0.1231 -0.2646  0.1628
   15DOPE    C1 1822   0.769   2.087   9.613  0.0555  0.0217  0.5541
   15DOPE    HA 1823   0.838   2.031   9.680  0.8446  1.7626  1.2633
   15DOPE    HB 1824   0.820   2.160   9.548  1.7465  1.0183  2.8508
   15DOPE    C2 1825   0.691   1.987   9.520  0.0618 -0.2100 -0.2916
   15DOPE    HS 1826   0.614   1.940   9.584 -1.0995  0.6385 -1.0364
   15DOPE   O21 1827   0.783   1.895   9.462  0.4223 -0.0399 -0.4298
   15DOPE   C21 1828   0.737   1.779   9.432 -0.6280  0.0717  0.0176
   15DOPE   O22 1829   0.637   1.726   9.474 -0.4665  0.0457 -0.7864
   15DOPE   C22 1830   0.836   1.712   9.341 -0.2519 -0.1267 -0.4415
   15DOPE   H2R 1831   0.877   1.620   9.388  1.9064  0.0574 -1.8410
   15DOPE   H2S 1832   0.923   1.772   9.309  1.1465  0.4700  3.8431
   15DOPE    C3 1833   0.622   2.073   9.405  0.0446 -0.4525  0.2455
   15DOPE    HX 1834   0.707   2.112   9.345  0.4456 -1.5109  0.1020
   15DOPE    HY 1835   0.563   2.160   9.439  0.4387  0.2281 -0.7516
   15DOPE   O31 1836   0.544   1.992   9.314  0.0604 -0.0004  0.1514
   15DOPE   C31 1837   0.417   1.983   9.354 -0.1637 -0.0789  0.0407
   15DOPE   O32 1838   0.373   2.029   9.457 -0.5151 -0.1485 -0.4525
   15DOPE   C32 1839   0.350   1.895   9.259 -0.2424 -0.3088  0.2656
   15DOPE   H2X 1840   0.390   1.792   9.269 -2.1588 -1.4964 -2.8067
   15DOPE   H2Y 1841   0.241   1.895   9.279 -0.4706 -1.2623 -0.8519
   15DOPE   C23 1842   0.781   1.659   9.211 -0.5584 -0.3026 -0.1916
   15DOPE   H3R 1843   0.679   1.621   9.234  0.1438 -2.5211 -0.4504
   15DOPE   H3S 1844   0.849   1.582   9.168  1.4392  1.3732 -0.1813
   15DOPE   C24 1845   0.762   1.769   9.106 -0.5761 -0.2849 -0.4406
   15DOPE   H4R 1846   0.860   1.819   9.094 -1.4345  1.4723 -0.4568
   15DOPE   H4S 1847   0.694   1.841   9.157  0.8347 -0.8545  2.4006
   15DOPE   C25 1848   0.684   1.710   8.983 -0.1493 -0.8460 -0.5972
   15DOPE   H5R 1849   0.579   1.685   9.011 -0.5866 -0.8463 -2.1865
   15DOPE   H5S 1850   0.731   1.614   8.956  1.4115 -0.6226  1.1149
   15DOPE   C26 1851   0.690   1.808   8.865  0.6610  0.7398  0.4484
   15DOPE   H6R 1852   0.793   1.850   8.865  0.8745  0.7527 -4.1147
   15DOPE   H6S 1853   0.631   1.900   8.886 -1.1958 -0.7467  2.0521
   15DOPE   C27 1854   0.661   1.733   8.731 -0.6013 -0.5388  0.4545
   15DOPE   H7R 1855   0.728   1.647   8.710  1.5184  1.2404 -0.5261
   15DOPE   H7S 1856   0.668   1.811   8.652 -0.2062  1.5134  2.4095
   15DOPE   C28 1857   0.511   1.687   8.731  0.3683  0.1707 -0.0018
   15DOPE   H8R 1858   0.439   1.764   8.765 -0.5133  0.3063 -1.9905
   15DOPE   H8S 1859   0.498   1.594   8.789 -2.6865 -0.0401 -0.8502
   15DOPE   C29 1860   0.472   1.631   8.590 -0.9003 -0.0261 -0.3053
   15DOPE   H9R 1861   0.510   1.529   8.575 -1.7956 -0.3077 -0.7654
   15DOPE  C210 1862   0.396   1.687   8.499 -0.9234  0.1808  0.0495
   15DOPE  H10R 1863   0.394   1.650   8.396  0.0291 -0.9362  0.4135
   15DOPE  C211 1864   0.341   1.829   8.514 -0.4704 -0.1125 -0.0863
   15DOPE  H11R 1865   0.412   1.908   8.547  1.2681 -1.5667 -0.1838
   15DOPE  H11S 1866   0.259   1.829   8.588  0.2806  0.2760  0.7666
   15DOPE  C212 1867   0.286   1.879   8.378  0.4568 -0.9105  0.6501
   15DOPE  H12R 1868   0.225   1.968   8.403  1.4704 -0.3968  1.3747
   15DOPE  H12S 1869   0.207   1.819   8.329 -1.2465  1.1375  0.7425
   15DOPE  C213 1870   0.402   1.916   8.279  0.0977  0.8041  0.0335
   15DOPE  H13R 1871   0.462   1.822   8.272 -1.6607 -0.4355  0.9814
   15DOPE  H13S 1872   0.470   1.993   8.322 -0.6709  0.4136  2.0709
   15DOPE  C214 1873   0.354   1.947   8.134  0.9324 -0.5940  0.4862
   15DOPE  H14R 1874   0.283   1.868   8.104 -0.6798  0.3341  1.6856
   15DOPE  H14S 1875   0.433   1.930   8.058 -0.2403  0.4319 -1.0077
   15DOPE  C215 1876   0.281   2.088   8.121 -0.0529  0.3298  0.0499
   15DOPE  H15R 1877   0.346   2.172   8.154 -0.0834  0.7348 -0.8920
   15DOPE  H15S 1878   0.193   2.083   8.189 -1.4461  0.8920 -1.6301
   15DOPE  C216 1879   0.236   2.119   7.985  0.5329  0.2661  0.4152
   15DOPE  H16R 1880   0.184   2.217   7.991 -0.4527 -0.3389  2.9422
   15DOPE  H16S 1881   0.172   2.047   7.929 -2.2476  3.6623 -1.1705
   15DOPE  C217 1882   0.356   2.148   7.897 -0.5780 -0.4560 -0.3951
   15DOPE  H17R 1883   0.415   2.056   7.877 -0.6621 -0.3893 -0.9742
   15DOPE  H17S 1884   0.421   2.228   7.939  0.4543 -1.9898  1.0441
   15DOPE  C218 1885   0.316   2.209   7.760 -0.1560 -0.3296 -0.2332
   15DOPE  H18R 1886   0.223   2.155   7.733 -0.0933 -1.7080  2.0971
   15DOPE  H18S 1887   0.399   2.184   7.690  1.0076  1.4237  0.4309
   15DOPE  H18T 1888   0.303   2.319   7.769  0.7792 -0.2393  0.1825
   15DOPE   C33 1889   0.364   1.937   9.105  0.2067  0.0678 -0.4801
   15DOPE   H3X 1890   0.468   1.911   9.076  0.3296 -0.9737  0.7799
   15DOPE   H3Y 1891   0.356   2.044   9.077 -0.4215 -0.0227 -0.6672
   15DOPE   C34 1892   0.249   1.872   9.015 -1.0485 -0.1479  0.4249
   15DOPE   H4X 1893   0.262   1.762   9.006  0.3784  0.1458 -1.9100
   15DOPE   H4Y 1894   0.151   1.895   9.064 -0.1984  0.0778  2.1032
   15DOPE   C35 1895   0.251   1.922   8.872  0.1071 -0.3478 -0.1599
   15DOPE   H5X 1896   0.197   1.845   8.813 -1.0717  0.1290  0.2614
   15DOPE   H5Y 1897   0.354   1.921   8.829  0.9751 -3.4333  1.6674
   15DOPE   C36 1898   0.181   2.060   8.851 -0.4220 -0.3158  0.1343
   15DOPE   H6X 1899   0.222   2.137   8.919 -0.2989 -0.8016  0.6209
   15DOPE   H6Y 1900   0.074   2.051   8.879 -0.2214 -2.4030  0.4324
   15DOPE   C37 1901   0.198   2.112   8.704 -0.2659  0.1542 -0.5774
   15DOPE   H7X 1902   0.307   2.126   8.685 -0.0553 -1.7023 -0.9043
   15DOPE   H7Y 1903   0.167   2.029   8.636 -2.3453  0.5124 -0.1333
   15DOPE   C38 1904   0.108   2.239   8.674 -0.6993  0.4221 -0.5368
   15DOPE   H8X 1905   0.141   2.320   8.741 -0.9303 -1.4436  1.9740
   15DOPE   H8Y 1906   0.013   2.216   8.726 -0.1534  1.6533  1.0685
   15DOPE   C39 1907   0.102   2.260   8.529  0.5697  0.1125 -0.6205
   15DOPE   H9X 1908   0.072   2.174   8.467  1.2449 -0.0788 -0.6920
   15DOPE  C310 1909   0.125   2.373   8.461 -0.2124  0.4014 -1.2229
   15DOPE  H10X 1910   0.097   2.387   8.356 -1.6573 -0.0796 -0.9201
   15DOPE  C311 1911   0.175   2.498   8.524  0.4118  0.2026  0.0359
   15DOPE  H11X 1912   0.146   2.507   8.631 -2.1121  2.2592 -0.7361
   15DOPE  H11Y 1913   0.283   2.523   8.520  1.0385 -1.5850  2.9337
   15DOPE  C312 1914   0.109   2.616   8.446  0.3882 -0.0132  0.0899
   15DOPE  H12X 1915   0.138   2.706   8.503  0.8154  0.8369 -1.4187
   15DOPE  H12Y 1916  -0.002   2.609   8.439  0.5361 -1.9862 -1.2122
   15DOPE  C313 1917   0.166   2.632   8.305 -0.3841  0.0190  0.1362
   15DOPE  H13X 1918   0.277   2.618   8.310 -0.3005  0.9747  1.2461
   15DOPE  H13Y 1919   0.123   2.552   8.241  0.6311 -1.3303  1.0557
   15DOPE  C314 1920   0.134   2.768   8.243 -1.1050 -0.1090  0.6156
   15DOPE  H14X 1921   0.189   2.840   8.307  2.2673 -2.5818  0.7510
   15DOPE  H14Y 1922   0.028   2.800   8.258 -1.3494 -0.7247  0.2244
   15DOPE  C315 1923   0.164   2.788   8.095  1.1939 -0.4644 -0.6084
   15DOPE  H15X 1924   0.118   2.882   8.059 -1.6529 -0.5350  2.3198
   15DOPE  H15Y 1925   0.128   2.700   8.038  3.2944  0.5838 -3.8116
   15DOPE  C316 1926   0.311   2.799   8.071  0.1142  0.0382  0.3110
   15DOPE  H16X 1927   0.353   2.712   8.127 -1.4411 -1.5220 -0.8420
   15DOPE  H16Y 1928   0.349   2.898   8.104  1.8869 -0.3432 -0.4285
   15DOPE  C317 1929   0.341   2.778   7.926  0.1441 -0.1074 -0.4144
   15DOPE  H17X 1930   0.350   2.671   7.901  0.4368 -0.5930  1.5841
   15DOPE  H17Y 1931   0.248   2.811   7.875 -0.3284  0.7140  0.9364
   15DOPE  C318 1932   0.455   2.856   7.859  0.2394  0.5721 -0.4878
   15DOPE  H18X 1933   0.454   2.956   7.908 -0.6276 -0.1656  1.0764
   15DOPE  H18Y 1934   0.555   2.813   7.883 -0.9194 -2.7518 -1.0670
   15DOPE  H18Z 1935   0.439   2.858   7.749 -1.0986 -0.5305 -0.3312
   16DOPE     N 1936   6.581   3.635   9.377  0.0949  0.1868  0.1647
   16DOPE   HN1 1937   6.549   3.638   9.476 -2.0605  0.5219 -0.4963
   16DOPE   HN2 1938   6.506   3.598   9.316 -0.0124  1.7557 -0.6981
   16DOPE   HN3 1939   6.660   3.567   9.367 -2.1160 -2.4476 -0.7220
   16DOPE   C12 1940   6.622   3.756   9.305  0.1274 -0.1240 -0.5820
   16DOPE  H12A 1941   6.570   3.848   9.337  2.3598  0.8600  0.4190
   16DOPE  H12B 1942   6.602   3.729   9.199  1.4945 -1.0917 -0.6243
   16DOPE   C11 1943   6.773   3.773   9.306 -0.0250  0.6668  0.5023
   16DOPE  H11A 1944   6.805   3.814   9.404 -0.3391  1.0586  0.4412
   16DOPE  H11B 1945   6.798   3.857   9.238  1.0210  0.9972  1.2746
   16DOPE     P 1946   6.983   3.644   9.325 -0.5438  0.2959 -0.0050
   16DOPE   O13 1947   7.050   3.520   9.278  0.4591  0.3948  0.1140
   16DOPE   O14 1948   6.970   3.671   9.473 -0.4006 -0.4119  0.4288
   16DOPE   O11 1949   7.049   3.773   9.260  0.7176 -0.8064  0.5911
   16DOPE   O12 1950   6.834   3.643   9.274 -0.6069  0.7075  0.2228
   16DOPE    C1 1951   7.116   3.771   9.130  0.1803  0.8132  0.3518
   16DOPE    HA 1952   7.171   3.678   9.107  0.3571  1.3479 -1.6155
   16DOPE    HB 1953   7.208   3.833   9.125  1.0207 -0.4907 -2.0743
   16DOPE    C2 1954   7.016   3.803   9.015 -0.1876 -0.1020 -0.1830
   16DOPE    HS 1955   6.961   3.891   9.055  1.8229  1.4825 -0.6574
   16DOPE   O21 1956   6.940   3.683   9.002  0.6557  0.0376  0.0055
   16DOPE   C21 1957   6.808   3.707   8.981 -0.1415 -0.2056 -0.1830
   16DOPE   O22 1958   6.754   3.821   8.986 -0.0427  0.8654 -0.8310
   16DOPE   C22 1959   6.729   3.578   8.972 -0.6548 -0.1768 -0.9691
   16DOPE   H2R 1960   6.684   3.552   9.070  0.9228  0.1517 -0.1234
   16DOPE   H2S 1961   6.803   3.499   8.947  3.0843  2.1485  1.7986
   16DOPE    C3 1962   7.083   3.840   8.874  0.5965 -0.4224 -0.3255
   16DOPE    HX 1963   7.119   3.744   8.830 -0.2501 -0.0038 -2.0327
   16DOPE    HY 1964   7.169   3.906   8.901 -0.1341 -0.1297  1.4018
   16DOPE   O31 1965   6.984   3.901   8.785 -0.0278 -0.0901 -0.3724
   16DOPE   C31 1966   6.957   4.017   8.823 -0.6960  0.2070  0.2651
   16DOPE   O32 1967   7.029   4.093   8.892 -0.7421 -0.4054 -0.5732
   16DOPE   C32 1968   6.816   4.048   8.771  0.6425 -0.6129  0.0009
   16DOPE   H2X 1969   6.796   3.997   8.674 -0.6410  1.9161 -1.1494
   16DOPE   H2Y 1970   6.746   4.017   8.851  0.1847  2.3929  0.8876
   16DOPE   C23 1971   6.614   3.569   8.867  0.3479  0.3928  0.2481
   16DOPE   H3R 1972   6.574   3.670   8.843  0.0021  0.5508  1.4470
   16DOPE   H3S 1973   6.529   3.510   8.909  1.9105 -0.3523  2.5654
   16DOPE   C24 1974   6.658   3.499   8.731  0.9811  1.0564 -0.1752
   16DOPE   H4R 1975   6.651   3.388   8.741 -2.1691  0.8978 -2.6330
   16DOPE   H4S 1976   6.757   3.534   8.695  0.7745  0.4685 -1.3526
   16DOPE   C25 1977   6.553   3.533   8.623 -0.1218  0.0147  0.0876
   16DOPE   H5R 1978   6.580   3.483   8.528  2.3359  0.2059  0.6163
   16DOPE   H5S 1979   6.544   3.643   8.606  0.8092  0.2048  0.7724
   16DOPE   C26 1980   6.408   3.499   8.659  0.4204 -0.1439  0.1537
   16DOPE   H6R 1981   6.367   3.556   8.745 -0.4667  0.0396 -0.3766
   16DOPE   H6S 1982   6.395   3.389   8.672 -0.3039 -0.5486 -3.1013
   16DOPE   C27 1983   6.310   3.555   8.546 -0.1855  0.0379  0.0925
   16DOPE   H7R 1984   6.358   3.640   8.493 -2.1227  0.0830 -1.7558
   16DOPE   H7S 1985   6.212   3.591   8.585 -0.9161  0.1952 -1.7479
   16DOPE   C28 1986   6.292   3.448   8.440 -0.3930  0.3828 -0.4174
   16DOPE   H8R 1987   6.240   3.361   8.487  2.3330 -0.8269  0.6175
   16DOPE   H8S 1988   6.389   3.402   8.412 -0.3357  0.1553  0.1366
   16DOPE   C29 1989   6.213   3.486   8.317  0.4699  0.9231 -0.0705
   16DOPE   H9R 1990   6.104   3.476   8.318  0.5597 -0.1824 -0.0195
   16DOPE  C210 1991   6.263   3.526   8.199  0.6135  0.1507  0.2854
   16DOPE  H10R 1992   6.198   3.551   8.114  1.4094  0.0082 -0.3667
   16DOPE  C211 1993   6.407   3.561   8.169  0.1248  0.3078  0.2622
   16DOPE  H11R 1994   6.478   3.511   8.237 -0.2816 -1.4971 -0.5668
   16DOPE  H11S 1995   6.413   3.669   8.193 -1.9628  0.2955  1.0253
   16DOPE  C212 1996   6.460   3.535   8.021  0.5174 -0.4109 -0.5714
   16DOPE  H12R 1997   6.384   3.584   7.956  0.6079  0.9005  0.2838
   16DOPE  H12S 1998   6.461   3.425   8.003  2.3531 -0.8443  1.6990
   16DOPE  C213 1999   6.597   3.598   7.987 -0.1034 -0.2193 -0.1310
   16DOPE  H13R 2000   6.664   3.533   7.927 -0.9979  0.3548 -1.7982
   16DOPE  H13S 2001   6.642   3.601   8.089  1.2600  0.6491 -0.7286
   16DOPE  C214 2002   6.582   3.738   7.928  0.2464  0.0626 -0.3391
   16DOPE  H14R 2003   6.676   3.792   7.953  0.9906  0.1251 -2.9848
   16DOPE  H14S 2004   6.495   3.794   7.968  0.5557 -0.1944  0.7246
   16DOPE  C215 2005   6.583   3.749   7.770 -0.2199 -0.1261 -0.1850
   16DOPE  H15R 2006   6.496   3.690   7.735  0.0609  0.3612 -1.8025
   16DOPE  H15S 2007   6.667   3.698   7.717 -2.1037 -0.7426 -2.7868
   16DOPE  C216 2008   6.583   3.899   7.716  0.2875  0.4028  0.0560
   16DOPE  H16R 2009   6.668   3.908   7.645  0.0973  1.2341 -0.0747
   16DOPE  H16S 2010   6.609   3.971   7.796  0.9973 -0.8797  1.0124
   16DOPE  C217 2011   6.455   3.943   7.641  0.5887  0.3631  0.3157
   16DOPE  H17R 2012   6.371   3.942   7.714 -0.3335  1.7317 -0.6631
   16DOPE  H17S 2013   6.416   3.878   7.560 -0.6299  1.3433  0.0769
   16DOPE  C218 2014   6.460   4.089   7.599  0.5653  0.0855 -0.0255
   16DOPE  H18R 2015   6.543   4.104   7.526  1.2692 -0.2769  0.6882
   16DOPE  H18S 2016   6.478   4.145   7.693 -1.8410  0.8853  0.0409
   16DOPE  H18T 2017   6.370   4.131   7.549 -0.0050 -2.1543 -1.0337
   16DOPE   C33 2018   6.812   4.200   8.742  0.1974 -0.2264  0.0796
   16DOPE   H3X 2019   6.833   4.259   8.834 -2.2679  0.3785  0.3295
   16DOPE   H3Y 2020   6.712   4.238   8.711  0.8898 -0.2983 -2.4652
   16DOPE   C34 2021   6.910   4.247   8.631  0.2262 -0.0548  0.2431
   16DOPE   H4X 2022   6.877   4.352   8.617  0.5779  0.1231  0.7246
   16DOPE   H4Y 2023   7.012   4.259   8.674  0.6806 -2.0048 -0.2018
   16DOPE   C35 2024   6.887   4.170   8.499  0.5722 -0.2467 -0.0487
   16DOPE   H5X 2025   6.779   4.151   8.481 -0.2277  2.9938  0.6158
   16DOPE   H5Y 2026   6.942   4.074   8.506  1.3828  0.1339 -0.9566
   16DOPE   C36 2027   6.943   4.251   8.387  0.0829 -0.7922 -0.0893
   16DOPE   H6X 2028   7.032   4.309   8.420 -0.7902  0.6665 -0.2011
   16DOPE   H6Y 2029   6.870   4.333   8.369  2.3059  1.7593  1.6537
   16DOPE   C37 2030   6.959   4.165   8.264 -0.6506  0.4558  0.3874
   16DOPE   H7X 2031   7.027   4.081   8.290 -0.7300  0.3296  0.1918
   16DOPE   H7Y 2032   6.862   4.121   8.232 -1.5018  2.6715 -0.2849
   16DOPE   C38 2033   7.009   4.247   8.142 -0.3951  0.3580  0.2068
   16DOPE   H8X 2034   7.097   4.308   8.171  0.7769 -1.0434 -0.2759
   16DOPE   H8Y 2035   6.923   4.307   8.106 -1.9765  0.5193  3.8292
   16DOPE   C39 2036   7.063   4.149   8.037  0.5929  0.2980 -0.1396
   16DOPE   H9X 2037   7.083   4.043   8.060  0.7955  0.4089  0.2039
   16DOPE  C310 2038   7.061   4.181   7.900 -0.6246  0.0763  0.0331
   16DOPE  H10X 2039   7.113   4.116   7.829 -1.0700 -0.2944  0.0341
   16DOPE  C311 2040   7.023   4.311   7.832 -0.3905 -0.0744 -0.3861
   16DOPE  H11X 2041   6.973   4.381   7.902  2.1566  0.2646  1.2038
   16DOPE  H11Y 2042   7.104   4.381   7.802 -0.9914  1.2366  0.9126
   16DOPE  C312 2043   6.937   4.276   7.711 -0.0256 -0.6461 -0.3975
   16DOPE  H12X 2044   6.873   4.194   7.751  1.5762 -1.9204 -0.3547
   16DOPE  H12Y 2045   7.002   4.243   7.627 -2.1360  1.4730 -3.0538
   16DOPE  C313 2046   6.843   4.386   7.653 -0.1350 -0.1472 -0.2624
   16DOPE  H13X 2047   6.819   4.448   7.742  2.6005 -0.6407  0.9500
   16DOPE  H13Y 2048   6.901   4.441   7.576 -0.5851 -0.8235 -1.0888
   16DOPE  C314 2049   6.714   4.333   7.579 -0.9926 -0.2292 -1.1535
   16DOPE  H14X 2050   6.680   4.245   7.638 -2.9637  0.0112 -1.8537
   16DOPE  H14Y 2051   6.737   4.296   7.477 -1.5189 -0.5258 -1.1717
   16DOPE  C315 2052   6.602   4.440   7.560 -0.0615  0.2379  0.6392
   16DOPE  H15X 2053   6.652   4.533   7.524 -1.7483  0.8216 -0.3491
   16DOPE  H15Y 2054   6.543   4.461   7.651  0.1122 -1.8354  1.2759
   16DOPE  C316 2055   6.492   4.410   7.449 -0.4423  0.8253 -0.2296
   16DOPE  H16X 2056   6.432   4.321   7.477  0.3323  0.6457  0.9036
   16DOPE  H16Y 2057   6.551   4.384   7.358  3.2273 -2.3331  2.7309
   16DOPE  C317 2058   6.393   4.524   7.425  0.7998  0.0178  0.2339
   16DOPE  H17X 2059   6.451   4.594   7.360 -0.9833  0.6319 -0.7768
   16DOPE  H17Y 2060   6.313   4.495   7.353 -0.3761  0.5903  1.2894
   16DOPE  C318 2061   6.323   4.586   7.548 -0.7767 -0.1494 -0.4178
   16DOPE  H18X 2062   6.294   4.504   7.617  1.2318  1.3954  2.4899
   16DOPE  H18Y 2063   6.394   4.645   7.609  0.4361 -2.6581  0.7328
   16DOPE  H18Z 2064   6.231   4.643   7.523 -0.3258  1.7388  1.8553
   17DOPE     N 2065   1.692   5.929  10.347 -0.4258 -0.0953 -0.8565
   17DOPE   HN1 2066   1.650   5.835  10.336  0.9279 -0.7624 -0.5135
   17DOPE   HN2 2067   1.795   5.935  10.339 -0.1220  0.1525  2.0579
   17DOPE   HN3 2068   1.687   5.960  10.446  2.8132 -0.4271 -0.4970
   17DOPE   C12 2069   1.613   6.036  10.272  0.2576  0.1220 -0.0754
   17DOPE  H12A 2070   1.627   6.135  10.320 -0.3390  0.1421  0.0615
   17DOPE  H12B 2071   1.509   6.011  10.299  0.3719  1.3859  1.6847
   17DOPE   C11 2072   1.626   6.032  10.116 -0.0324  0.1713 -0.3914
   17DOPE  H11A 2073   1.713   6.092  10.085 -1.0821  2.5271  0.9559
   17DOPE  H11B 2074   1.540   6.088  10.073 -1.1188 -2.7318 -2.2789
   17DOPE     P 2075   1.528   5.840   9.976  0.2688  0.3077  0.2193
   17DOPE   O13 2076   1.395   5.899  10.013 -0.2735  0.3251 -0.2513
   17DOPE   O14 2077   1.542   5.693   9.958 -0.4496  0.1021  0.3020
   17DOPE   O11 2078   1.565   5.901   9.841  0.8470  0.7129  0.1661
   17DOPE   O12 2079   1.641   5.894  10.068 -0.6490  0.1209  0.4599
   17DOPE    C1 2080   1.696   5.928   9.793  0.5085 -0.1144 -0.7510
   17DOPE    HA 2081   1.779   5.890   9.857  0.6189  1.4651  0.0813
   17DOPE    HB 2082   1.704   6.038   9.789  0.9372 -0.1511 -0.9368
   17DOPE    C2 2083   1.711   5.880   9.645 -0.4035  0.3703  0.4326
   17DOPE    HS 2084   1.642   5.946   9.588 -1.0226  1.8717  2.7770
   17DOPE   O21 2085   1.673   5.740   9.642  0.1494 -0.3371 -0.3545
   17DOPE   C21 2086   1.550   5.711   9.622 -0.1229 -0.0573  0.2037
   17DOPE   O22 2087   1.459   5.794   9.610 -0.0192  0.2463  0.0245
   17DOPE   C22 2088   1.539   5.558   9.615  0.5357  0.0042  0.4327
   17DOPE   H2R 2089   1.525   5.532   9.722 -2.7110  2.6128  0.8305
   17DOPE   H2S 2090   1.634   5.518   9.574  0.9245  0.5815  0.7603
   17DOPE    C3 2091   1.859   5.893   9.602 -0.1928  0.4671  0.1454
   17DOPE    HX 2092   1.914   5.811   9.652 -0.9177 -0.6593 -0.8396
   17DOPE    HY 2093   1.907   5.987   9.635  1.9031 -0.4494 -0.1185
   17DOPE   O31 2094   1.863   5.855   9.457  0.1913  0.2076 -0.2227
   17DOPE   C31 2095   1.929   5.951   9.384 -0.2394  0.7066  0.3317
   17DOPE   O32 2096   1.978   6.050   9.430 -0.3167  0.1244 -0.2884
   17DOPE   C32 2097   1.942   5.907   9.242 -0.7458  0.4725 -0.7593
   17DOPE   H2X 2098   2.007   5.817   9.242  0.6003  1.3877  1.3417
   17DOPE   H2Y 2099   1.843   5.893   9.192 -1.1553 -1.8532  0.5381
   17DOPE   C23 2100   1.425   5.505   9.526  0.6126 -0.2732 -0.3735
   17DOPE   H3R 2101   1.334   5.568   9.527  0.2066 -0.7943  1.6431
   17DOPE   H3S 2102   1.393   5.410   9.575  0.0202 -0.5177 -1.2220
   17DOPE   C24 2103   1.457   5.478   9.381 -0.3776 -0.9394 -0.4911
   17DOPE   H4R 2104   1.553   5.426   9.361 -1.0175 -2.5465  0.3912
   17DOPE   H4S 2105   1.481   5.578   9.338  0.7059 -1.8056 -2.0018
   17DOPE   C25 2106   1.343   5.429   9.298 -0.4129 -0.2027 -0.3743
   17DOPE   H5R 2107   1.252   5.480   9.336 -2.6355 -2.6610 -2.0199
   17DOPE   H5S 2108   1.320   5.323   9.320  0.3047 -0.4624 -0.8483
   17DOPE   C26 2109   1.362   5.438   9.148 -0.3431  0.4243 -0.2969
   17DOPE   H6R 2110   1.431   5.354   9.122 -2.0905 -1.0153 -0.5202
   17DOPE   H6S 2111   1.405   5.540   9.136 -0.4832  0.6949  1.3713
   17DOPE   C27 2112   1.235   5.421   9.062 -0.3607  0.4384 -0.0609
   17DOPE   H7R 2113   1.165   5.503   9.089 -1.5694 -0.8858  0.9966
   17DOPE   H7S 2114   1.180   5.331   9.096 -1.2600  0.5179 -1.2426
   17DOPE   C28 2115   1.252   5.410   8.909 -0.0301 -0.7672 -0.2572
   17DOPE   H8R 2116   1.147   5.413   8.872 -1.2232  1.5461  2.8430
   17DOPE   H8S 2117   1.291   5.310   8.882 -0.1444 -0.6125 -1.0083
   17DOPE   C29 2118   1.331   5.523   8.851 -0.5980 -0.3320  0.0156
   17DOPE   H9R 2119   1.282   5.620   8.861  1.2744  0.7435 -0.6909
   17DOPE  C210 2120   1.445   5.513   8.779  0.3058  0.4799 -0.0629
   17DOPE  H10R 2121   1.481   5.608   8.736 -1.6870  1.8704  1.1659
   17DOPE  C211 2122   1.525   5.395   8.738 -0.7202  0.2142 -0.4358
   17DOPE  H11R 2123   1.470   5.305   8.775  0.5578  1.1429  4.4780
   17DOPE  H11S 2124   1.628   5.394   8.780  0.0474  0.1404 -2.2195
   17DOPE  C212 2125   1.543   5.388   8.584  0.5577  0.0747  0.1311
   17DOPE  H12R 2126   1.444   5.401   8.535  0.7593  0.0972 -0.2735
   17DOPE  H12S 2127   1.575   5.285   8.557  1.6520  0.5432 -0.3895
   17DOPE  C213 2128   1.637   5.490   8.510  0.4085  0.0997  0.6207
   17DOPE  H13R 2129   1.735   5.498   8.563  1.2530  1.6066 -1.0350
   17DOPE  H13S 2130   1.585   5.588   8.505 -2.0540 -1.1933 -1.2163
   17DOPE  C214 2131   1.660   5.453   8.367  0.1246 -0.4936  0.6070
   17DOPE  H14R 2132   1.563   5.452   8.313  1.7538  0.5305 -2.6760
   17DOPE  H14S 2133   1.714   5.357   8.352  1.5536  0.3897 -0.1769
   17DOPE  C215 2134   1.728   5.572   8.294  0.2684 -0.2375  0.1096
   17DOPE  H15R 2135   1.822   5.598   8.347 -0.0030  1.1734 -0.0663
   17DOPE  H15S 2136   1.663   5.661   8.305  1.1083  0.4586 -0.3913
   17DOPE  C216 2137   1.760   5.542   8.144  0.2607  0.0924  0.1222
   17DOPE  H16R 2138   1.661   5.530   8.096  0.3544  0.9753 -0.3277
   17DOPE  H16S 2139   1.815   5.446   8.135  4.3304  2.0708  1.4592
   17DOPE  C217 2140   1.848   5.654   8.079 -0.5003  0.3387  0.7271
   17DOPE  H17R 2141   1.947   5.634   8.124 -0.0680  0.5317 -0.1266
   17DOPE  H17S 2142   1.802   5.753   8.101  0.5299  1.6289 -2.4294
   17DOPE  C218 2143   1.848   5.652   7.928 -0.5243 -0.0730 -0.3000
   17DOPE  H18R 2144   1.863   5.549   7.887  0.5350 -0.5359  1.2069
   17DOPE  H18S 2145   1.921   5.719   7.878  1.7533 -0.8093  1.8773
   17DOPE  H18T 2146   1.744   5.677   7.898 -2.1564 -1.9646  3.1692
   17DOPE   C33 2147   2.010   6.011   9.156 -0.6589 -0.5394  0.1312
   17DOPE   H3X 2148   2.100   6.057   9.202 -1.5563  0.0154  1.3742
   17DOPE   H3Y 2149   1.952   6.101   9.125  0.7513  0.2877 -0.2195
   17DOPE   C34 2150   2.048   5.956   9.019 -1.0776 -1.1585 -0.0624
   17DOPE   H4X 2151   2.121   5.874   9.041  2.2678  0.9209 -2.4969
   17DOPE   H4Y 2152   1.966   5.920   8.954 -1.0299 -1.0308 -0.1910
   17DOPE   C35 2153   2.126   6.059   8.933 -0.7813  0.1043 -0.3472
   17DOPE   H5X 2154   2.198   6.113   8.998  0.4691 -0.0253 -1.5829
   17DOPE   H5Y 2155   2.042   6.125   8.903  0.1375  2.6995  2.3260
   17DOPE   C36 2156   2.207   5.999   8.815 -0.1909 -0.2560 -0.3199
   17DOPE   H6X 2157   2.151   5.928   8.751  0.2588 -0.4506 -0.4964
   17DOPE   H6Y 2158   2.289   5.938   8.860 -1.0825 -1.5669 -0.4019
   17DOPE   C37 2159   2.276   6.096   8.728  0.0429 -0.3159  0.2542
   17DOPE   H7X 2160   2.201   6.154   8.670 -0.5505 -2.7452 -1.5659
   17DOPE   H7Y 2161   2.330   6.168   8.794 -1.5905 -1.1555  2.6766
   17DOPE   C38 2162   2.379   6.042   8.634 -0.5192 -0.0272  0.8911
   17DOPE   H8X 2163   2.466   6.010   8.696 -1.7080 -1.1614  2.0374
   17DOPE   H8Y 2164   2.420   6.126   8.575 -1.3332 -0.0664  0.2552
   17DOPE   C39 2165   2.342   5.940   8.533  0.0030 -0.2669 -0.4115
   17DOPE   H9X 2166   2.275   5.861   8.570 -0.0778 -1.5611 -3.0549
   17DOPE  C310 2167   2.372   5.922   8.405  0.3916  0.1286 -0.7989
   17DOPE  H10X 2168   2.335   5.835   8.349 -0.7036  1.4570 -2.2377
   17DOPE  C311 2169   2.462   6.001   8.316  0.2123  0.0502  0.3200
   17DOPE  H11X 2170   2.397   6.034   8.232  0.4383  1.4282  0.6664
   17DOPE  H11Y 2171   2.498   6.098   8.356  1.1174  0.9852 -2.5497
   17DOPE  C312 2172   2.583   5.923   8.263  0.3082  0.0632  0.2500
   17DOPE  H12X 2173   2.620   5.864   8.349  0.8840 -0.0573 -0.0772
   17DOPE  H12Y 2174   2.668   5.985   8.227 -0.0413  0.7123  0.5179
   17DOPE  C313 2175   2.544   5.833   8.145  0.9573 -0.1903 -0.2411
   17DOPE  H13X 2176   2.465   5.761   8.174  0.6656  0.4294  0.5541
   17DOPE  H13Y 2177   2.501   5.910   8.078 -1.5642 -0.4218  0.9822
   17DOPE  C314 2178   2.667   5.766   8.076 -0.4961 -0.2334 -0.0430
   17DOPE  H14X 2179   2.718   5.697   8.146 -1.9644  0.8988  2.2816
   17DOPE  H14Y 2180   2.733   5.849   8.043 -0.4267 -0.8060 -1.3939
   17DOPE  C315 2181   2.626   5.697   7.943  0.0535 -0.0883  0.4834
   17DOPE  H15X 2182   2.571   5.772   7.882  0.4530 -0.3479 -0.2061
   17DOPE  H15Y 2183   2.561   5.611   7.970 -3.6202  2.9938  2.7313
   17DOPE  C316 2184   2.740   5.631   7.872 -0.1448  0.1265 -1.0723
   17DOPE  H16X 2185   2.806   5.575   7.941 -0.9753  1.4296  0.8561
   17DOPE  H16Y 2186   2.807   5.715   7.842  0.3224 -0.0116 -0.4202
   17DOPE  C317 2187   2.692   5.536   7.756  0.2185 -0.1887  0.4596
   17DOPE  H17X 2188   2.633   5.462   7.814 -1.3566  1.0847  0.5766
   17DOPE  H17Y 2189   2.627   5.580   7.678 -1.1365 -0.7878  1.2153
   17DOPE  C318 2190   2.814   5.469   7.685 -0.1285 -0.5765  1.0251
   17DOPE  H18X 2191   2.790   5.394   7.607  1.2572 -1.2014  1.1832
   17DOPE  H18Y 2192   2.881   5.543   7.636  0.7234 -1.1557  1.2959
   17DOPE  H18Z 2193   2.864   5.418   7.770 -0.9274 -0.9400  1.2935
   18DOPE     N 2194   5.905   3.614   9.699 -0.0270  0.2607 -0.1979
   18DOPE   HN1 2195   5.870   3.699   9.748  0.1598 -0.1291  0.6302
   18DOPE   HN2 2196   5.834   3.539   9.703 -0.2213  0.4787  1.5800
   18DOPE   HN3 2197   5.990   3.575   9.746 -0.2394 -0.9672 -0.8144
   18DOPE   C12 2198   5.940   3.648   9.555  0.1121  0.0943  0.3101
   18DOPE  H12A 2199   6.020   3.724   9.562 -0.9941  1.1975  1.4435
   18DOPE  H12B 2200   5.848   3.687   9.506  0.4257  2.2494  1.3439
   18DOPE   C11 2201   5.987   3.529   9.474 -0.4432  0.3317  0.1495
   18DOPE  H11A 2202   6.023   3.569   9.377  2.1473  0.4297  1.0776
   18DOPE  H11B 2203   5.904   3.456   9.467 -0.0234 -0.2624  1.1992
   18DOPE     P 2204   6.234   3.451   9.489  0.0489 -0.2493  0.4058
   18DOPE   O13 2205   6.299   3.365   9.595 -0.1302  0.2207  0.2563
   18DOPE   O14 2206   6.300   3.578   9.454 -0.3227  0.0894  0.2425
   18DOPE   O11 2207   6.219   3.364   9.360 -0.2323 -0.6591  0.4501
   18DOPE   O12 2208   6.089   3.472   9.543  0.6111 -0.1041 -0.5022
   18DOPE    C1 2209   6.335   3.337   9.275  0.2375  0.0853 -0.7638
   18DOPE    HA 2210   6.368   3.235   9.304  2.0785  0.8719  0.0759
   18DOPE    HB 2211   6.426   3.399   9.278 -0.5062  1.4033 -3.1090
   18DOPE    C2 2212   6.291   3.339   9.123 -0.0118  0.7475  0.6477
   18DOPE    HS 2213   6.383   3.337   9.061 -1.1431  0.9714 -1.1296
   18DOPE   O21 2214   6.217   3.458   9.097 -0.1827  0.3006 -0.3391
   18DOPE   C21 2215   6.278   3.575   9.111 -0.2543  0.0973  0.1469
   18DOPE   O22 2216   6.400   3.583   9.126  0.3093  0.0043 -0.2118
   18DOPE   C22 2217   6.185   3.693   9.087  0.6243  0.2341  0.0072
   18DOPE   H2R 2218   6.246   3.777   9.127  0.4677 -0.9741  2.9572
   18DOPE   H2S 2219   6.092   3.680   9.147 -1.4495  1.0475 -2.7776
   18DOPE    C3 2220   6.201   3.222   9.078 -0.4757  0.0557 -0.4229
   18DOPE    HX 2221   6.115   3.220   9.149  1.4711 -0.8621  2.0400
   18DOPE    HY 2222   6.258   3.127   9.085  0.0171  0.3285 -0.6912
   18DOPE   O31 2223   6.150   3.232   8.942  0.2076  0.1811  0.1295
   18DOPE   C31 2224   6.224   3.186   8.847 -0.2382  0.3209 -0.1656
   18DOPE   O32 2225   6.337   3.137   8.859  0.7934  0.3599  0.5986
   18DOPE   C32 2226   6.156   3.214   8.715 -0.2704 -0.2783  0.6737
   18DOPE   H2X 2227   6.046   3.226   8.725 -0.5556  0.3755 -2.2496
   18DOPE   H2Y 2228   6.195   3.309   8.674  2.1343 -1.4376  0.0837
   18DOPE   C23 2229   6.135   3.721   8.937  0.3738 -0.0162 -0.1696
   18DOPE   H3R 2230   6.068   3.644   8.894 -0.6644  0.7551  0.0519
   18DOPE   H3S 2231   6.230   3.741   8.881  0.2632 -0.0030 -0.3536
   18DOPE   C24 2232   6.053   3.851   8.938 -0.8301  0.9060 -1.3398
   18DOPE   H4R 2233   6.104   3.925   9.003  1.2376 -1.2739 -0.3465
   18DOPE   H4S 2234   5.952   3.843   8.983  0.3407  0.6642  1.4100
   18DOPE   C25 2235   6.034   3.906   8.800 -0.7317  0.5076  0.3081
   18DOPE   H5R 2236   5.991   3.822   8.742  1.6373 -0.8868  0.4480
   18DOPE   H5S 2237   6.133   3.927   8.754  0.4996 -2.6659  1.2186
   18DOPE   C26 2238   5.946   4.030   8.798 -0.4747 -0.3289 -0.7588
   18DOPE   H6R 2239   6.009   4.098   8.859  0.7588 -0.6845 -1.5799
   18DOPE   H6S 2240   5.852   4.004   8.850 -0.0728 -2.9950 -1.1946
   18DOPE   C27 2241   5.919   4.080   8.662  0.5365  0.4493 -0.2072
   18DOPE   H7R 2242   5.851   4.003   8.619  1.6352 -0.3689 -0.5326
   18DOPE   H7S 2243   6.009   4.082   8.598  0.3105 -1.5606 -0.6511
   18DOPE   C28 2244   5.860   4.218   8.667 -0.0426 -0.4288 -0.1460
   18DOPE   H8R 2245   5.936   4.283   8.716  0.8698 -1.1113 -0.6360
   18DOPE   H8S 2246   5.776   4.213   8.740  0.7259  0.3853  0.8181
   18DOPE   C29 2247   5.817   4.278   8.534  0.1092  0.1393 -0.6149
   18DOPE   H9R 2248   5.900   4.323   8.477 -0.0578 -1.4892 -2.2225
   18DOPE  C210 2249   5.704   4.278   8.470  0.6017  0.4900 -0.2585
   18DOPE  H10R 2250   5.702   4.325   8.371  0.8137  0.9302 -0.0550
   18DOPE  C211 2251   5.572   4.219   8.517  0.3926  0.0310  0.0500
   18DOPE  H11R 2252   5.586   4.161   8.611 -0.4068 -0.3500 -0.0549
   18DOPE  H11S 2253   5.546   4.151   8.434  0.4586 -0.7960  0.6929
   18DOPE  C212 2254   5.453   4.320   8.540  0.5105 -0.1143  0.2148
   18DOPE  H12R 2255   5.360   4.260   8.538  0.5240 -0.1201 -0.1830
   18DOPE  H12S 2256   5.464   4.369   8.441  1.3476 -0.6269  0.0477
   18DOPE  C213 2257   5.447   4.419   8.663  0.3079 -0.1637  0.3848
   18DOPE  H13R 2258   5.343   4.459   8.667  0.8008  1.0522  2.9821
   18DOPE  H13S 2259   5.522   4.499   8.647  0.0227  0.3365  1.4572
   18DOPE  C214 2260   5.491   4.357   8.788 -0.0193  0.7788  0.4109
   18DOPE  H14R 2261   5.586   4.301   8.779 -0.7331 -0.5950  1.1418
   18DOPE  H14S 2262   5.422   4.275   8.818  0.2945  0.1566 -0.5099
   18DOPE  C215 2263   5.532   4.462   8.894 -0.3998 -0.9243 -0.3814
   18DOPE  H15R 2264   5.626   4.511   8.860 -1.6980  0.7933 -1.7063
   18DOPE  H15S 2265   5.566   4.404   8.982 -2.9181 -2.1804 -0.1653
   18DOPE  C216 2266   5.420   4.564   8.924  0.4246  0.5327 -0.0401
   18DOPE  H16R 2267   5.332   4.509   8.964 -0.3891  0.9333 -1.2235
   18DOPE  H16S 2268   5.390   4.613   8.829  1.8242 -1.7568 -1.7689
   18DOPE  C217 2269   5.452   4.665   9.035 -0.3714 -0.1761  0.0173
   18DOPE  H17R 2270   5.532   4.730   8.994  0.1062 -0.9400 -0.2935
   18DOPE  H17S 2271   5.502   4.622   9.125 -1.3649 -2.1704 -0.3310
   18DOPE  C218 2272   5.335   4.750   9.082 -0.1024 -0.2340 -0.3015
   18DOPE  H18R 2273   5.365   4.829   9.154 -1.0383  0.1301 -0.3022
   18DOPE  H18S 2274   5.256   4.684   9.125 -1.7200  1.2345 -0.9059
   18DOPE  H18T 2275   5.288   4.801   8.995 -1.4049 -0.9683 -0.0588
   18DOPE   C33 2276   6.188   3.104   8.611  0.1053  0.0878 -0.3381
   18DOPE   H3X 2277   6.180   3.015   8.676  1.1592 -0.2738 -0.6779
   18DOPE   H3Y 2278   6.292   3.129   8.582 -0.1804  1.0839 -0.5528
   18DOPE   C34 2279   6.098   3.092   8.490  0.5209 -0.1182 -0.1785
   18DOPE   H4X 2280   5.999   3.070   8.536  0.8382  0.2700  0.7050
   18DOPE   H4Y 2281   6.076   3.181   8.428 -1.3188 -0.7376 -0.4719
   18DOPE   C35 2282   6.130   2.971   8.394  0.1868 -0.1238  0.6681
   18DOPE   H5X 2283   6.035   2.942   8.345  0.2345 -3.0263  2.1007
   18DOPE   H5Y 2284   6.164   2.888   8.459  2.5785 -0.7662 -1.2638
   18DOPE   C36 2285   6.237   3.005   8.291 -0.1232  0.4240 -0.4173
   18DOPE   H6X 2286   6.274   2.909   8.250  0.0846  1.0966 -1.9068
   18DOPE   H6Y 2287   6.320   3.058   8.343 -0.9974  2.3013 -0.8574
   18DOPE   C37 2288   6.177   3.085   8.173 -0.3453  0.4448 -0.3451
   18DOPE   H7X 2289   6.136   3.011   8.100  1.6568  0.7544 -1.9036
   18DOPE   H7Y 2290   6.089   3.140   8.212 -0.7252 -2.2490  3.1420
   18DOPE   C38 2291   6.280   3.184   8.109 -0.6352 -0.0987 -0.2113
   18DOPE   H8X 2292   6.322   3.233   8.200 -0.1645 -1.9490  0.6038
   18DOPE   H8Y 2293   6.211   3.260   8.065 -1.0809 -1.0015 -1.1109
   18DOPE   C39 2294   6.381   3.136   8.014  0.5899 -0.0934  0.3025
   18DOPE   H9X 2295   6.462   3.081   8.065  1.8235  0.9958 -0.3968
   18DOPE  C310 2296   6.373   3.127   7.882 -0.0084 -0.3038 -0.6529
   18DOPE  H10X 2297   6.462   3.089   7.829  2.5218  1.0179  2.3447
   18DOPE  C311 2298   6.267   3.199   7.795  0.3459  1.3763  0.2344
   18DOPE  H11X 2299   6.239   3.142   7.704  1.9646  0.1121  0.4788
   18DOPE  H11Y 2300   6.169   3.199   7.847 -0.0499  1.7458 -0.4871
   18DOPE  C312 2301   6.288   3.349   7.761 -0.5487  0.5764  0.5030
   18DOPE  H12X 2302   6.387   3.359   7.711 -0.8042  0.5297 -0.0187
   18DOPE  H12Y 2303   6.283   3.395   7.861 -1.0689  0.7494  0.3996
   18DOPE  C313 2304   6.172   3.420   7.685  0.6363 -0.6963 -0.5072
   18DOPE  H13X 2305   6.150   3.388   7.581 -2.4120 -1.4124  0.2479
   18DOPE  H13Y 2306   6.081   3.396   7.744  1.3451  0.9068  1.3306
   18DOPE  C314 2307   6.192   3.576   7.688 -0.0496  0.2546 -0.5340
   18DOPE  H14X 2308   6.282   3.598   7.627  1.8713 -1.5211  1.5135
   18DOPE  H14Y 2309   6.220   3.606   7.791  0.8764  2.2423 -1.3013
   18DOPE  C315 2310   6.074   3.651   7.629 -0.0539 -0.0126  0.0312
   18DOPE  H15X 2311   6.060   3.602   7.530  0.7358  0.8810 -0.5340
   18DOPE  H15Y 2312   6.089   3.759   7.608  2.0444 -0.4261 -0.7779
   18DOPE  C316 2313   5.935   3.626   7.693 -0.2873 -0.4012 -0.0274
   18DOPE  H16X 2314   5.914   3.519   7.711  0.5298 -0.7189 -0.8958
   18DOPE  H16Y 2315   5.861   3.674   7.626 -1.0622 -1.3830  0.1044
   18DOPE  C317 2316   5.932   3.714   7.821 -0.6149  1.2313  0.9894
   18DOPE  H17X 2317   6.018   3.677   7.881 -0.1544 -2.8217 -1.8045
   18DOPE  H17Y 2318   5.947   3.824   7.810 -1.1984  1.1693 -0.6315
   18DOPE  C318 2319   5.808   3.680   7.905  0.3948 -0.5851 -0.3303
   18DOPE  H18X 2320   5.809   3.570   7.918 -0.8151 -0.5301  0.3429
   18DOPE  H18Y 2321   5.828   3.729   8.003  0.4366 -0.5136 -0.3733
   18DOPE  H18Z 2322   5.711   3.715   7.866 -0.0547 -0.3215  0.9648
   19DOPE     N 2323   5.350   4.126   9.853  0.3126 -0.7614 -0.0385
   19DOPE   HN1 2324   5.293   4.050   9.895  1.2958 -1.2319  0.4885
   19DOPE   HN2 2325   5.306   4.220   9.859  1.2770  0.2413 -4.6276
   19DOPE   HN3 2326   5.352   4.092   9.755  0.8286 -1.2704  0.1429
   19DOPE   C12 2327   5.487   4.133   9.904  0.2068  0.1754 -0.2186
   19DOPE  H12A 2328   5.487   4.175  10.007 -1.0942  0.3651 -0.2764
   19DOPE  H12B 2329   5.562   4.179   9.836 -0.2491  0.8511 -0.2814
   19DOPE   C11 2330   5.536   3.981   9.915  0.6486 -0.4549  0.8035
   19DOPE  H11A 2331   5.476   3.932   9.995  1.3179  0.3657  1.8244
   19DOPE  H11B 2332   5.637   3.973   9.960  1.3672 -2.6348 -0.9752
   19DOPE     P 2333   5.635   3.891   9.687 -0.0495  0.4014  0.8139
   19DOPE   O13 2334   5.578   3.844   9.564  0.3952 -0.1302  0.3702
   19DOPE   O14 2335   5.748   3.816   9.739  0.2784  0.4787 -0.1433
   19DOPE   O11 2336   5.681   4.041   9.673 -0.1942  0.9863  0.8676
   19DOPE   O12 2337   5.522   3.915   9.793  0.1147  0.5699  0.3013
   19DOPE    C1 2338   5.617   4.132   9.578 -0.4581 -1.0188 -0.5049
   19DOPE    HA 2339   5.590   4.227   9.629 -0.4802 -1.4146  0.2388
   19DOPE    HB 2340   5.525   4.086   9.536 -0.6330 -2.6465  1.4613
   19DOPE    C2 2341   5.718   4.165   9.473  0.0789 -0.5689  0.0010
   19DOPE    HS 2342   5.763   4.077   9.423 -0.2580 -0.8941  0.2725
   19DOPE   O21 2343   5.810   4.259   9.522  0.2545 -0.0014 -0.4228
   19DOPE   C21 2344   5.934   4.221   9.542  0.8177 -0.3126 -0.1982
   19DOPE   O22 2345   5.975   4.105   9.527 -0.7832 -0.7499  0.3197
   19DOPE   C22 2346   6.020   4.347   9.566  0.3320  1.2059  0.0242
   19DOPE   H2R 2347   5.989   4.407   9.654  0.3820  0.6387  0.4331
   19DOPE   H2S 2348   5.993   4.402   9.474  1.4537  0.2918 -0.8939
   19DOPE    C3 2349   5.651   4.239   9.356  0.5055 -0.0116 -0.2619
   19DOPE    HX 2350   5.730   4.285   9.293 -0.7655  0.0614 -1.8604
   19DOPE    HY 2351   5.606   4.328   9.405 -1.2984 -0.5170 -0.9261
   19DOPE   O31 2352   5.548   4.167   9.286  0.1750 -0.2367  0.7425
   19DOPE   C31 2353   5.596   4.075   9.203 -0.8786  0.2809 -0.3174
   19DOPE   O32 2354   5.712   4.050   9.186 -0.4789 -0.3786 -0.5765
   19DOPE   C32 2355   5.486   3.989   9.148  0.7076 -0.3731  0.4241
   19DOPE   H2X 2356   5.430   3.961   9.240 -0.4084 -1.9133 -0.6817
   19DOPE   H2Y 2357   5.417   4.061   9.099  1.6914 -0.4483 -1.1138
   19DOPE   C23 2358   6.173   4.310   9.560 -0.7132 -1.0320  0.7707
   19DOPE   H3R 2359   6.201   4.246   9.474 -0.3852 -0.4434  0.4325
   19DOPE   H3S 2360   6.212   4.265   9.654  0.0308 -0.5448  0.7018
   19DOPE   C24 2361   6.265   4.431   9.538 -0.0006 -0.1522 -0.3710
   19DOPE   H4R 2362   6.368   4.393   9.547 -0.2618 -0.6943  0.3737
   19DOPE   H4S 2363   6.236   4.501   9.620  0.5338 -0.2997 -0.0532
   19DOPE   C25 2364   6.236   4.508   9.408 -0.0034  0.1057  0.3166
   19DOPE   H5R 2365   6.133   4.549   9.404 -0.7728 -1.7581 -1.2733
   19DOPE   H5S 2366   6.236   4.442   9.318  1.3429  2.0342 -1.1744
   19DOPE   C26 2367   6.318   4.641   9.394  0.2310  0.2289  0.2395
   19DOPE   H6R 2368   6.293   4.696   9.487  2.5469  2.1605 -0.1842
   19DOPE   H6S 2369   6.268   4.696   9.312 -1.7484 -0.2456  1.0672
   19DOPE   C27 2370   6.468   4.622   9.379 -0.3207 -0.3117  0.2553
   19DOPE   H7R 2371   6.505   4.574   9.472 -1.2121  0.0231  0.7966
   19DOPE   H7S 2372   6.522   4.718   9.364 -0.6703  0.1743  1.8428
   19DOPE   C28 2373   6.489   4.541   9.253 -0.5261  1.0166 -0.7305
   19DOPE   H8R 2374   6.423   4.581   9.172 -2.5619  1.1879  0.9518
   19DOPE   H8S 2375   6.452   4.438   9.271  1.8169  0.2566  0.0103
   19DOPE   C29 2376   6.631   4.525   9.220  0.2500  0.2053  0.7080
   19DOPE   H9R 2377   6.672   4.477   9.310 -1.8761  0.7083  2.0106
   19DOPE  C210 2378   6.709   4.565   9.121 -0.2046 -0.2361  0.1110
   19DOPE  H10R 2379   6.818   4.550   9.117 -0.0781  0.9091 -1.2430
   19DOPE  C211 2380   6.667   4.650   9.002  0.5382  0.3487 -0.8941
   19DOPE  H11R 2381   6.734   4.738   8.991  0.5765  0.3264 -0.8437
   19DOPE  H11S 2382   6.565   4.691   9.017  0.3675 -1.1385  3.9289
   19DOPE  C212 2383   6.667   4.568   8.875  0.9085 -0.2031  0.2349
   19DOPE  H12R 2384   6.602   4.478   8.880 -2.1559  1.9341  2.5743
   19DOPE  H12S 2385   6.773   4.539   8.855  0.5835 -0.8938 -0.5220
   19DOPE  C213 2386   6.607   4.657   8.765 -0.4174 -0.7712 -0.8294
   19DOPE  H13R 2387   6.653   4.757   8.776  1.4239 -1.5307 -1.2657
   19DOPE  H13S 2388   6.496   4.665   8.769 -0.2945  0.7717  2.0005
   19DOPE  C214 2389   6.657   4.613   8.624 -0.7543 -0.4427  0.0995
   19DOPE  H14R 2390   6.618   4.512   8.599 -3.0295  0.4608 -0.2167
   19DOPE  H14S 2391   6.768   4.606   8.622 -0.6508  0.6082  1.0752
   19DOPE  C215 2392   6.623   4.710   8.510  0.0023 -0.2128 -0.3289
   19DOPE  H15R 2393   6.642   4.818   8.528 -2.6329  0.2550  0.0349
   19DOPE  H15S 2394   6.513   4.703   8.502 -0.0378  0.1985 -0.2024
   19DOPE  C216 2395   6.687   4.679   8.373  0.1592 -0.6156  0.5860
   19DOPE  H16R 2396   6.797   4.669   8.370  0.1225 -0.9100 -0.3410
   19DOPE  H16S 2397   6.664   4.763   8.304  1.5401  0.4608  1.3966
   19DOPE  C217 2398   6.633   4.553   8.299 -0.1788  0.4917 -0.8177
   19DOPE  H17R 2399   6.522   4.553   8.304 -0.1878  0.2312 -0.9690
   19DOPE  H17S 2400   6.665   4.465   8.359  1.9435  1.2681 -0.7089
   19DOPE  C218 2401   6.689   4.550   8.160 -0.6620 -0.2680  0.4601
   19DOPE  H18R 2402   6.654   4.634   8.096  0.0057 -0.3097  0.0316
   19DOPE  H18S 2403   6.664   4.456   8.107  0.8848 -0.9032  0.8137
   19DOPE  H18T 2404   6.799   4.562   8.158 -0.9345  3.2743 -1.4892
   19DOPE   C33 2405   5.534   3.877   9.058  0.0123 -0.0258 -0.2472
   19DOPE   H3X 2406   5.464   3.791   9.050  0.8160 -0.6071 -1.2182
   19DOPE   H3Y 2407   5.622   3.823   9.097  0.4947  0.8132 -0.1591
   19DOPE   C34 2408   5.553   3.934   8.919  0.0881  0.7141  0.0428
   19DOPE   H4X 2409   5.459   3.986   8.890 -0.4274  0.4662  1.2197
   19DOPE   H4Y 2410   5.634   4.010   8.913  0.7052  0.0951  0.3665
   19DOPE   C35 2411   5.583   3.826   8.811  0.5287  0.3582 -0.8053
   19DOPE   H5X 2412   5.499   3.754   8.803  1.8643 -1.2399 -1.1877
   19DOPE   H5Y 2413   5.678   3.775   8.840 -0.4156 -1.6904 -1.0938
   19DOPE   C36 2414   5.595   3.885   8.669 -0.2667  0.1052 -0.3045
   19DOPE   H6X 2415   5.653   3.979   8.679 -2.1618  1.2539  0.3688
   19DOPE   H6Y 2416   5.496   3.912   8.626 -0.6378  0.2256  0.6003
   19DOPE   C37 2417   5.670   3.790   8.573 -0.6833  0.1589 -0.0371
   19DOPE   H7X 2418   5.765   3.748   8.612 -2.1943 -2.6248  0.8827
   19DOPE   H7Y 2419   5.612   3.696   8.569  1.5247 -1.2472 -0.9290
   19DOPE   C38 2420   5.673   3.849   8.430  0.4548 -0.2327 -0.1086
   19DOPE   H8X 2421   5.716   3.951   8.439 -0.0182  0.2850 -2.8886
   19DOPE   H8Y 2422   5.569   3.877   8.402  0.9052  0.6688 -0.9237
   19DOPE   C39 2423   5.741   3.746   8.348  0.3361  0.1726  0.1690
   19DOPE   H9X 2424   5.682   3.673   8.293  0.8501  0.8729 -1.3782
   19DOPE  C310 2425   5.873   3.721   8.343  0.6535  0.4019 -0.2611
   19DOPE  H10X 2426   5.904   3.635   8.281  4.7347  0.9600  0.7283
   19DOPE  C311 2427   5.978   3.784   8.428  0.0581  0.5740  0.5538
   19DOPE  H11X 2428   5.930   3.864   8.489 -0.9516 -0.9714  1.9064
   19DOPE  H11Y 2429   6.022   3.712   8.500  0.6419 -2.0740 -2.2420
   19DOPE  C312 2430   6.098   3.844   8.350 -1.5715 -0.7895  0.0623
   19DOPE  H12X 2431   6.174   3.763   8.346  1.0140  1.3938  1.3553
   19DOPE  H12Y 2432   6.139   3.928   8.410 -2.9072  0.5260 -0.8000
   19DOPE  C313 2433   6.076   3.903   8.208  0.2276 -0.0176  0.1611
   19DOPE  H13X 2434   6.172   3.933   8.161  1.3122 -2.8638  0.3630
   19DOPE  H13Y 2435   6.035   3.826   8.140 -1.2367  2.4331 -1.9237
   19DOPE  C314 2436   5.980   4.017   8.190 -0.2230 -0.3222 -1.3777
   19DOPE  H14X 2437   6.002   4.108   8.251 -0.4337  0.4689 -2.4409
   19DOPE  H14Y 2438   5.881   3.980   8.224  0.9864 -0.7920  1.9989
   19DOPE  C315 2439   5.971   4.049   8.040  0.4191 -0.1753 -0.0993
   19DOPE  H15X 2440   5.883   4.117   8.034  1.4978  1.4985  1.8398
   19DOPE  H15Y 2441   5.959   3.960   7.975 -0.6352  0.0735 -0.2746
   19DOPE  C316 2442   6.095   4.135   8.001 -0.1085 -0.0551 -0.4111
   19DOPE  H16X 2443   6.192   4.086   8.021 -1.5043 -3.1431 -0.6288
   19DOPE  H16Y 2444   6.099   4.235   8.049 -0.7891  0.6853 -1.8278
   19DOPE  C317 2445   6.093   4.165   7.847 -0.1541 -0.6624 -0.6677
   19DOPE  H17X 2446   6.095   4.073   7.785  1.5652 -2.3969  1.8023
   19DOPE  H17Y 2447   5.997   4.214   7.819  0.7739  0.0613 -2.8324
   19DOPE  C318 2448   6.199   4.265   7.796  0.5243 -0.1584  0.0686
   19DOPE  H18X 2449   6.191   4.365   7.845  1.2250 -1.1714  2.3862
   19DOPE  H18Y 2450   6.294   4.217   7.827 -0.1831 -1.4762  0.2715
   19DOPE  H18Z 2451   6.202   4.285   7.687 -0.4308  1.2251  0.2652
   20DOPE     N 2452   3.943   6.557   9.954  0.3107 -0.5519  0.1448
   20DOPE   HN1 2453   4.004   6.479   9.924  0.7029  0.5677 -2.2422
   20DOPE   HN2 2454   3.972   6.598  10.045 -1.1336  1.8673 -0.3777
   20DOPE   HN3 2455   3.847   6.517   9.963 -0.2998  1.2294  2.8171
   20DOPE   C12 2456   3.940   6.669   9.854  0.8598 -0.2985  0.0368
   20DOPE  H12A 2457   3.912   6.758   9.915  1.8435 -0.1345  0.2557
   20DOPE  H12B 2458   3.864   6.645   9.776  0.7460  0.1287  0.0133
   20DOPE   C11 2459   4.082   6.698   9.806 -0.0441 -0.0678  0.0760
   20DOPE  H11A 2460   4.079   6.797   9.756  0.0240 -0.5628 -0.9359
   20DOPE  H11B 2461   4.096   6.625   9.724 -2.4920 -0.4954 -0.0244
   20DOPE     P 2462   4.332   6.688   9.883 -0.1891 -0.0109 -0.0326
   20DOPE   O13 2463   4.409   6.670  10.007  0.3210 -0.6179 -0.5195
   20DOPE   O14 2464   4.365   6.807   9.799  0.2957  0.0016  0.0283
   20DOPE   O11 2465   4.358   6.563   9.789 -0.6237 -0.2861  0.1854
   20DOPE   O12 2466   4.182   6.683   9.912 -0.5463 -0.1881  0.2930
   20DOPE    C1 2467   4.482   6.501   9.766  0.0989 -0.4239  0.7840
   20DOPE    HA 2468   4.466   6.392   9.757 -0.4099 -0.2071 -1.1789
   20DOPE    HB 2469   4.562   6.520   9.842  1.3658 -1.1961 -0.3089
   20DOPE    C2 2470   4.540   6.537   9.622  0.5196  1.2017  0.6998
   20DOPE    HS 2471   4.581   6.640   9.617  0.5544  1.1184 -2.0223
   20DOPE   O21 2472   4.435   6.516   9.522  0.1015 -0.0492  0.0390
   20DOPE   C21 2473   4.368   6.630   9.491 -0.6273  0.6102 -0.4433
   20DOPE   O22 2474   4.404   6.748   9.508 -0.3021 -0.1627  0.3849
   20DOPE   C22 2475   4.241   6.598   9.427  0.2728 -0.3339  0.2258
   20DOPE   H2R 2476   4.173   6.572   9.511  0.1257  0.2128  0.2762
   20DOPE   H2S 2477   4.252   6.512   9.357 -0.8234 -0.5542  0.3162
   20DOPE    C3 2478   4.652   6.435   9.577 -0.0720 -0.0281 -0.9644
   20DOPE    HX 2479   4.612   6.332   9.579  2.6358 -1.1677  1.3082
   20DOPE    HY 2480   4.742   6.442   9.643 -0.0298 -1.3468 -0.8602
   20DOPE   O31 2481   4.695   6.452   9.435  0.5830 -0.7509 -0.6363
   20DOPE   C31 2482   4.748   6.573   9.395  0.2752 -0.0070  0.2942
   20DOPE   O32 2483   4.764   6.669   9.466 -0.4223  0.0254  0.1890
   20DOPE   C32 2484   4.783   6.570   9.250  0.2769 -0.3765 -0.4521
   20DOPE   H2X 2485   4.887   6.610   9.244  1.5745 -3.4172  0.1322
   20DOPE   H2Y 2486   4.790   6.464   9.217  3.0780 -0.2859 -0.3828
   20DOPE   C23 2487   4.182   6.718   9.350 -0.4968 -1.5592 -0.5999
   20DOPE   H3R 2488   4.262   6.753   9.283 -2.3856 -0.7730 -2.5541
   20DOPE   H3S 2489   4.169   6.797   9.428  0.8821 -1.6099 -0.3024
   20DOPE   C24 2490   4.065   6.667   9.267 -0.2593  0.9543  0.2832
   20DOPE   H4R 2491   4.028   6.761   9.219  2.9079  0.6047 -3.3567
   20DOPE   H4S 2492   3.986   6.619   9.328  0.6074 -1.0440 -0.1176
   20DOPE   C25 2493   4.104   6.569   9.154  0.2425 -0.6573 -0.6093
   20DOPE   H5R 2494   4.115   6.468   9.198 -1.8486  0.4771  2.9011
   20DOPE   H5S 2495   4.197   6.600   9.102  0.2945  0.7281  0.2919
   20DOPE   C26 2496   3.992   6.551   9.054  0.5050 -0.0972 -0.1434
   20DOPE   H6R 2497   3.897   6.514   9.096  0.1267  1.3850  0.3710
   20DOPE   H6S 2498   4.025   6.491   8.966 -0.4719  1.9177 -1.9837
   20DOPE   C27 2499   3.964   6.677   8.979  0.4047 -0.1006  0.1093
   20DOPE   H7R 2500   4.059   6.722   8.943  0.0665 -0.9952 -2.0676
   20DOPE   H7S 2501   3.914   6.748   9.048  0.9133  1.1967 -0.8230
   20DOPE   C28 2502   3.882   6.657   8.851 -0.0452 -0.2168  0.2770
   20DOPE   H8R 2503   3.828   6.753   8.834  2.3164  1.0646 -0.5500
   20DOPE   H8S 2504   3.806   6.578   8.867  0.8146 -1.1333 -0.0566
   20DOPE   C29 2505   3.953   6.635   8.720  0.8040  0.2691  0.9604
   20DOPE   H9R 2506   4.040   6.567   8.720 -0.5474 -1.6071 -1.3917
   20DOPE  C210 2507   3.920   6.681   8.595  0.0356  0.2187 -0.1529
   20DOPE  H10R 2508   3.992   6.661   8.514  0.5674  2.3426 -0.2697
   20DOPE  C211 2509   3.810   6.773   8.547 -0.5309 -0.3036 -0.2701
   20DOPE  H11R 2510   3.851   6.860   8.491  2.2250  0.4800  2.6547
   20DOPE  H11S 2511   3.768   6.821   8.639 -0.0448 -1.0052  0.3293
   20DOPE  C212 2512   3.706   6.695   8.462 -0.1229 -0.9564  0.0214
   20DOPE  H12R 2513   3.618   6.760   8.442 -0.1514 -1.0692 -0.2182
   20DOPE  H12S 2514   3.665   6.616   8.529  0.1338 -0.2296  1.0632
   20DOPE  C213 2515   3.766   6.639   8.327  0.5296  0.0994 -0.1936
   20DOPE  H13R 2516   3.681   6.593   8.271  0.1239 -0.1248  0.5938
   20DOPE  H13S 2517   3.843   6.562   8.349 -0.5550 -0.9241  0.1540
   20DOPE  C214 2518   3.826   6.742   8.235 -0.4211 -0.2341  0.4042
   20DOPE  H14R 2519   3.919   6.788   8.276 -0.2079 -2.2120  2.2756
   20DOPE  H14S 2520   3.761   6.831   8.226 -0.4966 -0.2736  0.5595
   20DOPE  C215 2521   3.877   6.690   8.100  0.8402  0.0865 -0.0295
   20DOPE  H15R 2522   3.808   6.619   8.050  1.1730  0.3027 -0.8118
   20DOPE  H15S 2523   3.963   6.631   8.135  1.0166  0.4780  0.2062
   20DOPE  C216 2524   3.916   6.797   7.995  0.1919  1.1797  0.5445
   20DOPE  H16R 2525   4.006   6.851   8.031  0.7966 -1.0268  2.6290
   20DOPE  H16S 2526   3.848   6.883   7.983  2.7764  3.1534 -1.0150
   20DOPE  C217 2527   3.950   6.732   7.860  0.2104 -1.0171  0.5050
   20DOPE  H17R 2528   3.860   6.680   7.820 -0.0775 -0.4420  0.3960
   20DOPE  H17S 2529   4.031   6.657   7.870  0.3246 -1.1684 -1.2800
   20DOPE  C218 2530   3.999   6.842   7.765 -0.2083 -0.3579  0.4437
   20DOPE  H18R 2531   3.911   6.907   7.748 -0.9815 -0.9432  2.0807
   20DOPE  H18S 2532   4.039   6.800   7.670 -0.6542 -2.4724  1.1539
   20DOPE  H18T 2533   4.075   6.907   7.813  1.2599  0.3665 -2.5975
   20DOPE   C33 2534   4.683   6.648   9.150  0.5681  0.8538 -0.3983
   20DOPE   H3X 2535   4.702   6.751   9.188 -0.3795  0.0462  2.4990
   20DOPE   H3Y 2536   4.580   6.617   9.178  0.7268  1.0800  0.4806
   20DOPE   C34 2537   4.706   6.625   9.003 -0.5648  0.2608 -0.7103
   20DOPE   H4X 2538   4.803   6.670   8.974 -1.0989  1.7647 -0.2710
   20DOPE   H4Y 2539   4.715   6.515   8.993 -3.2270 -0.3007  1.6887
   20DOPE   C35 2540   4.597   6.690   8.913  0.2637  0.2323  0.0909
   20DOPE   H5X 2541   4.584   6.793   8.953  0.0504  0.7236 -1.2270
   20DOPE   H5Y 2542   4.509   6.626   8.935  1.2826 -1.5954 -0.9214
   20DOPE   C36 2543   4.610   6.682   8.759 -0.7024 -0.2313  0.4366
   20DOPE   H6X 2544   4.514   6.717   8.716 -1.0152 -2.4214 -0.8193
   20DOPE   H6Y 2545   4.607   6.578   8.719  1.5787  0.2813 -1.2639
   20DOPE   C37 2546   4.738   6.747   8.710 -0.2388 -0.6715 -0.1694
   20DOPE   H7X 2547   4.744   6.857   8.725  0.2971 -0.1686 -3.3924
   20DOPE   H7Y 2548   4.814   6.698   8.774 -1.7633 -0.1484  2.1706
   20DOPE   C38 2549   4.765   6.735   8.560  0.6553 -0.2416  0.9164
   20DOPE   H8X 2550   4.676   6.778   8.509  0.9764  0.1156  0.6433
   20DOPE   H8Y 2551   4.772   6.630   8.526 -1.2006  0.4058 -1.8204
   20DOPE   C39 2552   4.887   6.803   8.514 -0.9061  0.1133 -0.4136
   20DOPE   H9X 2553   4.968   6.807   8.588 -0.4878 -1.2665 -0.7582
   20DOPE  C310 2554   4.929   6.833   8.385  0.7310 -0.3160 -0.4963
   20DOPE  H10X 2555   5.022   6.889   8.372  0.0879  1.1818  1.0188
   20DOPE  C311 2556   4.851   6.799   8.262 -0.5573 -0.6487 -0.3142
   20DOPE  H11X 2557   4.871   6.693   8.235 -1.2371 -0.6705 -0.7813
   20DOPE  H11Y 2558   4.745   6.832   8.266 -0.1440  0.8016 -0.7393
   20DOPE  C312 2559   4.921   6.877   8.153 -0.4319  0.2301  0.0707
   20DOPE  H12X 2560   4.911   6.985   8.175 -0.4607  0.5480 -1.3544
   20DOPE  H12Y 2561   4.853   6.861   8.066 -1.6573  1.0841  0.8417
   20DOPE  C313 2562   5.058   6.834   8.115  0.0378 -0.2883 -0.0643
   20DOPE  H13X 2563   5.126   6.823   8.202 -0.5318 -3.0691  0.1270
   20DOPE  H13Y 2564   5.059   6.730   8.076  1.8230 -0.4029  0.2192
   20DOPE  C314 2565   5.125   6.926   8.016  0.4225 -0.2831 -1.0762
   20DOPE  H14X 2566   5.047   6.951   7.941 -0.4047  0.4017 -0.0062
   20DOPE  H14Y 2567   5.219   6.889   7.969  0.2122  1.2452 -2.7638
   20DOPE  C315 2568   5.178   7.057   8.087  0.4149 -0.1949  0.1393
   20DOPE  H15X 2569   5.266   7.026   8.148  1.3689  0.0403 -1.0679
   20DOPE  H15Y 2570   5.113   7.097   8.168  1.9711 -0.4725  1.5786
   20DOPE  C316 2571   5.228   7.164   7.988  0.1151  0.2458  0.6259
   20DOPE  H16X 2572   5.153   7.205   7.917  1.6716  0.1809 -1.1204
   20DOPE  H16Y 2573   5.305   7.120   7.921 -0.8146 -0.1632 -0.1891
   20DOPE  C317 2574   5.297   7.278   8.061  0.2795  0.6768 -0.3434
   20DOPE  H17X 2575   5.380   7.231   8.118 -1.2506  1.0601  2.3570
   20DOPE  H17Y 2576   5.347   7.347   7.989  1.3851  0.0026 -0.2494
   20DOPE  C318 2577   5.211   7.353   8.163  0.0418 -0.6045  0.0524
   20DOPE  H18X 2578   5.117   7.374   8.107  0.1493  0.0705  0.1230
   20DOPE  H18Y 2579   5.204   7.303   8.262 -0.8572  1.3795  1.0481
   20DOPE  H18Z 2580   5.265   7.449   8.177  1.1995 -1.4221  1.4892
   21DOPE     N 2581   2.246   0.807   9.675 -0.2887 -0.2348  0.1882
   21DOPE   HN1 2582   2.342   0.839   9.652 -0.1455 -0.5704  0.3010
   21DOPE   HN2 2583   2.218   0.714   9.638 -0.4248 -1.0444  2.1721
   21DOPE   HN3 2584   2.191   0.890   9.644 -0.0459  0.8907  2.5350
   21DOPE   C12 2585   2.224   0.787   9.823 -0.2460 -0.1816 -0.2306
   21DOPE  H12A 2586   2.248   0.880   9.879 -0.2917 -1.1220  1.4215
   21DOPE  H12B 2587   2.291   0.709   9.864  2.3164  2.9122  2.0134
   21DOPE   C11 2588   2.074   0.748   9.844 -1.0483 -0.3953  0.3855
   21DOPE  H11A 2589   2.019   0.842   9.821 -0.5034  0.3755  2.0563
   21DOPE  H11B 2590   2.057   0.729   9.952  0.6256  2.1071  1.2007
   21DOPE     P 2591   1.881   0.599   9.769  0.0247 -0.0718 -0.0128
   21DOPE   O13 2592   1.810   0.713   9.698  0.2161 -0.3885  0.1432
   21DOPE   O14 2593   1.840   0.563   9.905 -0.3932 -0.5274 -0.1969
   21DOPE   O11 2594   1.870   0.472   9.681  0.1406  0.0024  0.2759
   21DOPE   O12 2595   2.035   0.638   9.759 -0.2817  0.5514 -0.4499
   21DOPE    C1 2596   1.951   0.357   9.698  0.2130 -0.1424 -0.0016
   21DOPE    HA 2597   1.933   0.309   9.797  2.1096 -0.6450  0.1464
   21DOPE    HB 2598   2.062   0.370   9.695  0.6271 -2.2019  2.5671
   21DOPE    C2 2599   1.921   0.247   9.584 -0.2000 -0.6981 -0.6178
   21DOPE    HS 2600   1.812   0.223   9.591 -0.7267  0.7348 -2.8962
   21DOPE   O21 2601   1.996   0.127   9.611  0.3080  0.7570  0.9459
   21DOPE   C21 2602   1.952   0.013   9.549 -0.5863 -0.6741 -1.0404
   21DOPE   O22 2603   1.838   0.002   9.505 -0.8688  0.1238 -0.7730
   21DOPE   C22 2604   2.062  -0.089   9.562 -0.2846  0.3331 -0.6873
   21DOPE   H2R 2605   2.068  -0.119   9.669  1.3146  0.6481 -0.6565
   21DOPE   H2S 2606   2.163  -0.055   9.530  0.3474 -0.7588  0.0771
   21DOPE    C3 2607   1.937   0.298   9.442 -0.0412  0.3105  0.7118
   21DOPE    HX 2608   2.044   0.291   9.416 -0.1367 -0.9804  0.5897
   21DOPE    HY 2609   1.918   0.407   9.456 -0.1437  0.0857  2.7331
   21DOPE   O31 2610   1.840   0.246   9.352  0.3123 -0.1169 -0.2936
   21DOPE   C31 2611   1.886   0.186   9.245  0.5711  0.4493  0.0708
   21DOPE   O32 2612   1.995   0.180   9.200  0.3334 -0.8904 -0.0793
   21DOPE   C32 2613   1.766   0.106   9.173  0.2442 -0.5076 -1.0170
   21DOPE   H2X 2614   1.697   0.061   9.248  0.4492  0.0419 -0.4852
   21DOPE   H2Y 2615   1.717   0.174   9.100  0.9311  0.2983 -0.7493
   21DOPE   C23 2616   2.030  -0.220   9.484 -0.6662  0.2037 -0.6727
   21DOPE   H3R 2617   1.923  -0.247   9.482 -0.9416  1.2032 -0.1769
   21DOPE   H3S 2618   2.089  -0.305   9.524 -1.6020  0.0808  0.5041
   21DOPE   C24 2619   2.078  -0.220   9.335  0.1415  0.4660  0.1239
   21DOPE   H4R 2620   2.187  -0.198   9.330  0.0444  0.8432 -0.3415
   21DOPE   H4S 2621   2.027  -0.131   9.292 -0.2580 -0.1330 -0.6778
   21DOPE   C25 2622   2.053  -0.349   9.252  0.2825  0.5934 -0.0638
   21DOPE   H5R 2623   1.943  -0.363   9.248  0.6341 -2.9046 -2.0074
   21DOPE   H5S 2624   2.098  -0.433   9.310 -2.2107 -0.4270  0.5251
   21DOPE   C26 2625   2.085  -0.321   9.108 -0.0266  0.0407  0.2082
   21DOPE   H6R 2626   2.188  -0.283   9.092 -0.3139  0.6478 -0.2700
   21DOPE   H6S 2627   2.024  -0.231   9.085  0.9061  0.9162  1.0642
   21DOPE   C27 2628   2.061  -0.441   9.013  0.7735 -0.0973 -0.0747
   21DOPE   H7R 2629   1.971  -0.484   9.062  0.3364 -0.4952 -1.2073
   21DOPE   H7S 2630   2.144  -0.516   9.017  0.7825 -0.3274 -2.7496
   21DOPE   C28 2631   2.034  -0.412   8.865  0.4170  0.1519  0.3300
   21DOPE   H8R 2632   1.953  -0.338   8.846 -0.6422 -1.3866 -1.5146
   21DOPE   H8S 2633   1.989  -0.507   8.830 -1.4481  2.3220 -3.8692
   21DOPE   C29 2634   2.144  -0.369   8.777 -1.0629  0.5353 -0.1337
   21DOPE   H9R 2635   2.217  -0.297   8.818  0.6537 -1.7957  1.1510
   21DOPE  C210 2636   2.147  -0.379   8.644 -0.1661 -0.3971 -0.3372
   21DOPE  H10R 2637   2.252  -0.363   8.614  0.5312  0.9038  2.4439
   21DOPE  C211 2638   2.064  -0.463   8.553  0.9731  0.1506  0.0337
   21DOPE  H11R 2639   1.985  -0.401   8.507  2.8397  0.8699 -2.3975
   21DOPE  H11S 2640   2.017  -0.539   8.620  2.3021  1.3389  2.4519
   21DOPE  C212 2641   2.148  -0.532   8.444  0.0201  0.3601  0.3307
   21DOPE  H12R 2642   2.080  -0.604   8.393 -1.3122  1.3460  0.6376
   21DOPE  H12S 2643   2.238  -0.578   8.489 -0.0384 -2.3955 -2.0308
   21DOPE  C213 2644   2.179  -0.439   8.329  0.0530  0.3082  0.0816
   21DOPE  H13R 2645   2.241  -0.357   8.371  1.1387 -0.7854  0.6447
   21DOPE  H13S 2646   2.088  -0.392   8.285 -1.8849 -1.6615  1.7730
   21DOPE  C214 2647   2.263  -0.503   8.218 -0.7507 -0.3548 -0.4102
   21DOPE  H14R 2648   2.189  -0.540   8.143 -0.8444 -0.6112 -0.1936
   21DOPE  H14S 2649   2.310  -0.593   8.262 -1.1039  0.3163  1.4338
   21DOPE  C215 2650   2.374  -0.413   8.163 -0.0557  0.0816 -0.5081
   21DOPE  H15R 2651   2.433  -0.378   8.250 -2.0544  1.9475  0.1938
   21DOPE  H15S 2652   2.321  -0.321   8.131 -0.8269 -0.5372 -1.0795
   21DOPE  C216 2653   2.450  -0.463   8.038  0.2121  0.0433 -0.5262
   21DOPE  H16R 2654   2.523  -0.536   8.079  1.3431  0.4361 -1.7550
   21DOPE  H16S 2655   2.510  -0.376   8.004  1.3762 -1.0987 -1.5299
   21DOPE  C217 2656   2.367  -0.534   7.926  0.2384 -0.2293  0.0622
   21DOPE  H17R 2657   2.272  -0.480   7.906 -0.3237 -0.8479  0.9949
   21DOPE  H17S 2658   2.341  -0.632   7.971  0.2094  0.3658  1.3701
   21DOPE  C218 2659   2.456  -0.550   7.800  0.2180  0.1428 -0.0718
   21DOPE  H18R 2660   2.380  -0.568   7.721 -0.9098 -1.1665  1.2579
   21DOPE  H18S 2661   2.524  -0.638   7.804 -0.1142 -0.1493 -0.7488
   21DOPE  H18T 2662   2.507  -0.451   7.790 -1.2602  0.8900 -0.4749
   21DOPE   C33 2663   1.816  -0.013   9.076 -0.0403  0.0387  0.2368
   21DOPE   H3X 2664   1.745  -0.098   9.081 -0.3701  0.1874 -1.5517
   21DOPE   H3Y 2665   1.915  -0.050   9.111 -0.3113 -1.2122 -0.2743
   21DOPE   C34 2666   1.813   0.030   8.927 -0.4514  0.5094 -0.3200
   21DOPE   H4X 2667   1.721   0.079   8.891 -0.7592 -0.5653 -1.0157
   21DOPE   H4Y 2668   1.902   0.097   8.916  1.9530 -2.6490 -1.5979
   21DOPE   C35 2669   1.835  -0.091   8.844 -0.3098 -0.3258  0.1833
   21DOPE   H5X 2670   1.775  -0.179   8.876  0.1735 -0.1389  1.6532
   21DOPE   H5Y 2671   1.942  -0.119   8.850 -0.4111 -1.2964 -1.5929
   21DOPE   C36 2672   1.810  -0.056   8.696  0.1972 -0.0087 -0.1156
   21DOPE   H6X 2673   1.864   0.036   8.665  2.1133 -1.0181  0.0783
   21DOPE   H6Y 2674   1.707  -0.018   8.684 -0.4441 -1.4541  0.5751
   21DOPE   C37 2675   1.841  -0.172   8.608 -0.6566  0.3672  0.7341
   21DOPE   H7X 2676   1.950  -0.184   8.592 -1.0018 -0.1198 -1.5762
   21DOPE   H7Y 2677   1.808  -0.267   8.656 -0.6344 -0.3706 -0.6525
   21DOPE   C38 2678   1.760  -0.167   8.474  0.3593  0.0363  0.2180
   21DOPE   H8X 2679   1.657  -0.163   8.515  0.7977  1.1862  1.2920
   21DOPE   H8Y 2680   1.787  -0.265   8.429  2.1434  0.8270 -0.5636
   21DOPE   C39 2681   1.807  -0.050   8.396 -0.1765 -0.3650 -0.2197
   21DOPE   H9X 2682   1.843   0.038   8.452 -1.3273  0.7640 -1.1991
   21DOPE  C310 2683   1.814  -0.043   8.257  0.3110 -0.4029 -0.6716
   21DOPE  H10X 2684   1.845   0.050   8.207  0.7674 -0.5141 -0.5980
   21DOPE  C311 2685   1.771  -0.161   8.174 -0.1107 -0.5310 -0.0923
   21DOPE  H11X 2686   1.773  -0.260   8.226  0.3033  0.1555  1.2461
   21DOPE  H11Y 2687   1.670  -0.146   8.131 -0.3915  0.1064  0.7708
   21DOPE  C312 2688   1.872  -0.169   8.053  0.7097  0.5730 -0.5978
   21DOPE  H12X 2689   1.968  -0.219   8.079 -0.7393 -2.6280 -0.8498
   21DOPE  H12Y 2690   1.894  -0.069   8.011 -1.3635  0.6602 -1.5676
   21DOPE  C313 2691   1.805  -0.246   7.936 -0.1525  0.8065 -0.2633
   21DOPE  H13X 2692   1.779  -0.345   7.980  1.1002  1.3976  1.9306
   21DOPE  H13Y 2693   1.716  -0.188   7.905  0.2025  1.2660 -0.4248
   21DOPE  C314 2694   1.906  -0.268   7.819  0.3854  0.7497 -0.0145
   21DOPE  H14X 2695   1.987  -0.192   7.819 -0.6313  1.8722  0.8868
   21DOPE  H14Y 2696   1.863  -0.259   7.717 -1.7550  1.3493  0.8809
   21DOPE  C315 2697   1.977  -0.398   7.825  0.3050  0.5490 -0.3003
   21DOPE  H15X 2698   1.988  -0.431   7.930 -1.8442 -0.1425 -0.2393
   21DOPE  H15Y 2699   2.075  -0.395   7.773  0.5744 -1.8954 -0.0597
   21DOPE  C316 2700   1.876  -0.506   7.768  0.3301  0.5967  0.2980
   21DOPE  H16X 2701   1.820  -0.460   7.684  0.2598  0.0482  0.0365
   21DOPE  H16Y 2702   1.805  -0.530   7.850  0.5301 -2.4075 -0.2715
   21DOPE  C317 2703   1.932  -0.646   7.727 -0.7410 -0.0499  0.0530
   21DOPE  H17X 2704   1.976  -0.640   7.625  1.4524  0.3458  0.9622
   21DOPE  H17Y 2705   2.016  -0.666   7.798 -1.0619  1.4985  0.9124
   21DOPE  C318 2706   1.831  -0.761   7.718  0.2228 -0.3515 -0.4628
   21DOPE  H18X 2707   1.776  -0.749   7.622 -0.2345  0.6535 -0.0911
   21DOPE  H18Y 2708   1.891  -0.854   7.721  0.9364  0.1229  0.6040
   21DOPE  H18Z 2709   1.755  -0.753   7.799  1.6413  0.4954  0.8457
   22DOPE     N 2710   6.526   4.842   9.770  1.0466  0.0757  0.0326
   22DOPE   HN1 2711   6.576   4.814   9.683  1.0707  0.9732 -0.2505
   22DOPE   HN2 2712   6.548   4.940   9.799  3.0250 -0.2943 -0.0338
   22DOPE   HN3 2713   6.568   4.777   9.840  2.6897 -1.2766 -2.0635
   22DOPE   C12 2714   6.376   4.838   9.747 -0.1016  0.0311 -0.2972
   22DOPE  H12A 2715   6.349   4.732   9.726  2.1688 -0.7089  0.2249
   22DOPE  H12B 2716   6.363   4.900   9.655  2.3982 -0.2783 -0.9161
   22DOPE   C11 2717   6.290   4.884   9.863 -0.5807  0.3027 -0.5556
   22DOPE  H11A 2718   6.195   4.912   9.812 -0.0313  1.1485 -1.1527
   22DOPE  H11B 2719   6.322   4.979   9.912 -0.2444  1.2122 -2.4358
   22DOPE     P 2720   6.387   4.778  10.080  0.3592 -0.0380  0.1064
   22DOPE   O13 2721   6.342   4.679  10.180  0.1989 -0.0494 -0.1234
   22DOPE   O14 2722   6.406   4.923  10.121  0.5165 -0.7485 -0.6447
   22DOPE   O11 2723   6.518   4.731  10.007  0.0528  0.2518  0.1156
   22DOPE   O12 2724   6.278   4.780   9.964  0.5524 -0.1877 -0.0008
   22DOPE    C1 2725   6.624   4.658  10.066  0.1558  0.2843  0.1448
   22DOPE    HA 2726   6.597   4.611  10.163 -0.8869 -0.7166 -0.6017
   22DOPE    HB 2727   6.708   4.728  10.082 -0.7403  1.4320 -0.0396
   22DOPE    C2 2728   6.670   4.535   9.976  0.1435 -0.5092  0.1445
   22DOPE    HS 2729   6.761   4.486  10.015  0.8212 -0.0479 -0.8107
   22DOPE   O21 2730   6.700   4.597   9.850 -0.3498 -0.2420  0.1005
   22DOPE   C21 2731   6.803   4.548   9.778  0.3745  0.3155  0.2715
   22DOPE   O22 2732   6.864   4.439   9.798  0.4893 -0.9044 -0.2486
   22DOPE   C22 2733   6.817   4.624   9.647 -0.7634  0.0022 -0.5028
   22DOPE   H2R 2734   6.782   4.729   9.654 -1.8024 -0.1112 -2.9881
   22DOPE   H2S 2735   6.752   4.568   9.577 -1.3119  1.4185 -1.1623
   22DOPE    C3 2736   6.556   4.435   9.955  0.0770  0.5302  0.2751
   22DOPE    HX 2737   6.473   4.480   9.897 -0.8480 -1.4728 -0.0279
   22DOPE    HY 2738   6.524   4.401  10.056  0.4647  1.5757  0.7630
   22DOPE   O31 2739   6.603   4.326   9.882  0.5560  0.7023  0.3881
   22DOPE   C31 2740   6.519   4.220   9.881  0.8134  0.1606 -0.3899
   22DOPE   O32 2741   6.409   4.213   9.940  0.4841  0.1867  0.8110
   22DOPE   C32 2742   6.587   4.102   9.813  0.3061  0.0396  0.2538
   22DOPE   H2X 2743   6.656   4.049   9.882  0.3778 -0.0750  0.0951
   22DOPE   H2Y 2744   6.502   4.034   9.792 -0.3679  0.6556  0.9066
   22DOPE   C23 2745   6.966   4.617   9.594  0.4347 -0.1354  0.0787
   22DOPE   H3R 2746   6.981   4.509   9.575  0.3254  0.2513 -2.4474
   22DOPE   H3S 2747   7.045   4.662   9.658  1.8677  0.0661 -1.7846
   22DOPE   C24 2748   6.972   4.684   9.460  0.2523 -0.3065 -0.1556
   22DOPE   H4R 2749   6.874   4.674   9.409  0.6464  2.2489 -1.5708
   22DOPE   H4S 2750   7.051   4.630   9.402  0.3775 -2.1039  1.5831
   22DOPE   C25 2751   7.026   4.825   9.468  0.0834  0.0595 -0.4630
   22DOPE   H5R 2752   7.129   4.823   9.507 -0.4869 -0.5132  1.0795
   22DOPE   H5S 2753   6.959   4.891   9.528  0.3254 -0.4861  0.4150
   22DOPE   C26 2754   7.028   4.895   9.333  0.4392 -0.1710  0.2166
   22DOPE   H6R 2755   7.110   4.849   9.274  1.4057  0.7005  0.8421
   22DOPE   H6S 2756   7.044   5.004   9.350 -1.0139  0.0953 -0.0023
   22DOPE   C27 2757   6.901   4.887   9.243 -1.0117  0.1731 -0.0697
   22DOPE   H7R 2758   6.816   4.894   9.314 -0.0583  1.8615  0.9925
   22DOPE   H7S 2759   6.910   4.788   9.194 -1.5127  1.3886 -2.7678
   22DOPE   C28 2760   6.881   5.001   9.139  0.0122 -0.7097  0.4688
   22DOPE   H8R 2761   6.891   5.099   9.188  1.2849 -0.0945 -0.9557
   22DOPE   H8S 2762   6.782   4.990   9.089  1.2477 -2.5345 -1.7772
   22DOPE   C29 2763   6.977   5.003   9.027 -0.7120 -0.4018  0.1326
   22DOPE   H9R 2764   7.081   5.010   9.063 -1.0793 -1.3993  1.4811
   22DOPE  C210 2765   6.971   4.994   8.892 -0.4884  0.1778  0.2475
   22DOPE  H10R 2766   7.062   4.995   8.830  2.0673  0.2158  3.7079
   22DOPE  C211 2767   6.846   4.984   8.810  0.1801  0.2303 -0.1883
   22DOPE  H11R 2768   6.763   5.014   8.878 -0.1795  0.6153 -0.7879
   22DOPE  H11S 2769   6.838   4.879   8.775 -1.4232  0.2184  0.1517
   22DOPE  C212 2770   6.852   5.094   8.706 -0.1629 -0.1644  0.2107
   22DOPE  H12R 2771   6.956   5.109   8.669  0.0925 -0.2558  0.8696
   22DOPE  H12S 2772   6.804   5.184   8.748 -1.7171 -1.0514  0.4063
   22DOPE  C213 2773   6.776   5.051   8.573  0.0886  0.3678  0.2124
   22DOPE  H13R 2774   6.670   5.033   8.600 -0.2659  1.0002 -0.7113
   22DOPE  H13S 2775   6.818   4.956   8.534 -0.4578  1.0386 -2.1366
   22DOPE  C214 2776   6.792   5.163   8.461 -0.4604  0.3298  0.0479
   22DOPE  H14R 2777   6.900   5.187   8.450 -0.6203  0.7131 -0.8088
   22DOPE  H14S 2778   6.744   5.257   8.494  1.7151  0.9364  1.7147
   22DOPE  C215 2779   6.728   5.123   8.330  0.2181 -0.6050 -0.0758
   22DOPE  H15R 2780   6.766   5.027   8.288 -0.7934 -0.6030 -1.0805
   22DOPE  H15S 2781   6.738   5.195   8.246 -3.3156  0.6508  0.3929
   22DOPE  C216 2782   6.573   5.104   8.335  0.5371 -0.5193  0.1120
   22DOPE  H16R 2783   6.527   5.198   8.371  0.6815  0.6145 -2.4615
   22DOPE  H16S 2784   6.537   5.036   8.415  0.2754  0.4721  0.8516
   22DOPE  C217 2785   6.517   5.066   8.197 -0.3726 -0.9486  0.3997
   22DOPE  H17R 2786   6.475   4.964   8.207  1.4202 -1.9181 -1.2277
   22DOPE  H17S 2787   6.594   5.038   8.122 -0.0571  1.3520 -0.2341
   22DOPE  C218 2788   6.415   5.165   8.137 -0.0079 -0.1205 -0.4853
   22DOPE  H18R 2789   6.463   5.264   8.122 -1.7305  0.8134 -0.1158
   22DOPE  H18S 2790   6.328   5.175   8.204  1.5259  0.1190  1.5617
   22DOPE  H18T 2791   6.394   5.123   8.036  0.1185 -1.4428  0.0271
   22DOPE   C33 2792   6.672   4.141   9.687 -0.3701  0.1024 -0.1526
   22DOPE   H3X 2793   6.749   4.063   9.669 -1.9885 -0.9596 -3.1895
   22DOPE   H3Y 2794   6.732   4.232   9.710  1.4457 -1.3093  0.8663
   22DOPE   C34 2795   6.582   4.169   9.571 -0.5196  0.6378  0.2126
   22DOPE   H4X 2796   6.514   4.084   9.553 -2.1756  2.4075 -2.7734
   22DOPE   H4Y 2797   6.528   4.266   9.575 -0.2932  0.9510 -2.4350
   22DOPE   C35 2798   6.658   4.153   9.438 -0.5334  0.1688  0.6078
   22DOPE   H5X 2799   6.719   4.061   9.431 -0.1063  0.5385 -0.9901
   22DOPE   H5Y 2800   6.729   4.239   9.435  2.3120 -2.0649 -0.7378
   22DOPE   C36 2801   6.564   4.148   9.317 -0.3050  0.0090  0.4846
   22DOPE   H6X 2802   6.492   4.232   9.320 -0.5255 -0.1603  0.1231
   22DOPE   H6Y 2803   6.518   4.048   9.330  2.2088 -1.1905  0.7307
   22DOPE   C37 2804   6.637   4.144   9.188  0.0230  0.1399 -0.2874
   22DOPE   H7X 2805   6.685   4.242   9.167  0.3678 -0.5624 -3.1525
   22DOPE   H7Y 2806   6.705   4.057   9.193  1.1904  0.9709 -1.1182
   22DOPE   C38 2807   6.539   4.131   9.067  0.1376 -0.1280 -0.7430
   22DOPE   H8X 2808   6.606   4.164   8.985  0.8700  0.6619  0.1566
   22DOPE   H8Y 2809   6.457   4.205   9.074  1.1014  0.9809 -0.9688
   22DOPE   C39 2810   6.483   3.993   9.039  0.1531  0.2906  0.1123
   22DOPE   H9X 2811   6.474   3.923   9.123  0.5265 -2.4424 -1.9885
   22DOPE  C310 2812   6.437   3.943   8.919 -1.1449  0.1431  0.4261
   22DOPE  H10X 2813   6.397   3.841   8.913  0.5952 -0.5796  0.7271
   22DOPE  C311 2814   6.432   4.026   8.793 -0.3697 -0.0746 -0.5327
   22DOPE  H11X 2815   6.331   4.066   8.772 -1.1909 -2.6829 -2.0165
   22DOPE  H11Y 2816   6.505   4.110   8.796  0.6361 -0.9303  1.6593
   22DOPE  C312 2817   6.469   3.930   8.678 -0.1280  0.5847  0.1266
   22DOPE  H12X 2818   6.386   3.857   8.675  0.5483 -0.1682 -1.9664
   22DOPE  H12Y 2819   6.567   3.878   8.683 -0.0636  0.8206  1.7021
   22DOPE  C313 2820   6.469   4.012   8.548  0.2961 -0.6770 -0.3858
   22DOPE  H13X 2821   6.373   4.067   8.557  0.7914  0.0382  0.7610
   22DOPE  H13Y 2822   6.553   4.084   8.556  0.3701 -0.6839 -1.0705
   22DOPE  C314 2823   6.473   3.935   8.415  0.3435  0.1532 -0.1434
   22DOPE  H14X 2824   6.414   3.841   8.408 -0.9489  1.0540 -2.5943
   22DOPE  H14Y 2825   6.578   3.909   8.387 -0.3504  0.2259 -3.1694
   22DOPE  C315 2826   6.429   4.022   8.294  0.4455  0.8569 -0.3733
   22DOPE  H15X 2827   6.319   4.040   8.298  0.3768  0.6144 -1.1728
   22DOPE  H15Y 2828   6.430   3.955   8.206  1.1130 -0.7508  0.8108
   22DOPE  C316 2829   6.511   4.147   8.273 -0.3894  0.2405 -0.8120
   22DOPE  H16X 2830   6.611   4.109   8.246  0.6521 -0.5204  3.3189
   22DOPE  H16Y 2831   6.517   4.216   8.360  0.6969  0.7234 -1.2592
   22DOPE  C317 2832   6.465   4.221   8.148 -0.3442  0.1669 -0.4490
   22DOPE  H17X 2833   6.357   4.197   8.140 -0.7208  1.8732 -0.8698
   22DOPE  H17Y 2834   6.454   4.329   8.169 -1.8116  0.2589 -1.5359
   22DOPE  C318 2835   6.537   4.175   8.017  0.3396  0.2164 -0.4414
   22DOPE  H18X 2836   6.493   4.218   7.924 -0.4451 -1.0044 -0.6593
   22DOPE  H18Y 2837   6.643   4.205   8.026  0.2075  0.6412 -0.2523
   22DOPE  H18Z 2838   6.517   4.066   8.021 -1.6636  0.5799  1.6835
   23DOPE     N 2839   3.380   0.290   9.937 -0.0744 -0.5049 -1.1228
   23DOPE   HN1 2840   3.473   0.308   9.979 -0.3608 -1.4535 -0.0545
   23DOPE   HN2 2841   3.311   0.341   9.996  1.0126 -1.1728  0.8013
   23DOPE   HN3 2842   3.355   0.190   9.926  0.7394 -1.1566  2.1035
   23DOPE   C12 2843   3.382   0.360   9.801 -0.5273 -0.3752 -0.3613
   23DOPE  H12A 2844   3.283   0.354   9.752 -0.1323 -0.4419 -1.1777
   23DOPE  H12B 2845   3.450   0.301   9.735 -0.4424  0.6291 -1.1873
   23DOPE   C11 2846   3.443   0.496   9.811  0.0280 -0.4037 -0.0920
   23DOPE  H11A 2847   3.389   0.558   9.885 -0.1690  1.1750 -1.4865
   23DOPE  H11B 2848   3.445   0.546   9.711 -2.1048  1.1685  0.5749
   23DOPE     P 2849   3.683   0.601   9.862 -0.2732  0.0561 -0.4310
   23DOPE   O13 2850   3.749   0.617   9.992  0.0809 -0.0151 -0.3094
   23DOPE   O14 2851   3.614   0.725   9.818 -0.1504 -0.5320  0.6852
   23DOPE   O11 2852   3.786   0.556   9.754  0.6052 -1.0063 -0.4490
   23DOPE   O12 2853   3.575   0.477   9.869 -0.4940 -0.6552  0.1740
   23DOPE    C1 2854   3.759   0.464   9.647 -0.0159 -0.7442 -0.6540
   23DOPE    HA 2855   3.674   0.394   9.658 -0.5760 -0.0737 -0.6075
   23DOPE    HB 2856   3.853   0.406   9.644  0.4549 -0.0889  0.5888
   23DOPE    C2 2857   3.728   0.539   9.518  0.2583  0.4516  0.3512
   23DOPE    HS 2858   3.638   0.600   9.537 -3.2513 -2.5225 -4.4942
   23DOPE   O21 2859   3.696   0.450   9.405  0.4964  0.1323  0.0433
   23DOPE   C21 2860   3.568   0.405   9.393  0.0424 -0.3600  0.2202
   23DOPE   O22 2861   3.478   0.427   9.476 -0.0079 -0.8134 -0.2481
   23DOPE   C22 2862   3.543   0.332   9.259  0.2911  0.3923  0.8142
   23DOPE   H2R 2863   3.596   0.235   9.268  2.1037  1.0527 -1.6330
   23DOPE   H2S 2864   3.608   0.394   9.192  1.8415  0.7031  2.5291
   23DOPE    C3 2865   3.843   0.634   9.476 -0.2469  0.0675  0.6642
   23DOPE    HX 2866   3.843   0.703   9.563  1.7621  0.0579  0.7139
   23DOPE    HY 2867   3.805   0.680   9.382  1.8698 -1.1907 -0.8754
   23DOPE   O31 2868   3.967   0.560   9.443 -0.2298  0.3732  0.1333
   23DOPE   C31 2869   4.076   0.625   9.472  0.0069  0.6938 -0.8257
   23DOPE   O32 2870   4.078   0.715   9.558  0.0647 -0.6452  0.3190
   23DOPE   C32 2871   4.194   0.574   9.391 -0.1590 -0.5764  0.0951
   23DOPE   H2X 2872   4.276   0.550   9.461  0.1840  0.8598  0.2235
   23DOPE   H2Y 2873   4.165   0.490   9.325  2.2085 -0.7671 -0.8002
   23DOPE   C23 2874   3.401   0.335   9.210  0.1317 -0.2297  1.0288
   23DOPE   H3R 2875   3.367   0.439   9.226  1.0505  0.2056  0.2650
   23DOPE   H3S 2876   3.334   0.272   9.273 -3.4102  0.4058 -1.7647
   23DOPE   C24 2877   3.392   0.287   9.061 -0.1341  0.7911  0.1932
   23DOPE   H4R 2878   3.426   0.181   9.065 -0.0523  0.8212  0.2994
   23DOPE   H4S 2879   3.461   0.343   8.993  0.1531  1.8500  1.3190
   23DOPE   C25 2880   3.258   0.284   8.991 -0.2439 -0.3291 -0.2971
   23DOPE   H5R 2881   3.179   0.251   9.063 -1.8644 -1.0833 -2.3365
   23DOPE   H5S 2882   3.254   0.208   8.910  1.9024 -1.0169  0.1779
   23DOPE   C26 2883   3.203   0.420   8.940 -0.7456  0.9398 -0.4146
   23DOPE   H6R 2884   3.286   0.460   8.877 -0.1658  0.3757 -0.0234
   23DOPE   H6S 2885   3.185   0.486   9.027 -0.5468  0.6609 -0.1597
   23DOPE   C27 2886   3.074   0.402   8.861 -0.4769 -0.6151  0.1104
   23DOPE   H7R 2887   3.029   0.498   8.828 -0.6492 -0.9851 -0.7561
   23DOPE   H7S 2888   2.995   0.348   8.918 -1.7187  0.6658 -0.3410
   23DOPE   C28 2889   3.098   0.335   8.724 -0.8577  0.5120  0.4386
   23DOPE   H8R 2890   3.134   0.231   8.740 -0.9675  0.3764 -0.1478
   23DOPE   H8S 2891   3.180   0.389   8.671 -2.0382  0.9545 -0.9933
   23DOPE   C29 2892   2.971   0.330   8.633  0.2533 -0.5435 -0.7212
   23DOPE   H9R 2893   2.884   0.273   8.668 -2.3735  3.2114 -0.4846
   23DOPE  C210 2894   2.951   0.413   8.523  0.6267 -0.0950 -0.1342
   23DOPE  H10R 2895   2.855   0.410   8.470 -0.9118 -1.2127  2.5207
   23DOPE  C211 2896   3.044   0.513   8.468  0.3766  0.4959 -0.2854
   23DOPE  H11R 2897   3.105   0.557   8.551  0.3479 -0.9927  0.5536
   23DOPE  H11S 2898   2.982   0.594   8.426  1.6487  1.2889 -0.7100
   23DOPE  C212 2899   3.126   0.476   8.346  0.0144  0.1297 -0.5505
   23DOPE  H12R 2900   3.209   0.411   8.381  1.0666  1.4801 -0.4252
   23DOPE  H12S 2901   3.171   0.566   8.299 -4.0276  0.9923 -3.2264
   23DOPE  C213 2902   3.049   0.405   8.232 -0.2040  0.2173  0.2357
   23DOPE  H13R 2903   2.949   0.449   8.210  0.4357 -0.0745 -4.1995
   23DOPE  H13S 2904   3.048   0.297   8.257 -0.9821  0.0669 -0.4118
   23DOPE  C214 2905   3.125   0.409   8.095 -0.2725 -0.2292  0.0321
   23DOPE  H14R 2906   3.220   0.351   8.091  0.4975  0.9161  0.8776
   23DOPE  H14S 2907   3.149   0.512   8.062 -2.2114  0.0786 -0.5340
   23DOPE  C215 2908   3.044   0.347   7.973 -0.2019 -0.1342  0.8991
   23DOPE  H15R 2909   2.949   0.402   7.958  1.0185  1.0276 -4.3546
   23DOPE  H15S 2910   3.027   0.241   7.998 -4.2614  0.4688  1.3277
   23DOPE  C216 2911   3.129   0.352   7.841 -0.6768  0.0013 -0.0717
   23DOPE  H16R 2912   3.232   0.314   7.858 -1.0667 -1.1801 -0.3011
   23DOPE  H16S 2913   3.141   0.460   7.818  0.8040  0.0071  0.6403
   23DOPE  C217 2914   3.073   0.285   7.722 -0.3993 -0.1946 -1.2929
   23DOPE  H17R 2915   3.068   0.177   7.744  1.5239 -0.4413 -1.8616
   23DOPE  H17S 2916   3.141   0.297   7.635  0.0159 -0.7191 -1.0472
   23DOPE  C218 2917   2.939   0.330   7.670 -0.0577 -0.3065  0.1246
   23DOPE  H18R 2918   2.862   0.310   7.747  1.8146  0.5455  2.3573
   23DOPE  H18S 2919   2.927   0.272   7.576 -2.3527 -1.0525  0.8161
   23DOPE  H18T 2920   2.939   0.438   7.644 -2.8598 -0.3340 -0.2779
   23DOPE   C33 2921   4.247   0.689   9.298  0.6138 -0.4533  0.1531
   23DOPE   H3X 2922   4.330   0.640   9.243  0.1764 -1.8196  0.6432
   23DOPE   H3Y 2923   4.296   0.760   9.368 -1.9747  1.8573 -0.2097
   23DOPE   C34 2924   4.145   0.748   9.204  0.4785  0.2267 -0.5252
   23DOPE   H4X 2925   4.105   0.669   9.137  1.4876 -0.5115 -0.2812
   23DOPE   H4Y 2926   4.056   0.792   9.254  0.9634  3.4301 -2.2298
   23DOPE   C35 2927   4.214   0.848   9.101  1.0553  0.0189  0.0474
   23DOPE   H5X 2928   4.315   0.807   9.080  0.1394 -1.0986 -2.6905
   23DOPE   H5Y 2929   4.228   0.948   9.148 -0.6666 -0.6074  2.0568
   23DOPE   C36 2930   4.137   0.861   8.969  0.0933 -0.7693 -0.0813
   23DOPE   H6X 2931   4.066   0.946   8.975  2.1852  1.0628  0.2594
   23DOPE   H6Y 2932   4.080   0.767   8.955  1.3405 -1.3969 -1.0907
   23DOPE   C37 2933   4.237   0.889   8.848  0.0004  0.5314 -0.1915
   23DOPE   H7X 2934   4.290   0.986   8.863  0.9234 -0.2070  1.6576
   23DOPE   H7Y 2935   4.314   0.811   8.863 -0.8646 -0.1081  1.1442
   23DOPE   C38 2936   4.178   0.882   8.700  0.0326  1.5640  0.8447
   23DOPE   H8X 2937   4.139   0.778   8.702 -2.0847  2.2193 -1.3699
   23DOPE   H8Y 2938   4.272   0.886   8.641  1.5706 -0.9535  2.9482
   23DOPE   C39 2939   4.058   0.965   8.655  0.2957  0.3012  0.3805
   23DOPE   H9X 2940   3.989   0.992   8.737  0.3398 -1.4666  1.0504
   23DOPE  C310 2941   4.047   1.020   8.531  0.3280  0.2632  0.6244
   23DOPE  H10X 2942   3.965   1.087   8.503  2.4091  2.2242 -1.1849
   23DOPE  C311 2943   4.142   0.996   8.418  0.0624  0.0218 -0.8679
   23DOPE  H11X 2944   4.223   1.073   8.419  0.9603 -0.8919  0.3400
   23DOPE  H11Y 2945   4.192   0.897   8.428  0.5278  0.4618  2.2767
   23DOPE  C312 2946   4.068   1.007   8.290  0.4664  0.0792  0.0689
   23DOPE  H12X 2947   4.010   1.101   8.287  2.8425  1.6092 -1.0851
   23DOPE  H12Y 2948   3.998   0.920   8.290  1.2422 -0.5709 -0.6072
   23DOPE  C313 2949   4.143   1.015   8.154 -0.0537  0.2021 -0.1038
   23DOPE  H13X 2950   4.173   1.118   8.126  2.0356 -0.5586 -0.8837
   23DOPE  H13Y 2951   4.236   0.953   8.153  0.1861  0.5650 -0.8077
   23DOPE  C314 2952   4.052   0.982   8.036  0.1093  0.2282  0.4364
   23DOPE  H14X 2953   3.993   1.072   8.006  0.2440  0.6992  1.5292
   23DOPE  H14Y 2954   3.978   0.905   8.065 -1.4669  1.1734 -0.8827
   23DOPE  C315 2955   4.129   0.934   7.914 -0.3500 -0.0678 -0.1997
   23DOPE  H15X 2956   4.170   0.831   7.923 -0.3070  0.0523  1.1542
   23DOPE  H15Y 2957   4.219   0.999   7.909  2.2597 -3.4148 -1.0212
   23DOPE  C316 2958   4.041   0.947   7.792  0.3402  0.0537 -0.6340
   23DOPE  H16X 2959   4.024   1.057   7.789  2.4712  0.4450 -0.5109
   23DOPE  H16Y 2960   3.949   0.889   7.814 -0.2165  0.6323 -1.3720
   23DOPE  C317 2961   4.100   0.900   7.660 -1.0038 -0.0074 -0.4733
   23DOPE  H17X 2962   4.200   0.944   7.643  0.2925 -3.1182 -1.6735
   23DOPE  H17Y 2963   4.107   0.789   7.663  0.6316 -0.0510 -2.8967
   23DOPE  C318 2964   4.015   0.927   7.537  0.5027 -0.2409 -0.4845
   23DOPE  H18X 2965   3.927   0.860   7.548  2.3312 -2.4777  1.6759
   23DOPE  H18Y 2966   3.979   1.030   7.515 -1.0029 -0.8612 -1.0380
   23DOPE  H18Z 2967   4.070   0.895   7.445  0.3888  1.7376 -1.2857
   24DOPE     N 2968   4.937   5.816  10.267  0.3934  0.2010 -0.4293
   24DOPE   HN1 2969   4.947   5.717  10.239  0.8324  0.9763 -3.2868
   24DOPE   HN2 2970   4.878   5.815  10.354  3.6867  0.2973  1.9860
   24DOPE   HN3 2971   4.893   5.857  10.182 -1.0903 -4.4339 -2.1858
   24DOPE   C12 2972   5.068   5.881  10.300  0.1985  0.0451 -0.7942
   24DOPE  H12A 2973   5.115   5.839  10.391  1.5872  0.8480 -1.1167
   24DOPE  H12B 2974   5.049   5.990  10.315 -0.4143  0.1003 -1.8883
   24DOPE   C11 2975   5.172   5.851  10.195  0.1750 -0.2767 -0.5347
   24DOPE  H11A 2976   5.199   5.743  10.195  1.9979  0.1346  0.4669
   24DOPE  H11B 2977   5.264   5.907  10.223 -0.2948 -0.4566  1.5260
   24DOPE     P 2978   5.140   6.042  10.017 -0.4273  0.0544  0.2692
   24DOPE   O13 2979   5.283   6.076  10.014 -0.2066 -0.0342 -0.0892
   24DOPE   O14 2980   5.052   6.126  10.102  0.1435  0.0248 -0.0578
   24DOPE   O11 2981   5.097   6.032   9.863  0.2049 -0.0472 -0.4959
   24DOPE   O12 2982   5.138   5.891  10.058 -0.8297 -0.0689  0.3060
   24DOPE    C1 2983   5.080   5.903   9.800 -0.6888  0.0267  0.6006
   24DOPE    HA 2984   4.999   5.841   9.845  1.3762 -3.0977  0.2685
   24DOPE    HB 2985   5.178   5.853   9.809 -0.8926 -0.4774  0.0707
   24DOPE    C2 2986   5.055   5.921   9.639 -0.0286 -0.0492 -0.4116
   24DOPE    HS 2987   5.079   5.823   9.592  0.4816 -0.7410  1.2069
   24DOPE   O21 2988   5.150   6.017   9.581 -0.3294  0.5417 -0.3501
   24DOPE   C21 2989   5.270   5.979   9.541  0.6717 -0.1782  0.1292
   24DOPE   O22 2990   5.311   5.867   9.544  0.0294 -0.1639 -0.0031
   24DOPE   C22 2991   5.347   6.095   9.480 -0.0174 -0.0206  0.3103
   24DOPE   H2R 2992   5.427   6.105   9.557  0.7072 -0.0418 -0.4351
   24DOPE   H2S 2993   5.282   6.182   9.459 -0.5334  0.1499  2.3596
   24DOPE    C3 2994   4.906   5.959   9.608  0.3269  0.1577 -0.1000
   24DOPE    HX 2995   4.884   6.056   9.658 -0.2391 -0.6584  1.2794
   24DOPE    HY 2996   4.852   5.882   9.667  0.4208 -0.3233 -0.6345
   24DOPE   O31 2997   4.876   5.965   9.467  0.6612  0.1039 -0.2827
   24DOPE   C31 2998   4.888   6.071   9.399  0.0396 -0.0563 -0.4985
   24DOPE   O32 2999   4.917   6.182   9.449  0.1432  0.3928 -0.2685
   24DOPE   C32 3000   4.866   6.045   9.253 -0.8727  0.7823 -0.7505
   24DOPE   H2X 3001   4.950   5.991   9.204 -1.3890  0.2942 -1.1197
   24DOPE   H2Y 3002   4.764   6.003   9.237 -1.0689  1.3935 -1.1569
   24DOPE   C23 3003   5.421   6.034   9.350 -0.0277 -1.0425 -0.1728
   24DOPE   H3R 3004   5.452   5.927   9.356 -0.2656 -1.1481 -0.7460
   24DOPE   H3S 3005   5.507   6.102   9.334 -0.5474  0.0044  1.2533
   24DOPE   C24 3006   5.331   6.051   9.227 -0.4673  0.2788  0.0498
   24DOPE   H4R 3007   5.308   6.159   9.227  0.6423  0.6211  3.4426
   24DOPE   H4S 3008   5.245   5.981   9.221  0.1388 -0.4651 -0.1219
   24DOPE   C25 3009   5.404   6.028   9.085  0.1621 -0.3691 -0.7166
   24DOPE   H5R 3010   5.464   5.934   9.079  0.8998  0.1597 -4.4154
   24DOPE   H5S 3011   5.481   6.107   9.073 -2.2857  1.9698 -2.0318
   24DOPE   C26 3012   5.311   6.032   8.969  0.6973  0.5073 -0.4337
   24DOPE   H6R 3013   5.270   6.134   8.953 -0.0691  0.8800  3.1335
   24DOPE   H6S 3014   5.227   5.966   9.000  1.1961  0.4480  0.8487
   24DOPE   C27 3015   5.378   5.985   8.837  0.6775 -0.0638  1.0856
   24DOPE   H7R 3016   5.412   5.880   8.845 -1.1664 -0.9108 -1.1031
   24DOPE   H7S 3017   5.474   6.039   8.826  0.8394 -0.6527 -0.7176
   24DOPE   C28 3018   5.295   6.007   8.707 -0.0541  0.1139  0.3415
   24DOPE   H8R 3019   5.367   6.003   8.623 -2.9602  0.3657 -2.3064
   24DOPE   H8S 3020   5.256   6.111   8.708 -0.3988 -0.0128  0.9313
   24DOPE   C29 3021   5.187   5.908   8.681  0.0969  0.3609 -0.0262
   24DOPE   H9R 3022   5.087   5.945   8.708 -1.2057 -2.3714 -0.7093
   24DOPE  C210 3023   5.196   5.793   8.612  0.6591 -0.3007  0.3767
   24DOPE  H10R 3024   5.103   5.736   8.601 -0.1874  0.5852  2.5352
   24DOPE  C211 3025   5.324   5.726   8.575 -0.3167 -0.2931  0.1496
   24DOPE  H11R 3026   5.381   5.677   8.656  1.1511  0.2941 -0.4875
   24DOPE  H11S 3027   5.398   5.808   8.562  0.5211 -0.8950  1.0064
   24DOPE  C212 3028   5.328   5.622   8.460  0.6432  0.2824  0.7386
   24DOPE  H12R 3029   5.265   5.534   8.486 -1.5366  0.8293 -2.1669
   24DOPE  H12S 3030   5.435   5.593   8.459  0.5817  0.0840  0.0188
   24DOPE  C213 3031   5.267   5.674   8.327  0.7090  0.4268 -0.0223
   24DOPE  H13R 3032   5.293   5.782   8.320  0.4783  0.4934  0.1253
   24DOPE  H13S 3033   5.157   5.664   8.320  0.7775  0.3885 -1.1428
   24DOPE  C214 3034   5.334   5.600   8.218 -0.3529  0.6513  0.2617
   24DOPE  H14R 3035   5.330   5.491   8.239 -1.9380  0.9424  1.7103
   24DOPE  H14S 3036   5.441   5.628   8.217  0.0239 -0.4968  2.1068
   24DOPE  C215 3037   5.272   5.627   8.080 -0.1033 -0.5333  0.1339
   24DOPE  H15R 3038   5.260   5.736   8.062  0.3078 -0.6700 -1.0962
   24DOPE  H15S 3039   5.180   5.565   8.073 -0.2216 -0.1718 -2.6809
   24DOPE  C216 3040   5.369   5.585   7.974 -0.2018  0.0297  0.0960
   24DOPE  H16R 3041   5.378   5.475   7.971  1.1362  0.1430 -2.3636
   24DOPE  H16S 3042   5.468   5.633   7.990 -0.3242 -0.0160  1.0100
   24DOPE  C217 3043   5.318   5.609   7.829 -0.3651  0.5277  0.2564
   24DOPE  H17R 3044   5.282   5.714   7.822 -3.5799 -0.4138  0.8594
   24DOPE  H17S 3045   5.229   5.543   7.817 -0.6198  0.1940  3.2280
   24DOPE  C218 3046   5.417   5.577   7.714 -0.4831  0.1202  0.5024
   24DOPE  H18R 3047   5.517   5.624   7.724  0.0455 -1.0473  0.9433
   24DOPE  H18S 3048   5.375   5.606   7.616  0.6715 -0.6525 -0.2518
   24DOPE  H18T 3049   5.430   5.466   7.717 -2.3526 -0.1283  0.5573
   24DOPE   C33 3050   4.873   6.180   9.184 -0.0037 -0.4858  0.4689
   24DOPE   H3X 3051   4.967   6.239   9.186 -1.4134  2.0372 -1.6065
   24DOPE   H3Y 3052   4.804   6.242   9.246 -0.7233  0.6242 -1.3802
   24DOPE   C34 3053   4.805   6.179   9.049 -0.5010  0.2060  0.2219
   24DOPE   H4X 3054   4.712   6.120   9.054 -3.3452  4.0660 -1.6870
   24DOPE   H4Y 3055   4.790   6.286   9.020  1.7119  0.2803 -0.9051
   24DOPE   C35 3056   4.896   6.119   8.940 -0.2465 -0.4026 -0.2211
   24DOPE   H5X 3057   4.908   6.011   8.960  2.3132  0.0893  1.2497
   24DOPE   H5Y 3058   4.993   6.168   8.959 -0.8227  0.3601  0.8543
   24DOPE   C36 3059   4.844   6.145   8.802 -0.3067  0.2380 -0.3434
   24DOPE   H6X 3060   4.920   6.109   8.729 -0.7734 -0.4124 -0.5166
   24DOPE   H6Y 3061   4.831   6.255   8.794  0.5136  0.3910  0.3360
   24DOPE   C37 3062   4.715   6.077   8.765  0.1842 -0.5367 -0.2256
   24DOPE   H7X 3063   4.710   5.967   8.779  0.5637 -0.4632  0.5104
   24DOPE   H7Y 3064   4.638   6.120   8.832 -0.4578 -0.6473 -0.8658
   24DOPE   C38 3065   4.683   6.089   8.621  0.3914  0.0291 -0.5766
   24DOPE   H8X 3066   4.596   6.026   8.595 -0.2828  0.9847 -0.6987
   24DOPE   H8Y 3067   4.774   6.053   8.568  0.9411 -3.7456  2.5069
   24DOPE   C39 3068   4.633   6.226   8.580  0.0293  0.3513  0.2070
   24DOPE   H9X 3069   4.538   6.256   8.628 -0.7726 -0.0619 -1.0848
   24DOPE  C310 3070   4.697   6.327   8.523  0.5562  0.3901 -0.1810
   24DOPE  H10X 3071   4.649   6.424   8.506  2.1410  0.9997 -1.4519
   24DOPE  C311 3072   4.827   6.311   8.450  0.4421  0.8118 -0.1738
   24DOPE  H11X 3073   4.897   6.390   8.484 -0.5467  0.6606  2.4863
   24DOPE  H11Y 3074   4.876   6.217   8.485 -0.4068  0.1444 -0.7357
   24DOPE  C312 3075   4.813   6.294   8.303  0.0119  0.1408  0.0526
   24DOPE  H12X 3076   4.770   6.196   8.274  2.5417 -0.4853 -2.0249
   24DOPE  H12Y 3077   4.916   6.288   8.261 -0.4135  0.6828 -1.0995
   24DOPE  C313 3078   4.741   6.405   8.222 -0.1274  0.1263 -0.2637
   24DOPE  H13X 3079   4.637   6.365   8.217 -1.7863  3.8682  0.5877
   24DOPE  H13Y 3080   4.747   6.507   8.266  1.5727  0.8778 -2.0973
   24DOPE  C314 3081   4.807   6.426   8.082  0.2350 -0.6876 -0.4517
   24DOPE  H14X 3082   4.913   6.455   8.097  0.0107 -0.3356  0.5007
   24DOPE  H14Y 3083   4.754   6.509   8.032 -0.3460 -0.1751  0.9622
   24DOPE  C315 3084   4.801   6.303   7.994 -1.2156  0.0121  0.5026
   24DOPE  H15X 3085   4.707   6.244   8.002 -0.1510 -2.0894 -1.3267
   24DOPE  H15Y 3086   4.888   6.237   8.017  0.1913  1.4262 -0.5138
   24DOPE  C316 3087   4.825   6.346   7.846 -0.0285  0.2275  0.2447
   24DOPE  H16X 3088   4.917   6.407   7.833 -0.2786  0.6485  0.4187
   24DOPE  H16Y 3089   4.736   6.403   7.810 -0.8673 -2.3793 -2.1131
   24DOPE  C317 3090   4.819   6.231   7.752  0.5330  0.3186 -0.5425
   24DOPE  H17X 3091   4.901   6.162   7.779  2.1454  2.3223 -0.0312
   24DOPE  H17Y 3092   4.721   6.180   7.762  0.6946 -0.6954 -3.1841
   24DOPE  C318 3093   4.831   6.267   7.604  0.1001 -0.3145 -0.2173
   24DOPE  H18X 3094   4.932   6.303   7.577 -0.5882  2.2735  0.3607
   24DOPE  H18Y 3095   4.804   6.186   7.532  2.2181  1.0616 -2.7586
   24DOPE  H18Z 3096   4.763   6.348   7.571 -0.6520 -1.2785 -1.1354
   25DOPE     N 3097   6.304   5.154  10.183  0.7718  0.2621 -0.2992
   25DOPE   HN1 3098   6.213   5.162  10.133  0.6973 -0.8817 -0.3735
   25DOPE   HN2 3099   6.347   5.066  10.149 -1.3985  0.1117 -2.9783
   25DOPE   HN3 3100   6.274   5.147  10.283  1.9895  0.6489  0.1166
   25DOPE   C12 3101   6.374   5.287  10.161 -0.7361  0.8268  0.1722
   25DOPE  H12A 3102   6.475   5.270  10.205 -1.2361  0.0185  1.0431
   25DOPE  H12B 3103   6.316   5.364  10.216  1.7698  2.3963  0.7863
   25DOPE   C11 3104   6.384   5.321  10.013  0.6831  0.2821  0.0821
   25DOPE  H11A 3105   6.451   5.408   9.999 -1.7283  2.2074 -0.0114
   25DOPE  H11B 3106   6.282   5.357   9.986 -0.4800 -2.2952  0.7118
   25DOPE     P 3107   6.555   5.210   9.848  0.4829 -0.4143  0.2580
   25DOPE   O13 3108   6.616   5.080   9.842  0.1513  0.0913 -1.0941
   25DOPE   O14 3109   6.638   5.325   9.893  0.5545  0.6148 -0.3981
   25DOPE   O11 3110   6.521   5.247   9.697 -0.6277 -0.0204 -0.3224
   25DOPE   O12 3111   6.419   5.212   9.923  0.2317  0.1924  0.6664
   25DOPE    C1 3112   6.398   5.317   9.672  0.2021 -0.2712 -0.0265
   25DOPE    HA 3113   6.385   5.402   9.741  3.8157 -0.7242  1.4598
   25DOPE    HB 3114   6.321   5.237   9.671  1.5013 -1.5661  0.2425
   25DOPE    C2 3115   6.395   5.384   9.529 -0.3589  0.2763 -0.4143
   25DOPE    HS 3116   6.293   5.421   9.510 -0.8102 -0.6406  0.1520
   25DOPE   O21 3117   6.441   5.295   9.427  0.0231 -0.4864 -0.0345
   25DOPE   C21 3118   6.349   5.206   9.389  0.2346 -0.0484  0.5387
   25DOPE   O22 3119   6.233   5.192   9.425  0.4679 -0.2953 -0.0593
   25DOPE   C22 3120   6.425   5.100   9.299  0.5018 -0.3753  0.4913
   25DOPE   H2R 3121   6.454   5.010   9.359  0.5202 -2.5283 -2.5140
   25DOPE   H2S 3122   6.511   5.145   9.246 -1.3232  2.3538 -0.3687
   25DOPE    C3 3123   6.500   5.497   9.549  0.1193 -0.4931  0.4960
   25DOPE    HX 3124   6.581   5.451   9.609  0.2104  0.6191  1.2538
   25DOPE    HY 3125   6.461   5.584   9.607 -0.4873 -0.8310  0.6143
   25DOPE   O31 3126   6.547   5.551   9.426  0.3864 -0.2892 -0.3321
   25DOPE   C31 3127   6.634   5.487   9.358  0.2860 -0.1573 -0.2004
   25DOPE   O32 3128   6.710   5.404   9.398  0.1161  0.2125  0.5089
   25DOPE   C32 3129   6.615   5.509   9.205 -0.1238 -0.4761  0.2533
   25DOPE   H2X 3130   6.527   5.446   9.178  0.5862 -0.9886 -0.9371
   25DOPE   H2Y 3131   6.572   5.611   9.194 -1.4053 -0.9589  0.5981
   25DOPE   C23 3132   6.331   5.040   9.189 -0.4784 -0.0575  0.1846
   25DOPE   H3R 3133   6.299   5.124   9.124  0.8596  2.0061  2.0295
   25DOPE   H3S 3134   6.242   4.996   9.239 -1.1665  0.1587 -0.8281
   25DOPE   C24 3135   6.405   4.938   9.107  0.0030  0.2525  0.3547
   25DOPE   H4R 3136   6.440   4.854   9.170 -0.4786 -1.5608 -1.6618
   25DOPE   H4S 3137   6.493   4.989   9.062 -0.1088 -0.7160 -1.0235
   25DOPE   C25 3138   6.323   4.869   8.998  0.1743 -0.7585  0.2183
   25DOPE   H5R 3139   6.228   4.829   9.040 -0.8640  1.1248 -0.2314
   25DOPE   H5S 3140   6.383   4.786   8.958  0.1322 -1.0026  0.6536
   25DOPE   C26 3141   6.276   4.953   8.878 -0.0002  0.8759 -0.1055
   25DOPE   H6R 3142   6.345   5.040   8.868 -1.0915  1.9249  1.1311
   25DOPE   H6S 3143   6.171   4.987   8.894 -0.5524 -0.3359 -1.0077
   25DOPE   C27 3144   6.288   4.884   8.740 -1.0819  0.1074  0.1899
   25DOPE   H7R 3145   6.222   4.795   8.734  0.1071 -0.7377 -0.9222
   25DOPE   H7S 3146   6.392   4.845   8.743 -1.0121  0.3270  1.0650
   25DOPE   C28 3147   6.272   4.979   8.618  0.9373  0.7956  0.4501
   25DOPE   H8R 3148   6.289   4.906   8.535 -0.3467 -0.6973  1.4440
   25DOPE   H8S 3149   6.355   5.053   8.613  0.9552  0.7076 -1.6155
   25DOPE   C29 3150   6.136   5.045   8.595 -0.3397  0.1758  0.4083
   25DOPE   H9R 3151   6.108   5.115   8.675 -2.9810  0.7224 -0.9110
   25DOPE  C210 3152   6.052   5.031   8.495  0.5142  0.0458  0.2014
   25DOPE  H10R 3153   5.972   5.106   8.486  1.7286  1.2021 -2.0159
   25DOPE  C211 3154   6.068   4.944   8.366  0.5571 -0.1083 -0.0526
   25DOPE  H11R 3155   6.042   4.836   8.374  0.1986 -0.2562 -2.3457
   25DOPE  H11S 3156   6.168   4.954   8.319  0.1167  3.1356 -0.5248
   25DOPE  C212 3157   5.973   5.002   8.256 -0.0865  0.8886 -0.3927
   25DOPE  H12R 3158   5.957   5.112   8.258  0.0483  1.1016 -4.2983
   25DOPE  H12S 3159   5.871   4.965   8.281  0.6959 -0.5362  0.8357
   25DOPE  C213 3160   6.021   4.982   8.111 -0.2884 -0.7460 -0.7724
   25DOPE  H13R 3161   5.995   4.881   8.072 -5.6679 -1.2754  3.0417
   25DOPE  H13S 3162   6.131   4.997   8.104 -0.4230 -0.1919 -1.9730
   25DOPE  C214 3163   5.972   5.094   8.017 -0.1954  0.2534 -0.7598
   25DOPE  H14R 3164   5.973   5.183   8.083  0.3129 -0.1215 -0.2538
   25DOPE  H14S 3165   5.864   5.077   7.999  0.5099 -2.5247 -3.1072
   25DOPE  C215 3166   6.067   5.130   7.896  0.7251 -0.0132  0.0838
   25DOPE  H15R 3167   6.172   5.122   7.932  0.8135 -1.5231 -0.4555
   25DOPE  H15S 3168   6.050   5.235   7.863 -2.9872 -0.3103  0.6555
   25DOPE  C216 3169   6.058   5.044   7.773  0.2902  0.4100 -0.1608
   25DOPE  H16R 3170   6.068   4.937   7.804  2.0526  0.4092 -0.6079
   25DOPE  H16S 3171   6.144   5.059   7.704  1.5380  2.2358  1.6647
   25DOPE  C217 3172   5.928   5.069   7.700  0.3806 -0.4011  0.3455
   25DOPE  H17R 3173   5.932   5.174   7.663 -0.7818 -0.5058 -0.1409
   25DOPE  H17S 3174   5.843   5.050   7.770 -0.3686  0.3150 -0.3535
   25DOPE  C218 3175   5.908   4.982   7.574  0.1877 -0.2659 -0.0398
   25DOPE  H18R 3176   5.998   4.959   7.514  1.4414 -1.0695  2.0414
   25DOPE  H18S 3177   5.835   5.025   7.502  0.9364 -0.9206 -1.2062
   25DOPE  H18T 3178   5.866   4.884   7.605 -1.2469 -0.1374 -1.4934
   25DOPE   C33 3179   6.733   5.467   9.119 -0.4901 -0.2536 -0.0958
   25DOPE   H3X 3180   6.759   5.363   9.147 -4.3932 -1.0146  1.2108
   25DOPE   H3Y 3181   6.819   5.531   9.150 -0.8929 -0.5800  1.7783
   25DOPE   C34 3182   6.690   5.479   8.975 -0.0899 -0.0980 -0.0474
   25DOPE   H4X 3183   6.603   5.415   8.949 -0.3969  0.0236  0.6417
   25DOPE   H4Y 3184   6.655   5.581   8.948  1.1951 -0.2576 -2.5779
   25DOPE   C35 3185   6.807   5.456   8.881 -1.3060 -0.2497  0.1486
   25DOPE   H5X 3186   6.835   5.349   8.882 -0.7268 -0.1044 -0.1922
   25DOPE   H5Y 3187   6.897   5.507   8.921 -1.1658  0.1833 -0.6853
   25DOPE   C36 3188   6.791   5.516   8.740  0.2410 -0.1805 -0.1223
   25DOPE   H6X 3189   6.764   5.624   8.740 -1.9061 -0.5845  2.8872
   25DOPE   H6Y 3190   6.705   5.465   8.692  1.4903 -1.2840 -1.2757
   25DOPE   C37 3191   6.900   5.489   8.633  0.7087 -0.1575 -0.1021
   25DOPE   H7X 3192   6.993   5.520   8.686  2.1127 -0.9681 -1.9850
   25DOPE   H7Y 3193   6.892   5.380   8.613 -2.1147  0.0077 -0.2487
   25DOPE   C38 3194   6.892   5.567   8.503  0.2612 -0.6924 -0.1194
   25DOPE   H8X 3195   6.917   5.673   8.526  0.0233 -0.8203  0.7770
   25DOPE   H8Y 3196   6.790   5.573   8.458 -0.2649  0.3817  1.1380
   25DOPE   C39 3197   6.976   5.491   8.401 -0.3507 -0.8916 -0.4372
   25DOPE   H9X 3198   7.061   5.440   8.448  2.0005  3.1983  0.1488
   25DOPE  C310 3199   6.959   5.493   8.270  0.3246  0.5576  0.9217
   25DOPE  H10X 3200   7.037   5.453   8.203 -0.5337  0.7571 -0.2154
   25DOPE  C311 3201   6.862   5.571   8.185 -0.1852  0.4510 -0.8501
   25DOPE  H11X 3202   6.762   5.567   8.233  0.1600 -0.0094 -0.1436
   25DOPE  H11Y 3203   6.893   5.677   8.197 -1.9169  0.8547  0.3833
   25DOPE  C312 3204   6.864   5.546   8.032  0.1455  0.4219 -0.2944
   25DOPE  H12X 3205   6.969   5.575   8.008  1.0284 -1.2449  1.2528
   25DOPE  H12Y 3206   6.795   5.623   7.992  1.2143  0.7195 -1.6467
   25DOPE  C313 3207   6.849   5.396   7.979  0.3783 -0.4585  0.3187
   25DOPE  H13X 3208   6.943   5.337   7.977  0.1760 -0.7958  0.5840
   25DOPE  H13Y 3209   6.770   5.349   8.042  0.0394  0.8742  0.9289
   25DOPE  C314 3210   6.801   5.385   7.831 -1.1022  0.1017 -0.2741
   25DOPE  H14X 3211   6.879   5.411   7.757 -2.9614 -1.2778 -2.8993
   25DOPE  H14Y 3212   6.721   5.461   7.818 -1.3905  0.1401  1.4778
   25DOPE  C315 3213   6.738   5.252   7.793  0.1244 -0.3550 -0.6799
   25DOPE  H15X 3214   6.673   5.229   7.879 -0.3986 -0.4166 -1.0876
   25DOPE  H15Y 3215   6.809   5.166   7.797 -2.2129 -2.3892 -0.5274
   25DOPE  C316 3216   6.649   5.256   7.670  0.0028 -0.3626  0.2394
   25DOPE  H16X 3217   6.584   5.346   7.675  0.6375  0.1040  0.2261
   25DOPE  H16Y 3218   6.589   5.163   7.658  1.2278 -0.8713 -2.8777
   25DOPE  C317 3219   6.715   5.259   7.533 -0.7042 -0.5274 -0.0979
   25DOPE  H17X 3220   6.640   5.298   7.461 -2.2815 -0.2724  1.6257
   25DOPE  H17Y 3221   6.796   5.334   7.522  0.7556 -1.9989  0.2401
   25DOPE  C318 3222   6.779   5.125   7.496  0.7193  0.3670 -0.3087
   25DOPE  H18X 3223   6.703   5.051   7.463  0.3731  0.3182  0.5913
   25DOPE  H18Y 3224   6.839   5.145   7.404 -0.8107  0.9866 -1.2097
   25DOPE  H18Z 3225   6.844   5.086   7.577  0.3992 -1.8496 -1.0451
   26DOPE     N 3226   0.189   5.190  10.068  0.1469 -0.4000  0.1595
   26DOPE   HN1 3227   0.181   5.267  10.138  0.5939 -0.5044  0.3278
   26DOPE   HN2 3228   0.162   5.098  10.109 -1.7267  0.2138  0.4293
   26DOPE   HN3 3229   0.290   5.181  10.048  0.1965  0.8744 -0.2498
   26DOPE   C12 3230   0.105   5.240   9.950 -0.4010 -0.3172  0.5535
   26DOPE  H12A 3231   0.002   5.239   9.991 -1.0332 -0.9933 -0.9794
   26DOPE  H12B 3232   0.103   5.171   9.863 -2.0640 -0.3909  0.6184
   26DOPE   C11 3233   0.148   5.377   9.892 -0.1621 -0.2954  0.1378
   26DOPE  H11A 3234   0.083   5.409   9.807 -0.3914 -3.5917 -1.0441
   26DOPE  H11B 3235   0.251   5.371   9.850 -0.2578  1.6407 -0.5208
   26DOPE     P 3236   0.219   5.537  10.099 -0.2006  0.1808  0.4125
   26DOPE   O13 3237   0.256   5.417  10.172 -0.3275 -0.1198 -0.0998
   26DOPE   O14 3238   0.153   5.643  10.180 -0.2308  0.2778 -0.1273
   26DOPE   O11 3239   0.349   5.582  10.016  0.0785  0.0875 -0.8180
   26DOPE   O12 3240   0.126   5.487   9.986 -0.4013  0.2849  0.2008
   26DOPE    C1 3241   0.353   5.707   9.955 -0.2246  0.2698 -0.2424
   26DOPE    HA 3242   0.455   5.751   9.958 -0.5195  1.1953 -2.0783
   26DOPE    HB 3243   0.297   5.784  10.011  0.2106 -0.9011  1.8949
   26DOPE    C2 3244   0.324   5.713   9.803  1.3080  0.5406  0.4063
   26DOPE    HS 3245   0.221   5.674   9.787  0.4206  2.3229  1.3658
   26DOPE   O21 3246   0.421   5.634   9.732 -0.1081  0.3297 -0.1040
   26DOPE   C21 3247   0.387   5.546   9.645 -0.0571  0.6061  0.1289
   26DOPE   O22 3248   0.273   5.520   9.602  0.1747  0.3949 -0.8112
   26DOPE   C22 3249   0.521   5.480   9.605 -0.1763 -1.1200 -0.1883
   26DOPE   H2R 3250   0.552   5.426   9.697 -0.9120  0.7716  1.2281
   26DOPE   H2S 3251   0.589   5.563   9.577 -3.0283  1.1940 -0.7342
   26DOPE    C3 3252   0.324   5.858   9.743 -0.3443 -0.3021  0.2824
   26DOPE    HX 3253   0.416   5.918   9.765  0.4624 -0.9993 -1.0972
   26DOPE    HY 3254   0.237   5.906   9.793  0.2414 -0.2680  1.3079
   26DOPE   O31 3255   0.298   5.863   9.602  0.2168  0.2736  0.9258
   26DOPE   C31 3256   0.403   5.848   9.523 -0.5174 -0.5941 -0.2837
   26DOPE   O32 3257   0.518   5.841   9.571  0.5810  0.0910 -0.1735
   26DOPE   C32 3258   0.368   5.848   9.379 -0.6532 -0.5149 -0.1537
   26DOPE   H2X 3259   0.291   5.772   9.354 -0.7533 -0.5763  0.3343
   26DOPE   H2Y 3260   0.314   5.945   9.373  1.5797  0.8783  1.0238
   26DOPE   C23 3261   0.501   5.388   9.480 -0.5558 -0.3491 -0.3412
   26DOPE   H3R 3262   0.421   5.320   9.515 -1.5633  0.6642 -0.5886
   26DOPE   H3S 3263   0.583   5.316   9.466  1.2532  1.4116  0.6884
   26DOPE   C24 3264   0.455   5.458   9.351 -0.0155 -0.3223  0.9428
   26DOPE   H4R 3265   0.538   5.472   9.279 -2.0745  0.3234 -1.4503
   26DOPE   H4S 3266   0.411   5.559   9.368  1.9408  0.5494  1.0880
   26DOPE   C25 3267   0.365   5.379   9.258 -0.3621  0.5693  0.2553
   26DOPE   H5R 3268   0.256   5.376   9.281 -1.1022  1.5547 -2.7024
   26DOPE   H5S 3269   0.413   5.280   9.273 -1.7324  0.0153  1.2266
   26DOPE   C26 3270   0.379   5.422   9.119 -0.9599 -0.5048  0.7845
   26DOPE   H6R 3271   0.489   5.421   9.099 -0.6100  1.7202  2.1878
   26DOPE   H6S 3272   0.335   5.520   9.091 -0.9933 -0.9425 -0.7960
   26DOPE   C27 3273   0.331   5.326   9.001 -0.1376  0.5634 -0.5356
   26DOPE   H7R 3274   0.221   5.312   9.012  0.1158 -0.5938  0.6742
   26DOPE   H7S 3275   0.393   5.235   9.013 -0.4129  0.6219  1.8088
   26DOPE   C28 3276   0.365   5.375   8.858  0.5449 -0.5821  0.5327
   26DOPE   H8R 3277   0.476   5.386   8.854  0.7989 -2.2478  1.8367
   26DOPE   H8S 3278   0.322   5.477   8.845  2.4657  0.2432  0.3344
   26DOPE   C29 3279   0.302   5.293   8.747 -0.0113  0.6151 -0.0030
   26DOPE   H9R 3280   0.193   5.284   8.761 -0.4523  0.1329 -3.0155
   26DOPE  C210 3281   0.353   5.236   8.634 -0.5381  0.0774 -0.6580
   26DOPE  H10R 3282   0.304   5.165   8.566 -2.9419  0.8562  0.1463
   26DOPE  C211 3283   0.500   5.262   8.592  0.0411  0.1250 -0.4443
   26DOPE  H11R 3284   0.551   5.167   8.566 -0.1945 -0.0280 -0.3509
   26DOPE  H11S 3285   0.551   5.317   8.674 -0.0409  0.3883 -0.5685
   26DOPE  C212 3286   0.494   5.342   8.459 -0.1869  0.2862 -0.5908
   26DOPE  H12R 3287   0.601   5.349   8.431  0.3675 -0.4030  1.2169
   26DOPE  H12S 3288   0.457   5.446   8.475  0.7634  0.4120  1.0198
   26DOPE  C213 3289   0.412   5.282   8.344  0.3716 -0.4043 -0.0848
   26DOPE  H13R 3290   0.303   5.284   8.366  0.3974 -0.3792  0.0409
   26DOPE  H13S 3291   0.429   5.173   8.333  1.7619 -0.2030 -0.1664
   26DOPE  C214 3292   0.450   5.338   8.202 -0.1588 -0.0964  0.4720
   26DOPE  H14R 3293   0.560   5.341   8.184 -0.0343 -0.0639  1.1925
   26DOPE  H14S 3294   0.410   5.441   8.196 -2.1727 -0.5519  3.6216
   26DOPE  C215 3295   0.391   5.257   8.087  0.0468 -0.6377  0.0375
   26DOPE  H15R 3296   0.283   5.237   8.109 -0.8047  0.3579 -2.7872
   26DOPE  H15S 3297   0.445   5.160   8.084  0.8434 -0.1728 -0.7882
   26DOPE  C216 3298   0.407   5.326   7.953 -0.1571 -0.4587 -0.7331
   26DOPE  H16R 3299   0.512   5.354   7.934  0.3317 -2.3644 -1.1030
   26DOPE  H16S 3300   0.350   5.421   7.942  1.1449  0.3108 -0.9352
   26DOPE  C217 3301   0.354   5.227   7.844 -0.6645  0.0069 -0.4272
   26DOPE  H17R 3302   0.275   5.165   7.891 -0.4133  1.2552  1.7738
   26DOPE  H17S 3303   0.450   5.170   7.839 -0.6791 -0.2043  1.1641
   26DOPE  C218 3304   0.295   5.295   7.728  0.2106 -0.0598  0.7081
   26DOPE  H18R 3305   0.233   5.226   7.667  0.9696 -0.2404  0.1303
   26DOPE  H18S 3306   0.369   5.354   7.670 -0.7552  0.4935  0.0117
   26DOPE  H18T 3307   0.229   5.381   7.754 -0.2968 -0.5251  0.9974
   26DOPE   C33 3308   0.493   5.841   9.291 -0.0954  0.6600 -0.0542
   26DOPE   H3X 3309   0.559   5.754   9.310 -1.9260 -0.6577  0.6324
   26DOPE   H3Y 3310   0.551   5.934   9.307  3.7702 -1.4698 -0.6621
   26DOPE   C34 3311   0.454   5.829   9.144  0.3846 -0.1736 -0.2690
   26DOPE   H4X 3312   0.375   5.751   9.140  0.6626 -0.4201 -1.3828
   26DOPE   H4Y 3313   0.412   5.925   9.108 -0.3902 -0.4682 -0.1757
   26DOPE   C35 3314   0.579   5.797   9.056 -0.2822  0.2080 -0.3390
   26DOPE   H5X 3315   0.649   5.722   9.099  0.6140  0.8404 -0.6565
   26DOPE   H5Y 3316   0.640   5.890   9.055  2.9693 -1.7257  1.2902
   26DOPE   C36 3317   0.532   5.747   8.919 -0.4892  0.1652 -0.1962
   26DOPE   H6X 3318   0.466   5.828   8.882 -0.4664  1.4764  2.4612
   26DOPE   H6Y 3319   0.479   5.653   8.942  0.0992  0.2471  1.6625
   26DOPE   C37 3320   0.652   5.734   8.823 -0.3280 -0.3552  0.0532
   26DOPE   H7X 3321   0.667   5.837   8.785 -2.7053  0.1209  0.2936
   26DOPE   H7Y 3322   0.743   5.701   8.879  1.0460 -0.1734 -1.9748
   26DOPE   C38 3323   0.633   5.626   8.705 -0.9614  0.6789  0.0075
   26DOPE   H8X 3324   0.542   5.639   8.643 -0.9790  0.7547  0.0495
   26DOPE   H8Y 3325   0.607   5.538   8.768 -2.0282  0.0292 -1.2804
   26DOPE   C39 3326   0.764   5.588   8.630 -0.4098 -0.7177  0.2038
   26DOPE   H9X 3327   0.836   5.538   8.697 -1.2187 -2.7498 -0.3573
   26DOPE  C310 3328   0.795   5.622   8.504 -0.7475  0.0065  0.0681
   26DOPE  H10X 3329   0.900   5.615   8.473 -0.8284 -0.1644 -0.1702
   26DOPE  C311 3330   0.707   5.689   8.405  0.2006 -0.3233  0.4607
   26DOPE  H11X 3331   0.677   5.613   8.330 -1.7902 -0.3394  1.2121
   26DOPE  H11Y 3332   0.609   5.720   8.447  0.1310  2.0581 -1.3187
   26DOPE  C312 3333   0.765   5.823   8.355 -0.5675 -0.0161  0.6805
   26DOPE  H12X 3334   0.811   5.874   8.443  0.5002  0.6635 -0.2394
   26DOPE  H12Y 3335   0.686   5.893   8.322  0.5830  1.2382  0.5020
   26DOPE  C313 3336   0.862   5.812   8.231 -0.3607 -1.0037 -0.2554
   26DOPE  H13X 3337   0.933   5.895   8.210 -3.6155  2.1446  0.2522
   26DOPE  H13Y 3338   0.931   5.725   8.244  3.0861  1.4952 -0.3731
   26DOPE  C314 3339   0.786   5.788   8.097  0.0829 -0.7017 -0.4428
   26DOPE  H14X 3340   0.719   5.874   8.078 -0.0893 -0.7632 -0.1272
   26DOPE  H14Y 3341   0.720   5.699   8.109  1.4179 -1.7465 -0.5250
   26DOPE  C315 3342   0.884   5.768   7.983  0.1509 -0.4575  0.2263
   26DOPE  H15X 3343   0.945   5.677   7.998 -2.9987 -2.9813 -0.9956
   26DOPE  H15Y 3344   0.950   5.857   7.973 -1.7258  0.9797  0.0905
   26DOPE  C316 3345   0.816   5.731   7.860  1.0262  0.3445 -0.0371
   26DOPE  H16X 3346   0.737   5.656   7.878  3.9699 -3.0619 -0.0635
   26DOPE  H16Y 3347   0.886   5.691   7.784  0.4710 -1.4521  0.3581
   26DOPE  C317 3348   0.744   5.854   7.798  0.3450  0.0926 -0.7876
   26DOPE  H17X 3349   0.642   5.823   7.768  0.1137  1.3518 -1.3756
   26DOPE  H17Y 3350   0.733   5.933   7.875 -2.8535  0.3279 -1.3735
   26DOPE  C318 3351   0.823   5.911   7.684 -0.4375 -0.3031  0.0071
   26DOPE  H18X 3352   0.780   6.008   7.651  0.0353 -0.2168 -0.3705
   26DOPE  H18Y 3353   0.928   5.919   7.721 -0.2824 -1.9341 -0.0502
   26DOPE  H18Z 3354   0.821   5.838   7.601 -0.2084 -0.7126  0.3550
   27DOPE     N 3355   5.089   0.087  10.086  0.9443  0.1420  0.0833
   27DOPE   HN1 3356   5.116   0.187  10.100  0.0239  0.3219  0.6580
   27DOPE   HN2 3357   5.002   0.059  10.136  0.7279  0.2499 -0.2268
   27DOPE   HN3 3358   5.168   0.035  10.129 -0.5764 -1.0089  1.6161
   27DOPE   C12 3359   5.097   0.067   9.937 -0.5533 -0.0023 -0.3228
   27DOPE  H12A 3360   5.097  -0.039   9.903 -1.7900  0.3716 -1.6213
   27DOPE  H12B 3361   5.182   0.120   9.890 -0.6588 -0.6811 -1.3095
   27DOPE   C11 3362   4.968   0.120   9.884  1.0369 -0.0287  0.1187
   27DOPE  H11A 3363   4.886   0.060   9.928  0.5428 -1.8024 -2.9095
   27DOPE  H11B 3364   4.976   0.100   9.775  1.2500 -0.2808  0.1786
   27DOPE     P 3365   4.854   0.347   9.840 -0.2407 -0.0709  0.0594
   27DOPE   O13 3366   4.878   0.483   9.879  0.1344 -0.0015 -0.1961
   27DOPE   O14 3367   4.716   0.300   9.860 -0.4728 -0.2016  0.7380
   27DOPE   O11 3368   4.902   0.331   9.696  0.0482  0.4446  0.1985
   27DOPE   O12 3369   4.953   0.256   9.922 -0.0396 -0.2182 -0.1349
   27DOPE    C1 3370   5.034   0.358   9.658  0.3041 -0.4185 -0.3941
   27DOPE    HA 3371   5.107   0.291   9.708 -0.2148  0.7589  2.0969
   27DOPE    HB 3372   5.063   0.463   9.680  1.1604 -0.6433 -0.4357
   27DOPE    C2 3373   5.045   0.332   9.509  0.4936 -0.4070  0.8119
   27DOPE    HS 3374   5.152   0.326   9.482  0.6744  0.8970  1.1882
   27DOPE   O21 3375   4.971   0.430   9.428  0.2190  0.0099  0.3115
   27DOPE   C21 3376   5.029   0.554   9.431 -0.0726 -0.5981 -0.2457
   27DOPE   O22 3377   5.132   0.592   9.480 -0.5188 -0.8689  0.0012
   27DOPE   C22 3378   4.931   0.655   9.361  0.2148  0.6407  0.1444
   27DOPE   H2R 3379   4.941   0.751   9.417 -0.1056 -0.2671  1.8154
   27DOPE   H2S 3380   4.826   0.624   9.378  0.4479  0.4657  1.3007
   27DOPE    C3 3381   4.987   0.189   9.472 -0.3784 -0.7953 -1.2825
   27DOPE    HX 3382   4.883   0.167   9.502 -0.5167  0.9341 -0.3537
   27DOPE    HY 3383   5.046   0.114   9.528 -0.6679 -0.2816 -0.2643
   27DOPE   O31 3384   5.000   0.172   9.331  0.2253 -0.0424 -0.2495
   27DOPE   C31 3385   4.896   0.162   9.258  0.7861 -0.6732 -0.0495
   27DOPE   O32 3386   4.781   0.197   9.293 -0.0893 -0.5220  0.0745
   27DOPE   C32 3387   4.928   0.093   9.124  0.8299  0.3119 -0.3122
   27DOPE   H2X 3388   4.910  -0.016   9.135  2.6819  0.2315  3.3199
   27DOPE   H2Y 3389   4.863   0.144   9.049  0.5733 -0.7108 -0.7941
   27DOPE   C23 3390   4.973   0.683   9.218 -0.5770 -0.7731 -0.3289
   27DOPE   H3R 3391   5.064   0.747   9.225 -0.2767 -1.0223 -1.6861
   27DOPE   H3S 3392   4.909   0.756   9.164  0.1768  0.4861  0.4192
   27DOPE   C24 3393   4.998   0.547   9.140  0.2828 -0.5292 -0.0552
   27DOPE   H4R 3394   4.904   0.488   9.145  0.0113 -0.8358 -4.7179
   27DOPE   H4S 3395   5.084   0.487   9.176 -1.5582 -2.5502  1.2667
   27DOPE   C25 3396   5.015   0.592   8.989  0.2476 -1.1966 -0.0914
   27DOPE   H5R 3397   5.120   0.627   8.980 -0.2888  0.3694 -0.4376
   27DOPE   H5S 3398   4.944   0.675   8.971 -0.0397 -1.5779 -0.7405
   27DOPE   C26 3399   4.995   0.486   8.886 -0.0132 -0.2785 -0.0700
   27DOPE   H6R 3400   4.897   0.438   8.906  0.6163 -1.8850 -0.6365
   27DOPE   H6S 3401   5.072   0.407   8.899 -1.1957 -1.5515 -0.4863
   27DOPE   C27 3402   5.001   0.536   8.740 -0.0914 -0.0097 -0.2732
   27DOPE   H7R 3403   5.100   0.586   8.729 -0.4548  0.6979 -0.3830
   27DOPE   H7S 3404   4.910   0.595   8.718  0.8342  1.2665 -0.7930
   27DOPE   C28 3405   5.002   0.423   8.636 -0.0461  0.7568  0.8984
   27DOPE   H8R 3406   5.097   0.369   8.657  0.1457  0.9812  0.6117
   27DOPE   H8S 3407   5.018   0.462   8.533  1.8841 -0.7479  0.5741
   27DOPE   C29 3408   4.886   0.329   8.632  0.6260  0.5120 -0.5806
   27DOPE   H9R 3409   4.891   0.238   8.694 -0.2088 -1.0411 -2.6538
   27DOPE  C210 3410   4.772   0.343   8.567  0.3260  0.0585  0.8199
   27DOPE  H10R 3411   4.703   0.258   8.579 -0.2233  0.5397  1.0571
   27DOPE  C211 3412   4.733   0.433   8.453  0.5037 -0.1314 -0.1885
   27DOPE  H11R 3413   4.824   0.488   8.420  1.5368 -1.4648  0.3815
   27DOPE  H11S 3414   4.650   0.498   8.488 -0.0556 -0.3792 -1.0385
   27DOPE  C212 3415   4.678   0.343   8.337 -0.0428 -0.3369  0.4725
   27DOPE  H12R 3416   4.591   0.277   8.356  0.0754 -0.3478  0.9794
   27DOPE  H12S 3417   4.763   0.277   8.308  0.9224  0.8612  0.4640
   27DOPE  C213 3418   4.662   0.429   8.210  0.2963  0.3464  0.0562
   27DOPE  H13R 3419   4.743   0.503   8.196  0.4527  0.1346 -0.1615
   27DOPE  H13S 3420   4.575   0.492   8.238 -0.0706 -0.4908  0.8859
   27DOPE  C214 3421   4.639   0.340   8.084  0.1170  0.4888 -0.0253
   27DOPE  H14R 3422   4.536   0.299   8.082  0.5154 -0.7323  1.6714
   27DOPE  H14S 3423   4.704   0.252   8.102  1.2488  1.4357  0.6821
   27DOPE  C215 3424   4.663   0.408   7.951 -0.1054 -0.2099 -0.0172
   27DOPE  H15R 3425   4.766   0.447   7.957 -0.8912  2.0996 -0.3333
   27DOPE  H15S 3426   4.606   0.502   7.934  0.6533  0.4969  1.2043
   27DOPE  C216 3427   4.656   0.307   7.833 -0.4085  0.4926  0.4661
   27DOPE  H16R 3428   4.554   0.267   7.819 -0.5760  0.5036  1.6027
   27DOPE  H16S 3429   4.734   0.231   7.855  0.1590  0.7186 -0.6472
   27DOPE  C217 3430   4.690   0.370   7.693 -0.3451  0.1533  0.6554
   27DOPE  H17R 3431   4.642   0.468   7.673  0.0561  0.1254 -0.5053
   27DOPE  H17S 3432   4.624   0.315   7.623 -3.1517  3.5732  0.3707
   27DOPE  C218 3433   4.835   0.369   7.636  0.0374 -0.8380 -0.1872
   27DOPE  H18R 3434   4.898   0.442   7.691 -2.2944  1.8697 -0.8517
   27DOPE  H18S 3435   4.840   0.391   7.527  0.7876  1.4898  0.2593
   27DOPE  H18T 3436   4.885   0.271   7.649  0.3402 -0.7855 -0.8802
   27DOPE   C33 3437   5.067   0.118   9.063 -0.2956  0.3245  0.6515
   27DOPE   H3X 3438   5.146   0.056   9.109 -0.7519 -1.4356 -0.8060
   27DOPE   H3Y 3439   5.105   0.222   9.076  0.1124  0.0471  1.7856
   27DOPE   C34 3440   5.064   0.091   8.911 -0.1986  0.8779 -0.2922
   27DOPE   H4X 3441   5.040  -0.018   8.905 -0.1493  0.7997  0.7950
   27DOPE   H4Y 3442   4.990   0.160   8.865 -2.5919 -0.5586  1.2274
   27DOPE   C35 3443   5.199   0.114   8.851 -0.4031 -0.1449 -0.2199
   27DOPE   H5X 3444   5.282   0.053   8.893 -0.7100 -0.9164 -0.7121
   27DOPE   H5Y 3445   5.222   0.221   8.866  0.9927 -0.3035 -1.1103
   27DOPE   C36 3446   5.203   0.097   8.700 -0.5692  0.1100 -0.1629
   27DOPE   H6X 3447   5.106   0.113   8.649 -0.7036  0.0804  0.0814
   27DOPE   H6Y 3448   5.211  -0.014   8.696  0.9759  0.0293  2.4659
   27DOPE   C37 3449   5.323   0.166   8.628 -0.0750 -0.4831 -0.6517
   27DOPE   H7X 3450   5.309   0.275   8.642  0.4829 -0.6243  1.2255
   27DOPE   H7Y 3451   5.419   0.139   8.677 -0.7867  2.9828  3.2057
   27DOPE   C38 3452   5.325   0.134   8.478  0.7507 -0.0646 -0.2689
   27DOPE   H8X 3453   5.383   0.207   8.416 -0.6758  2.7066  1.4654
   27DOPE   H8Y 3454   5.224   0.145   8.434  0.5271 -1.5015 -0.1577
   27DOPE   C39 3455   5.365  -0.005   8.433  0.7531 -0.3881  0.2004
   27DOPE   H9X 3456   5.283  -0.075   8.449  0.5368  0.1896  1.9088
   27DOPE  C310 3457   5.489  -0.040   8.390 -1.2732  0.5946 -0.7161
   27DOPE  H10X 3458   5.511  -0.143   8.359  0.7148  0.1164  1.9268
   27DOPE  C311 3459   5.612   0.047   8.399  0.2992 -0.5534  0.4909
   27DOPE  H11X 3460   5.599   0.151   8.435  2.3809 -0.2641  0.5381
   27DOPE  H11Y 3461   5.680   0.010   8.479  3.8322  1.1561 -1.4809
   27DOPE  C312 3462   5.676   0.063   8.262 -0.2424 -0.0310  0.2121
   27DOPE  H12X 3463   5.634  -0.017   8.199 -3.0491  1.2350  0.3320
   27DOPE  H12Y 3464   5.786   0.049   8.271 -0.0721  1.0786  0.1126
   27DOPE  C313 3465   5.631   0.188   8.182 -0.3488 -0.4378  0.0954
   27DOPE  H13X 3466   5.522   0.201   8.200 -1.0757 -2.6775 -2.1475
   27DOPE  H13Y 3467   5.686   0.276   8.222  0.7115 -1.4666  0.9444
   27DOPE  C314 3468   5.643   0.157   8.034 -0.0049  0.5390  0.5814
   27DOPE  H14X 3469   5.562   0.087   8.004 -0.2586 -0.3401  3.1080
   27DOPE  H14Y 3470   5.741   0.109   8.013 -0.4918  1.0781 -4.1446
   27DOPE  C315 3471   5.651   0.283   7.953  0.4436 -0.1583  0.9002
   27DOPE  H15X 3472   5.737   0.347   7.982 -0.9828  2.0090  0.5918
   27DOPE  H15Y 3473   5.557   0.343   7.959  1.2102  1.0321  1.5541
   27DOPE  C316 3474   5.676   0.248   7.802  0.0220  1.0358 -0.3233
   27DOPE  H16X 3475   5.586   0.189   7.773  0.8062 -0.6665  0.5742
   27DOPE  H16Y 3476   5.759   0.175   7.807 -0.0084  1.0854  2.8447
   27DOPE  C317 3477   5.692   0.368   7.708  0.3954  0.4848  0.4457
   27DOPE  H17X 3478   5.674   0.325   7.607  0.4224  0.4063  0.4741
   27DOPE  H17Y 3479   5.607   0.437   7.731  0.2627  0.4403  0.1043
   27DOPE  C318 3480   5.834   0.435   7.728  0.7169 -0.2252 -0.8583
   27DOPE  H18X 3481   5.917   0.362   7.720  1.6687  0.4963  1.5274
   27DOPE  H18Y 3482   5.845   0.521   7.659  3.2428 -0.9134 -1.4191
   27DOPE  H18Z 3483   5.839   0.473   7.832 -0.6622 -1.2224 -0.3915
   28DOPE     N 3484   6.205   6.321  10.223  0.4214 -0.3479  0.1927
   28DOPE   HN1 3485   6.127   6.283  10.280 -0.1848  0.0985 -0.3167
   28DOPE   HN2 3486   6.291   6.315  10.280  0.6964  2.5184  0.2436
   28DOPE   HN3 3487   6.184   6.422  10.210  0.6765  0.0603  2.6050
   28DOPE   C12 3488   6.209   6.251  10.089  0.4135 -0.0499  0.3960
   28DOPE  H12A 3489   6.185   6.144  10.111 -2.5663  0.1877 -1.1464
   28DOPE  H12B 3490   6.308   6.271  10.044 -0.2704 -0.4870 -1.4298
   28DOPE   C11 3491   6.093   6.297   9.999 -0.2343 -0.0886  0.3183
   28DOPE  H11A 3492   6.104   6.259   9.895 -2.0140  0.6398 -0.1605
   28DOPE  H11B 3493   6.108   6.406   9.989 -0.1536  0.1148  2.3295
   28DOPE     P 3494   5.900   6.124  10.050  0.3208 -0.0570 -0.4106
   28DOPE   O13 3495   5.750   6.133  10.058 -0.1786  0.0495 -0.0926
   28DOPE   O14 3496   5.966   6.041  10.151 -0.4574  0.4913 -0.5957
   28DOPE   O11 3497   5.946   6.071   9.912  0.1924  0.2721 -0.1523
   28DOPE   O12 3498   5.960   6.267  10.055  0.3079  0.5113 -0.1780
   28DOPE    C1 3499   5.878   5.965   9.845 -0.2268  0.3166 -0.5865
   28DOPE    HA 3500   5.769   5.979   9.856  0.1763  3.9004  0.3254
   28DOPE    HB 3501   5.906   5.863   9.879 -0.5554  0.0401 -1.1380
   28DOPE    C2 3502   5.902   5.958   9.694 -0.4829 -0.5089  0.5107
   28DOPE    HS 3503   5.894   5.850   9.667  0.1906 -0.4199 -0.0866
   28DOPE   O21 3504   6.032   5.998   9.655  1.0782 -0.0746  0.3194
   28DOPE   C21 3505   6.121   5.916   9.705 -0.2478  0.5367 -0.1357
   28DOPE   O22 3506   6.102   5.809   9.755  0.7889  0.3700 -0.2687
   28DOPE   C22 3507   6.266   5.977   9.695 -0.2191 -0.0253 -0.0640
   28DOPE   H2R 3508   6.316   5.972   9.794  0.6574 -0.3366 -0.5184
   28DOPE   H2S 3509   6.246   6.086   9.679 -0.2876  0.4697  2.8043
   28DOPE    C3 3510   5.788   6.028   9.613 -0.0079 -0.7891 -0.9670
   28DOPE    HX 3511   5.773   6.132   9.651 -2.0706 -1.5293  0.4232
   28DOPE    HY 3512   5.686   5.992   9.638 -0.5431  0.6834 -0.8932
   28DOPE   O31 3513   5.813   6.034   9.474 -0.4651 -0.2721  0.1658
   28DOPE   C31 3514   5.815   5.922   9.398 -0.3537 -0.5133 -0.5269
   28DOPE   O32 3515   5.778   5.814   9.434 -0.0231  0.3306 -0.2095
   28DOPE   C32 3516   5.892   5.949   9.269 -0.3617  0.0192 -0.3876
   28DOPE   H2X 3517   5.840   6.041   9.235 -1.2326 -0.9130 -1.6796
   28DOPE   H2Y 3518   5.999   5.970   9.290  0.1706 -1.6194 -1.2975
   28DOPE   C23 3519   6.354   5.909   9.593  0.2946  0.3081  0.0572
   28DOPE   H3R 3520   6.360   5.799   9.598 -0.8854  0.1923 -0.7405
   28DOPE   H3S 3521   6.460   5.940   9.606 -0.1522  0.8951  2.9985
   28DOPE   C24 3522   6.313   5.939   9.443 -0.7157 -0.0666  0.7605
   28DOPE   H4R 3523   6.308   6.049   9.425 -0.7914 -0.4237 -1.7265
   28DOPE   H4S 3524   6.223   5.882   9.412 -2.2964  2.3290  0.6506
   28DOPE   C25 3525   6.421   5.896   9.339  0.8418 -0.8823  0.3449
   28DOPE   H5R 3526   6.448   5.790   9.358  0.6248 -0.4807  3.6067
   28DOPE   H5S 3527   6.510   5.962   9.349  1.1915 -0.9501 -1.9384
   28DOPE   C26 3528   6.367   5.908   9.195  0.2568  0.4635  0.8420
   28DOPE   H6R 3529   6.336   6.015   9.186 -5.0929 -0.9759 -2.7142
   28DOPE   H6S 3530   6.270   5.859   9.171 -0.4833  2.1224  0.2316
   28DOPE   C27 3531   6.457   5.872   9.081  0.5048  0.2860 -0.4710
   28DOPE   H7R 3532   6.451   5.761   9.077 -2.0422  0.3688 -0.6154
   28DOPE   H7S 3533   6.559   5.910   9.104  0.4897 -0.1137  0.3098
   28DOPE   C28 3534   6.403   5.925   8.953 -0.0303  0.1050  0.2151
   28DOPE   H8R 3535   6.403   6.036   8.946  2.3519  0.1294 -0.3831
   28DOPE   H8S 3536   6.302   5.883   8.935  0.1299  0.7795 -2.9099
   28DOPE   C29 3537   6.489   5.886   8.833 -1.1571 -0.1536  0.6967
   28DOPE   H9R 3538   6.596   5.878   8.855 -1.4955 -1.6921  1.9752
   28DOPE  C210 3539   6.444   5.847   8.711  0.1793 -0.3778  0.7852
   28DOPE  H10R 3540   6.513   5.808   8.635  0.1275 -1.5691  1.3239
   28DOPE  C211 3541   6.303   5.859   8.658  0.6651 -0.1249 -0.9304
   28DOPE  H11R 3542   6.240   5.924   8.723  1.4146  1.0337 -1.3309
   28DOPE  H11S 3543   6.264   5.756   8.665  2.6757 -0.8387  0.4218
   28DOPE  C212 3544   6.304   5.904   8.513  0.5310 -0.2021  0.0176
   28DOPE  H12R 3545   6.375   5.838   8.459 -0.6562 -0.8810 -0.7695
   28DOPE  H12S 3546   6.341   6.008   8.502 -0.0979  0.1776  1.3223
   28DOPE  C213 3547   6.163   5.902   8.447  0.0695 -0.1632 -0.1790
   28DOPE  H13R 3548   6.091   5.975   8.489 -0.0905 -1.1716  1.3899
   28DOPE  H13S 3549   6.125   5.803   8.481 -0.4059  1.4250  4.7642
   28DOPE  C214 3550   6.172   5.898   8.295  0.1333  0.5717  0.2525
   28DOPE  H14R 3551   6.232   5.811   8.262 -0.1947  0.3857  0.1373
   28DOPE  H14S 3552   6.225   5.990   8.263  0.7548  0.4578  0.9394
   28DOPE  C215 3553   6.032   5.880   8.232  0.3381  0.0425 -0.4946
   28DOPE  H15R 3554   5.952   5.905   8.304 -0.2377  0.7414 -1.3517
   28DOPE  H15S 3555   6.007   5.776   8.205 -3.3323  0.9614 -1.1931
   28DOPE  C216 3556   6.009   5.969   8.110 -0.1976 -0.4327  0.3852
   28DOPE  H16R 3557   6.027   6.074   8.142  3.0353 -0.1912 -1.7782
   28DOPE  H16S 3558   5.904   5.952   8.078 -0.2517 -2.7152  1.5438
   28DOPE  C217 3559   6.107   5.955   8.000  0.2039  0.0690  0.0913
   28DOPE  H17R 3560   6.112   5.846   7.976 -0.0156 -0.0528  0.5828
   28DOPE  H17S 3561   6.212   5.989   8.014  0.2827  0.9412 -2.3026
   28DOPE  C218 3562   6.059   6.039   7.875 -0.6281  0.8500 -0.1029
   28DOPE  H18R 3563   6.044   6.145   7.905 -0.2144  1.0701 -0.6546
   28DOPE  H18S 3564   5.962   5.996   7.842 -0.3314 -0.9153  1.1504
   28DOPE  H18T 3565   6.124   6.025   7.786  0.1521 -3.2209  0.8688
   28DOPE   C33 3566   5.877   5.833   9.172 -0.0257 -0.1568 -0.1640
   28DOPE   H3X 3567   5.767   5.816   9.166 -0.1911  0.9613 -0.5528
   28DOPE   H3Y 3568   5.926   5.742   9.214 -1.1734 -0.9010 -0.3885
   28DOPE   C34 3569   5.935   5.859   9.036  0.5360  0.1907 -0.0823
   28DOPE   H4X 3570   6.044   5.879   9.042  0.2764  1.2711  1.7600
   28DOPE   H4Y 3571   5.926   5.774   8.965 -0.2181 -1.0912  1.4734
   28DOPE   C35 3572   5.870   5.977   8.970  0.4122 -0.7005 -0.5414
   28DOPE   H5X 3573   5.901   6.072   9.018 -0.1111 -0.6538 -0.2884
   28DOPE   H5Y 3574   5.760   5.963   8.980 -0.0380  2.0149 -0.9321
   28DOPE   C36 3575   5.892   5.977   8.820 -0.3576  0.1750 -0.3842
   28DOPE   H6X 3576   5.999   5.963   8.794 -1.1342 -1.5436 -3.0216
   28DOPE   H6Y 3577   5.865   6.079   8.785  0.3375  1.0981  1.6197
   28DOPE   C37 3578   5.807   5.876   8.745 -0.5869  0.0348 -0.1542
   28DOPE   H7X 3579   5.855   5.776   8.749  0.4147  0.4006 -1.8895
   28DOPE   H7Y 3580   5.704   5.870   8.785  0.3962 -1.5842  2.4058
   28DOPE   C38 3581   5.814   5.899   8.586 -0.3299  0.0327  0.0479
   28DOPE   H8X 3582   5.905   5.840   8.562  0.5502  1.1129  0.6226
   28DOPE   H8Y 3583   5.836   6.004   8.556 -1.1586 -0.2362 -1.6218
   28DOPE   C39 3584   5.700   5.834   8.516 -0.2144 -0.2018  0.0249
   28DOPE   H9X 3585   5.668   5.743   8.570  0.3733 -0.1885  0.4050
   28DOPE  C310 3586   5.609   5.882   8.426 -0.2660 -0.7959  0.3120
   28DOPE  H10X 3587   5.531   5.820   8.380 -1.0274  1.1343 -1.1788
   28DOPE  C311 3588   5.610   6.024   8.366 -0.1751 -0.0886 -0.4686
   28DOPE  H11X 3589   5.566   6.104   8.429  0.8854  1.1398 -1.2304
   28DOPE  H11Y 3590   5.712   6.058   8.336 -1.2105  2.4819 -1.3536
   28DOPE  C312 3591   5.544   6.027   8.221 -0.3806  0.4318 -0.2249
   28DOPE  H12X 3592   5.545   6.134   8.190  0.6057  0.0930 -1.3832
   28DOPE  H12Y 3593   5.440   5.988   8.230 -0.6542  0.9311 -1.1526
   28DOPE  C313 3594   5.611   5.925   8.119 -0.1242 -0.4414 -0.0872
   28DOPE  H13X 3595   5.711   5.957   8.082 -0.8978  2.8897  0.4285
   28DOPE  H13Y 3596   5.604   5.820   8.157 -0.1443 -0.3154  0.2569
   28DOPE  C314 3597   5.534   5.928   7.990  0.5838 -0.4618  0.1685
   28DOPE  H14X 3598   5.429   5.900   8.011 -0.4009  2.5221 -0.3768
   28DOPE  H14Y 3599   5.588   5.855   7.925  0.7369 -1.3641  1.2820
   28DOPE  C315 3600   5.528   6.071   7.918 -0.1384  0.7244  0.5923
   28DOPE  H15X 3601   5.630   6.098   7.883  0.4368 -1.8968  0.0400
   28DOPE  H15Y 3602   5.499   6.140   8.001  0.7129  2.4505 -0.4955
   28DOPE  C316 3603   5.423   6.073   7.809  0.1540 -0.2401 -0.3093
   28DOPE  H16X 3604   5.422   6.177   7.770  1.0110  0.6766  1.9769
   28DOPE  H16Y 3605   5.333   6.038   7.864  1.0687 -1.6562  0.3559
   28DOPE  C317 3606   5.443   5.965   7.698  0.6612 -0.3348 -0.8874
   28DOPE  H17X 3607   5.547   5.958   7.659 -0.3993 -0.7023 -3.8602
   28DOPE  H17Y 3608   5.422   5.864   7.739 -1.0990  0.5885  0.6590
   28DOPE  C318 3609   5.350   5.998   7.582 -0.0364 -0.8644 -0.0793
   28DOPE  H18X 3610   5.326   5.903   7.531 -0.1835 -0.5530 -0.5948
   28DOPE  H18Y 3611   5.264   6.048   7.631 -0.5228 -1.0487 -0.7250
   28DOPE  H18Z 3612   5.398   6.068   7.510  0.5873  0.2710  1.3882
   29DOPE     N 3613   6.336   0.576   9.834 -0.0135 -0.7261 -0.3860
   29DOPE   HN1 3614   6.284   0.513   9.899 -0.1976  0.1951  0.3831
   29DOPE   HN2 3615   6.375   0.642   9.905 -1.3830  0.4281 -0.6667
   29DOPE   HN3 3616   6.272   0.634   9.777  1.2440  0.1688 -0.9506
   29DOPE   C12 3617   6.445   0.508   9.759 -0.1497  0.0656  0.3823
   29DOPE  H12A 3618   6.544   0.542   9.797 -0.7668 -1.3190  3.5441
   29DOPE  H12B 3619   6.430   0.541   9.654 -1.3085 -0.8012  0.2577
   29DOPE   C11 3620   6.441   0.351   9.768 -1.2350 -0.3500 -0.4656
   29DOPE  H11A 3621   6.528   0.323   9.704 -0.6056  0.2639  0.1040
   29DOPE  H11B 3622   6.348   0.310   9.724 -2.3401  2.3242 -0.8276
   29DOPE     P 3623   6.538   0.202   9.963  0.0200  0.0199 -0.2833
   29DOPE   O13 3624   6.495   0.161  10.103 -0.5446  0.0862 -0.1540
   29DOPE   O14 3625   6.674   0.256   9.945  0.8465 -0.5033 -0.0940
   29DOPE   O11 3626   6.509   0.085   9.859 -0.3604 -0.4662  0.4216
   29DOPE   O12 3627   6.438   0.311   9.904 -0.2577 -0.4056 -0.5677
   29DOPE    C1 3628   6.393   0.007   9.872 -0.1921 -0.0389  0.1261
   29DOPE    HA 3629   6.305   0.074   9.864 -1.1126 -1.0509  1.3967
   29DOPE    HB 3630   6.383  -0.023   9.979 -2.0928 -0.7181 -0.2129
   29DOPE    C2 3631   6.380  -0.110   9.770  0.2392 -0.2305  0.2979
   29DOPE    HS 3632   6.466  -0.178   9.789  2.5675  2.4485 -0.1678
   29DOPE   O21 3633   6.377  -0.048   9.642  0.0999  0.1008 -0.5873
   29DOPE   C21 3634   6.494  -0.037   9.583 -0.0772  0.0357 -0.2859
   29DOPE   O22 3635   6.598  -0.085   9.623 -0.2694 -0.0677 -0.2744
   29DOPE   C22 3636   6.469   0.018   9.439 -0.0830 -0.0555  0.1493
   29DOPE   H2R 3637   6.389   0.095   9.447 -0.2412  0.0227 -1.8818
   29DOPE   H2S 3638   6.421  -0.063   9.380 -0.1386  0.7578 -0.9408
   29DOPE    C3 3639   6.249  -0.193   9.802  0.0154 -0.1728  0.1833
   29DOPE    HX 3640   6.156  -0.134   9.817 -0.1633 -0.5836  0.7061
   29DOPE    HY 3641   6.269  -0.250   9.895 -0.2595  1.7272  1.4560
   29DOPE   O31 3642   6.220  -0.277   9.690 -0.5868  0.8991 -0.5663
   29DOPE   C31 3643   6.286  -0.397   9.700 -0.3021 -0.8260  0.8508
   29DOPE   O32 3644   6.360  -0.433   9.785 -0.2071 -0.8246  0.0447
   29DOPE   C32 3645   6.262  -0.488   9.578 -0.1539 -0.0030  0.3050
   29DOPE   H2X 3646   6.352  -0.552   9.566  0.1711  0.6764 -1.1498
   29DOPE   H2Y 3647   6.173  -0.552   9.595  0.6932 -1.2666  0.1234
   29DOPE   C23 3648   6.599   0.068   9.375  0.1239 -0.7618 -0.0840
   29DOPE   H3R 3649   6.673  -0.012   9.352  1.4044  0.7418 -1.3620
   29DOPE   H3S 3650   6.654   0.118   9.458 -1.8779 -0.6952  1.2830
   29DOPE   C24 3651   6.570   0.165   9.260  0.0407  0.1941 -0.7549
   29DOPE   H4R 3652   6.659   0.226   9.236 -0.4867  1.2189 -0.1684
   29DOPE   H4S 3653   6.503   0.245   9.300  2.0231  1.9576 -0.8256
   29DOPE   C25 3654   6.512   0.096   9.139  0.2998  0.0212 -0.6893
   29DOPE   H5R 3655   6.473   0.172   9.068  1.7689  2.0431  0.5840
   29DOPE   H5S 3656   6.420   0.045   9.175 -0.6097  0.9855 -1.5789
   29DOPE   C26 3657   6.599   0.007   9.058 -0.1401 -0.0017  0.2169
   29DOPE   H6R 3658   6.654  -0.063   9.124 -1.5157 -3.3357 -1.8934
   29DOPE   H6S 3659   6.681   0.059   9.005 -0.7039 -1.6722 -2.4718
   29DOPE   C27 3660   6.518  -0.087   8.958  0.5182 -0.0336 -0.2254
   29DOPE   H7R 3661   6.458  -0.022   8.890  0.4094 -0.8914 -0.9811
   29DOPE   H7S 3662   6.451  -0.145   9.024  1.5760  0.1079  1.0110
   29DOPE   C28 3663   6.606  -0.184   8.874  0.4657  0.2685  0.2941
   29DOPE   H8R 3664   6.531  -0.255   8.833 -1.5184  1.2262  2.0475
   29DOPE   H8S 3665   6.671  -0.243   8.943 -0.7369  0.7722  1.9408
   29DOPE   C29 3666   6.691  -0.122   8.774  0.2150  0.7713 -0.2219
   29DOPE   H9R 3667   6.765  -0.055   8.821  0.3873  0.0899  0.4899
   29DOPE  C210 3668   6.698  -0.147   8.639 -0.0901 -0.1578  0.0227
   29DOPE  H10R 3669   6.767  -0.093   8.572 -1.5823  0.0099 -1.4622
   29DOPE  C211 3670   6.599  -0.231   8.555  0.3597  0.0161 -0.3945
   29DOPE  H11R 3671   6.494  -0.212   8.587  0.0330 -0.8328 -0.9020
   29DOPE  H11S 3672   6.618  -0.339   8.573  0.8593  0.6007  3.2717
   29DOPE  C212 3673   6.632  -0.200   8.404 -0.0490  0.2058 -0.0420
   29DOPE  H12R 3674   6.562  -0.269   8.352 -1.0812  0.6791  0.6645
   29DOPE  H12S 3675   6.734  -0.238   8.382 -0.3770 -1.3569  0.9686
   29DOPE  C213 3676   6.591  -0.062   8.369  0.4170 -0.0062 -0.1642
   29DOPE  H13R 3677   6.673   0.008   8.393 -0.8059  0.9531  1.4361
   29DOPE  H13S 3678   6.515  -0.027   8.442  1.2919  2.6261 -0.4238
   29DOPE  C214 3679   6.544  -0.041   8.227 -0.4833 -0.0043  0.0878
   29DOPE  H14R 3680   6.489   0.055   8.232 -1.0509 -0.3149 -0.1116
   29DOPE  H14S 3681   6.462  -0.114   8.207 -1.7362  1.1429  0.9054
   29DOPE  C215 3682   6.656  -0.041   8.128  0.1479  0.3035  0.0603
   29DOPE  H15R 3683   6.695  -0.145   8.115  0.6306  0.3968  0.7178
   29DOPE  H15S 3684   6.739   0.019   8.171 -0.5080  0.2639  1.4483
   29DOPE  C216 3685   6.617   0.007   7.995  0.5640 -0.0615 -0.2586
   29DOPE  H16R 3686   6.561   0.103   7.998 -0.1786 -0.4515 -1.3959
   29DOPE  H16S 3687   6.544  -0.067   7.958 -0.3026  1.5025 -1.7810
   29DOPE  C217 3688   6.733   0.033   7.900  0.0694 -0.9527  0.6116
   29DOPE  H17R 3689   6.793   0.113   7.948 -0.1163  0.3215 -1.1794
   29DOPE  H17S 3690   6.686   0.077   7.809  1.0323 -1.7257 -0.2865
   29DOPE  C218 3691   6.819  -0.085   7.848 -0.1587 -0.5872 -0.6062
   29DOPE  H18R 3692   6.755  -0.161   7.799 -0.9112 -1.2449  1.3203
   29DOPE  H18S 3693   6.890  -0.128   7.921 -1.5556 -0.8922  0.6170
   29DOPE  H18T 3694   6.895  -0.047   7.776  0.5582 -0.3281  0.2615
   29DOPE   C33 3695   6.249  -0.425   9.439  0.2440  0.1424  0.1954
   29DOPE   H3X 3696   6.342  -0.379   9.401  0.7625 -1.2674 -0.3294
   29DOPE   H3Y 3697   6.159  -0.360   9.442 -1.4326 -2.0699  0.8463
   29DOPE   C34 3698   6.222  -0.538   9.331  0.3343  0.0091 -0.4474
   29DOPE   H4X 3699   6.305  -0.610   9.343  0.3782  0.4396  2.8725
   29DOPE   H4Y 3700   6.134  -0.604   9.345  0.4278 -0.7083 -2.8891
   29DOPE   C35 3701   6.214  -0.471   9.194  0.0935  0.2356  0.7045
   29DOPE   H5X 3702   6.282  -0.383   9.191 -0.8487  0.9803  0.5596
   29DOPE   H5Y 3703   6.112  -0.429   9.180 -0.0787 -0.7056 -1.0597
   29DOPE   C36 3704   6.245  -0.564   9.085 -0.3449  0.4645  0.0804
   29DOPE   H6X 3705   6.170  -0.647   9.080  1.0492 -0.8165 -0.2116
   29DOPE   H6Y 3706   6.343  -0.613   9.102  1.8661  4.7378  0.8079
   29DOPE   C37 3707   6.257  -0.493   8.944  0.0335  0.1162  0.0384
   29DOPE   H7X 3708   6.162  -0.437   8.930  0.1763  0.4959  0.5473
   29DOPE   H7Y 3709   6.338  -0.418   8.956  1.5998 -1.6149  0.5619
   29DOPE   C38 3710   6.296  -0.580   8.825  0.1600  0.1188 -0.1373
   29DOPE   H8X 3711   6.380  -0.645   8.858 -0.6065 -0.7789  0.0783
   29DOPE   H8Y 3712   6.335  -0.513   8.745 -3.6470  2.6097 -0.1720
   29DOPE   C39 3713   6.179  -0.659   8.774 -0.3895  0.3706 -0.0199
   29DOPE   H9X 3714   6.157  -0.749   8.833  3.6630 -2.4631 -2.2499
   29DOPE  C310 3715   6.105  -0.644   8.660  0.7398  0.7638 -0.0854
   29DOPE  H10X 3716   6.034  -0.727   8.642  2.6540 -1.2635  1.2132
   29DOPE  C311 3717   6.119  -0.535   8.552 -0.9214 -0.8533 -0.6046
   29DOPE  H11X 3718   6.029  -0.477   8.524 -0.4738 -0.6479 -1.6659
   29DOPE  H11Y 3719   6.182  -0.453   8.594  0.1388 -1.2796 -1.3042
   29DOPE  C312 3720   6.176  -0.580   8.415 -0.3533 -0.1734  0.1025
   29DOPE  H12X 3721   6.102  -0.647   8.366  0.9531 -0.4220 -1.6268
   29DOPE  H12Y 3722   6.263  -0.648   8.419 -2.8455 -3.8457 -1.9059
   29DOPE  C313 3723   6.194  -0.469   8.305 -0.3581 -0.0082 -0.3123
   29DOPE  H13X 3724   6.094  -0.424   8.286 -1.5007 -2.3330 -0.0889
   29DOPE  H13Y 3725   6.260  -0.394   8.354  0.3711 -1.2299  0.6368
   29DOPE  C314 3726   6.255  -0.526   8.174  0.5032 -0.2922 -0.0993
   29DOPE  H14X 3727   6.184  -0.607   8.147 -1.5123  0.9472  1.2851
   29DOPE  H14Y 3728   6.353  -0.572   8.199  0.2292  0.7536  3.3778
   29DOPE  C315 3729   6.261  -0.432   8.055 -0.8693 -0.1110 -0.6763
   29DOPE  H15X 3730   6.307  -0.338   8.090  1.6394 -1.5910  0.2741
   29DOPE  H15Y 3731   6.159  -0.424   8.010 -2.2732 -1.8711  1.9414
   29DOPE  C316 3732   6.344  -0.505   7.943  0.1879 -0.2088  0.1246
   29DOPE  H16X 3733   6.294  -0.602   7.924 -1.8055  0.8104 -0.0898
   29DOPE  H16Y 3734   6.451  -0.520   7.970  0.3623 -0.5653 -0.7406
   29DOPE  C317 3735   6.344  -0.423   7.811 -0.1203 -0.5826 -0.6268
   29DOPE  H17X 3736   6.398  -0.481   7.734  3.2068 -0.8955  1.7130
   29DOPE  H17Y 3737   6.239  -0.409   7.780 -0.0275 -0.4662 -0.8879
   29DOPE  C318 3738   6.410  -0.280   7.829 -0.1625  0.2957  0.2540
   29DOPE  H18X 3739   6.376  -0.223   7.918 -0.1383  0.8346 -0.0747
   29DOPE  H18Y 3740   6.521  -0.284   7.835 -0.0850 -0.7757 -1.2370
   29DOPE  H18Z 3741   6.388  -0.218   7.739 -0.5524  1.7922  1.3221
   30DOPE     N 3742   6.808   5.970  10.141  0.2902  0.0847 -0.0117
   30DOPE   HN1 3743   6.746   6.048  10.172 -0.8819 -0.3244 -1.2143
   30DOPE   HN2 3744   6.769   5.930  10.053  0.3913 -0.7904  0.3347
   30DOPE   HN3 3745   6.796   5.897  10.213  0.5634 -0.3057 -0.3576
   30DOPE   C12 3746   6.947   6.029  10.112  0.1106  0.3281 -0.1426
   30DOPE  H12A 3747   7.006   5.950  10.062  1.8937  1.5922 -0.1289
   30DOPE  H12B 3748   7.003   6.047  10.206 -0.1653 -3.1578  0.8389
   30DOPE   C11 3749   6.938   6.163  10.025 -0.6759  0.1579 -0.0958
   30DOPE  H11A 3750   6.893   6.132   9.928  1.5822  1.1028 -1.5328
   30DOPE  H11B 3751   7.044   6.187  10.000  0.6265  0.0408  4.4556
   30DOPE     P 3752   6.735   6.299  10.110 -0.3010 -0.0784 -0.3345
   30DOPE   O13 3753   6.716   6.444  10.149  0.4560  0.4555 -0.2736
   30DOPE   O14 3754   6.681   6.197  10.197  0.8646  0.6312 -0.2599
   30DOPE   O11 3755   6.683   6.273   9.958  0.3339 -0.7251  0.6679
   30DOPE   O12 3756   6.891   6.271  10.102 -0.4049 -0.3409 -0.8255
   30DOPE    C1 3757   6.672   6.389   9.872 -0.5877 -0.6948  0.4420
   30DOPE    HA 3758   6.753   6.465   9.878 -1.1077 -0.1780  1.0583
   30DOPE    HB 3759   6.595   6.461   9.907  1.3460  1.9675 -0.4422
   30DOPE    C2 3760   6.667   6.353   9.724 -0.5481 -0.2194 -0.4219
   30DOPE    HS 3761   6.565   6.312   9.708 -0.3910 -0.5395 -0.6033
   30DOPE   O21 3762   6.776   6.263   9.694  0.1901  0.2111 -0.3214
   30DOPE   C21 3763   6.744   6.153   9.625 -0.6127  0.7996  0.0027
   30DOPE   O22 3764   6.633   6.124   9.585 -0.4866  0.3049 -0.4586
   30DOPE   C22 3765   6.859   6.059   9.618  0.2735  0.0102  0.3350
   30DOPE   H2R 3766   6.875   6.013   9.718  1.6963  0.4753  0.3394
   30DOPE   H2S 3767   6.955   6.103   9.584 -0.0577  0.0477 -0.5682
   30DOPE    C3 3768   6.684   6.482   9.635  0.4758 -0.0138 -0.7086
   30DOPE    HX 3769   6.793   6.507   9.631  0.8570 -1.0440  1.6926
   30DOPE    HY 3770   6.637   6.565   9.691 -1.9733 -0.6642 -1.6861
   30DOPE   O31 3771   6.620   6.478   9.508 -0.4522  0.5876  0.1147
   30DOPE   C31 3772   6.708   6.439   9.412 -0.1570 -0.2247 -0.1786
   30DOPE   O32 3773   6.831   6.440   9.422 -0.1254  0.2481 -0.5394
   30DOPE   C32 3774   6.639   6.411   9.281  0.8317  0.0473 -0.0498
   30DOPE   H2X 3775   6.567   6.328   9.298 -0.3805  1.7589  4.6912
   30DOPE   H2Y 3776   6.566   6.490   9.256 -0.7303 -0.5507  2.2960
   30DOPE   C23 3777   6.828   5.953   9.515 -0.0428 -0.0865  0.4665
   30DOPE   H3R 3778   6.738   5.893   9.542 -0.0276  0.6575  2.2939
   30DOPE   H3S 3779   6.906   5.875   9.531 -0.5285 -0.4081  1.3511
   30DOPE   C24 3780   6.822   6.000   9.371 -0.0948  0.1938  0.4834
   30DOPE   H4R 3781   6.906   6.072   9.359  1.2774 -1.6595 -2.0762
   30DOPE   H4S 3782   6.731   6.062   9.356  0.8085  1.4563  0.0613
   30DOPE   C25 3783   6.837   5.887   9.265  0.0904 -0.1524  0.4096
   30DOPE   H5R 3784   6.743   5.828   9.260  0.4896 -0.7653 -0.0391
   30DOPE   H5S 3785   6.913   5.818   9.308 -0.5560 -0.0759  1.7497
   30DOPE   C26 3786   6.860   5.943   9.127  0.3062 -0.0214 -0.3386
   30DOPE   H6R 3787   6.956   5.997   9.142  0.1211  0.2627 -0.1605
   30DOPE   H6S 3788   6.785   6.024   9.109  1.5505  1.5431  1.1619
   30DOPE   C27 3789   6.865   5.839   9.011 -0.9040 -0.1689 -0.3307
   30DOPE   H7R 3790   6.775   5.773   9.018  0.9903 -2.7653  1.7325
   30DOPE   H7S 3791   6.950   5.774   9.043  0.3703  2.7159  2.7115
   30DOPE   C28 3792   6.885   5.899   8.871 -0.9405  0.8279 -0.6267
   30DOPE   H8R 3793   6.807   5.978   8.857 -0.3599  1.2577 -1.5155
   30DOPE   H8S 3794   6.859   5.822   8.795 -1.8071 -0.2286  0.6909
   30DOPE   C29 3795   7.014   5.971   8.850  0.2341 -0.0521 -0.2751
   30DOPE   H9R 3796   7.053   6.023   8.938  2.4871 -1.0342 -0.6216
   30DOPE  C210 3797   7.090   5.970   8.733 -0.0348 -0.0675  0.4212
   30DOPE  H10R 3798   7.194   6.003   8.737  0.3703 -1.4072  2.5282
   30DOPE  C211 3799   7.067   5.899   8.607 -0.4470 -0.4706 -0.2564
   30DOPE  H11R 3800   6.961   5.893   8.575 -0.2516  0.9540 -1.2625
   30DOPE  H11S 3801   7.114   5.803   8.639 -1.1213  0.1751  2.9905
   30DOPE  C212 3802   7.146   5.965   8.492 -0.2456  0.1438 -0.5050
   30DOPE  H12R 3803   7.252   5.978   8.525 -0.2887  0.8216 -0.6153
   30DOPE  H12S 3804   7.096   6.064   8.480  1.1788  1.4031  2.8176
   30DOPE  C213 3805   7.145   5.872   8.364  0.6988 -0.0077  0.0411
   30DOPE  H13R 3806   7.043   5.870   8.320  1.0045 -3.2332 -0.7125
   30DOPE  H13S 3807   7.183   5.772   8.392  0.7059 -0.6287 -2.0547
   30DOPE  C214 3808   7.230   5.925   8.248  0.0963 -0.6863 -0.1974
   30DOPE  H14R 3809   7.333   5.941   8.285  0.4759 -0.6974 -1.2322
   30DOPE  H14S 3810   7.195   6.029   8.226 -1.0489 -1.0988 -0.3916
   30DOPE  C215 3811   7.230   5.836   8.119 -0.8244  0.0968 -0.2118
   30DOPE  H15R 3812   7.255   5.735   8.158  0.4822  0.2478 -0.6095
   30DOPE  H15S 3813   7.318   5.872   8.061  0.2649  1.9430  2.4223
   30DOPE  C216 3814   7.108   5.848   8.033 -0.5602 -0.1791 -0.1811
   30DOPE  H16R 3815   7.090   5.956   8.012  1.1508 -0.1282 -1.6313
   30DOPE  H16S 3816   7.021   5.813   8.093 -2.5418  0.7068 -2.4085
   30DOPE  C217 3817   7.110   5.781   7.896  0.1529  0.3688 -0.9637
   30DOPE  H17R 3818   7.122   5.673   7.919 -1.7174  0.6859  1.9822
   30DOPE  H17S 3819   7.195   5.816   7.833  0.1776  0.9623 -0.6084
   30DOPE  C218 3820   6.982   5.810   7.819  0.1167 -0.8597  0.2434
   30DOPE  H18R 3821   7.002   5.827   7.711 -1.7387  1.8578  0.2156
   30DOPE  H18S 3822   6.929   5.898   7.862 -0.6269 -0.2492 -1.7938
   30DOPE  H18T 3823   6.923   5.716   7.817  0.3104 -0.9749 -0.2829
   30DOPE   C33 3824   6.725   6.393   9.158 -0.3039 -0.2583  0.9524
   30DOPE   H3X 3825   6.824   6.349   9.183 -2.0187 -3.6994  2.3534
   30DOPE   H3Y 3826   6.742   6.497   9.123 -3.2037  0.7365  2.1634
   30DOPE   C34 3827   6.664   6.306   9.054  0.6115 -0.0906  0.2059
   30DOPE   H4X 3828   6.662   6.200   9.089 -2.1752  0.2067  1.1816
   30DOPE   H4Y 3829   6.558   6.339   9.050  0.0386 -1.9059 -0.9286
   30DOPE   C35 3830   6.745   6.300   8.928  0.1979  0.0976  0.4821
   30DOPE   H5X 3831   6.841   6.244   8.938  1.2122  1.7446  0.3937
   30DOPE   H5Y 3832   6.783   6.403   8.910  2.4518 -0.5289  1.2425
   30DOPE   C36 3833   6.665   6.252   8.809  0.2136  0.1364  0.1444
   30DOPE   H6X 3834   6.596   6.337   8.791  0.3992 -0.0991 -1.9059
   30DOPE   H6Y 3835   6.603   6.163   8.835 -1.8200  1.2976 -0.4553
   30DOPE   C37 3836   6.757   6.227   8.693  0.2743 -0.1197  0.6398
   30DOPE   H7X 3837   6.776   6.327   8.649  2.0656 -0.0456  1.4661
   30DOPE   H7Y 3838   6.856   6.185   8.724  1.8071  2.3597 -0.6158
   30DOPE   C38 3839   6.684   6.141   8.585 -0.1412 -0.0136  0.1432
   30DOPE   H8X 3840   6.595   6.197   8.551 -0.7131 -1.9122 -1.6753
   30DOPE   H8Y 3841   6.644   6.043   8.618  1.8213 -1.1379 -0.6321
   30DOPE   C39 3842   6.775   6.131   8.457  0.2208 -0.4728  0.1057
   30DOPE   H9X 3843   6.882   6.151   8.476 -0.8454  2.7403  4.0904
   30DOPE  C310 3844   6.734   6.082   8.338 -0.1813  0.4718  1.0400
   30DOPE  H10X 3845   6.808   6.088   8.258 -0.2531 -1.2047  0.8157
   30DOPE  C311 3846   6.593   6.033   8.305 -0.3897 -0.4378 -0.6648
   30DOPE  H11X 3847   6.524   6.030   8.393  1.4496 -2.6528  0.8201
   30DOPE  H11Y 3848   6.556   6.105   8.228  0.3280  0.4382 -0.2154
   30DOPE  C312 3849   6.596   5.891   8.252 -0.0391 -0.0752 -0.0025
   30DOPE  H12X 3850   6.495   5.849   8.269  0.4820 -1.4478 -0.1981
   30DOPE  H12Y 3851   6.667   5.831   8.314  0.2814  1.8510  1.6158
   30DOPE  C313 3852   6.620   5.875   8.105  1.4131  0.0300  0.0240
   30DOPE  H13X 3853   6.721   5.909   8.074  1.0446  1.1564  0.0266
   30DOPE  H13Y 3854   6.605   5.768   8.081  0.5914  0.1902 -0.1928
   30DOPE  C314 3855   6.514   5.952   8.019  1.1677 -0.0239 -0.0025
   30DOPE  H14X 3856   6.519   6.062   8.033 -2.3219  0.3539 -0.8163
   30DOPE  H14Y 3857   6.407   5.922   8.027  0.7650  1.5318  0.9270
   30DOPE  C315 3858   6.550   5.927   7.869 -0.6975 -0.7089 -0.1730
   30DOPE  H15X 3859   6.569   5.819   7.852 -0.1418 -0.2292 -3.2128
   30DOPE  H15Y 3860   6.645   5.983   7.853 -1.9768  2.1880  1.6249
   30DOPE  C316 3861   6.459   5.982   7.763  0.6764  0.2347  0.4590
   30DOPE  H16X 3862   6.438   6.088   7.787  2.4208  0.9815 -1.0764
   30DOPE  H16Y 3863   6.362   5.928   7.755  0.4599  0.4632  1.4377
   30DOPE  C317 3864   6.531   5.997   7.619 -0.6445 -0.1706  0.3073
   30DOPE  H17X 3865   6.595   6.088   7.620 -0.8162 -0.0472  0.2055
   30DOPE  H17Y 3866   6.609   5.918   7.614  0.6719  1.1054 -0.3591
   30DOPE  C318 3867   6.437   5.996   7.501  0.1451 -0.3573 -0.0683
   30DOPE  H18X 3868   6.335   5.981   7.541 -0.0841 -1.7037 -1.0704
   30DOPE  H18Y 3869   6.441   6.084   7.434  2.1238 -0.9990 -0.8799
   30DOPE  H18Z 3870   6.465   5.904   7.445  0.0167 -0.8287  0.6342
   31DOPE     N 3871   2.614   3.614   5.544  0.2296  0.6742  0.3020
   31DOPE   HN1 3872   2.658   3.700   5.505  2.0229 -0.8126 -1.1149
   31DOPE   HN2 3873   2.522   3.630   5.590  0.1694  2.1881 -0.2882
   31DOPE   HN3 3874   2.667   3.570   5.622 -0.9871 -1.9856 -0.2469
   31DOPE   C12 3875   2.601   3.510   5.432  0.4272 -0.5231  0.4365
   31DOPE  H12A 3876   2.640   3.414   5.474  0.3376 -0.3017  1.0369
   31DOPE  H12B 3877   2.658   3.552   5.346 -1.4084  1.5084  0.1305
   31DOPE   C11 3878   2.452   3.475   5.408 -0.0970  0.0724  0.3793
   31DOPE  H11A 3879   2.464   3.381   5.349 -2.7972  0.1063 -0.3613
   31DOPE  H11B 3880   2.402   3.549   5.343  0.3409  2.0649  2.1804
   31DOPE     P 3881   2.261   3.373   5.563  0.0241  0.0021 -0.2769
   31DOPE   O13 3882   2.291   3.248   5.497  0.0549 -0.7323  0.2824
   31DOPE   O14 3883   2.134   3.444   5.534 -0.1717 -0.3622 -0.0909
   31DOPE   O11 3884   2.268   3.343   5.710 -0.0800 -0.0385 -0.0162
   31DOPE   O12 3885   2.384   3.469   5.534  0.1175  0.2715  0.2165
   31DOPE    C1 3886   2.346   3.418   5.803  0.9050  0.4892  0.4640
   31DOPE    HA 3887   2.283   3.504   5.835 -1.3953 -2.0050  3.2925
   31DOPE    HB 3888   2.444   3.447   5.761  1.3410 -1.5391  0.0094
   31DOPE    C2 3889   2.372   3.345   5.933 -0.2142  0.6237  0.2253
   31DOPE    HS 3890   2.437   3.259   5.904  1.8187  2.4627 -1.0151
   31DOPE   O21 3891   2.243   3.308   5.986 -0.1011 -0.0093  0.1791
   31DOPE   C21 3892   2.211   3.179   5.978  0.2757 -0.3992 -0.4679
   31DOPE   O22 3893   2.283   3.091   5.932 -0.1635 -0.2738 -0.3172
   31DOPE   C22 3894   2.080   3.158   6.054 -0.3829  0.6474  0.7846
   31DOPE   H2R 3895   2.042   3.062   6.012  2.7350  0.3784 -1.8212
   31DOPE   H2S 3896   2.007   3.239   6.035  0.7323  1.2936 -1.1025
   31DOPE    C3 3897   2.454   3.421   6.046  0.0712 -0.2406  0.0463
   31DOPE    HX 3898   2.395   3.509   6.080  1.2190  0.4718  0.2553
   31DOPE    HY 3899   2.535   3.452   5.976  0.3430 -1.5216 -0.2367
   31DOPE   O31 3900   2.497   3.335   6.148  0.4152  0.1678  0.0761
   31DOPE   C31 3901   2.606   3.262   6.117  0.7802 -0.1936 -0.0597
   31DOPE   O32 3902   2.681   3.274   6.019 -0.2823  0.5080  0.1058
   31DOPE   C32 3903   2.642   3.181   6.234  0.4807 -0.2203  0.1174
   31DOPE   H2X 3904   2.551   3.124   6.263 -0.9176  0.0284 -3.2890
   31DOPE   H2Y 3905   2.723   3.117   6.192  1.1878  0.6741  0.0969
   31DOPE   C23 3906   2.092   3.134   6.205 -0.9157 -0.2541  0.1779
   31DOPE   H3R 3907   1.993   3.129   6.254  1.0295  0.0711  4.6266
   31DOPE   H3S 3908   2.137   3.217   6.263  0.7831 -0.6731 -0.4671
   31DOPE   C24 3909   2.166   3.010   6.241  0.1274 -0.7807 -0.0386
   31DOPE   H4R 3910   2.276   3.012   6.255 -0.3452 -1.1086  6.0557
   31DOPE   H4S 3911   2.144   2.935   6.161  1.0031  0.4256 -1.4719
   31DOPE   C25 3912   2.104   2.951   6.363  0.2814  0.2612 -0.2278
   31DOPE   H5R 3913   1.996   2.928   6.352  0.8257 -1.4570 -2.6143
   31DOPE   H5S 3914   2.114   3.023   6.448  0.4719 -0.9173  0.7833
   31DOPE   C26 3915   2.169   2.821   6.403  0.0596  0.4644 -0.6037
   31DOPE   H6R 3916   2.276   2.844   6.422 -0.3362  0.8346  1.5003
   31DOPE   H6S 3917   2.159   2.744   6.325 -0.8874  0.6580 -0.6833
   31DOPE   C27 3918   2.130   2.765   6.539 -0.2778  0.9782 -0.4272
   31DOPE   H7R 3919   2.021   2.740   6.537 -0.0740  0.0178 -0.3418
   31DOPE   H7S 3920   2.153   2.835   6.621 -2.3205 -1.4843  2.4810
   31DOPE   C28 3921   2.197   2.628   6.572  0.6438 -1.1273 -0.3207
   31DOPE   H8R 3922   2.193   2.574   6.475 -0.9953 -0.9348 -0.4027
   31DOPE   H8S 3923   2.124   2.577   6.639  0.8343 -1.7355 -0.5770
   31DOPE   C29 3924   2.339   2.636   6.625  0.0677 -0.5033 -0.2263
   31DOPE   H9R 3925   2.410   2.688   6.559 -1.2232 -0.9617 -2.0606
   31DOPE  C210 3926   2.387   2.592   6.741 -0.1005  0.3249  0.1590
   31DOPE  H10R 3927   2.494   2.588   6.768 -0.2437 -1.8358  0.5816
   31DOPE  C211 3928   2.302   2.533   6.853  0.0790 -0.0324  0.6554
   31DOPE  H11R 3929   2.353   2.444   6.896 -0.1128 -0.1557  0.6297
   31DOPE  H11S 3930   2.204   2.496   6.814 -0.8367  1.0932  1.7890
   31DOPE  C212 3931   2.290   2.612   6.983  0.2962 -0.1112  0.0943
   31DOPE  H12R 3932   2.212   2.690   6.970  0.5463 -0.0402 -1.2014
   31DOPE  H12S 3933   2.391   2.654   7.004  0.5224 -0.2181 -0.7302
   31DOPE  C213 3934   2.242   2.532   7.103 -0.8234  0.0194 -0.3159
   31DOPE  H13R 3935   2.316   2.458   7.138 -1.0018  1.3910  3.3902
   31DOPE  H13S 3936   2.151   2.475   7.075  0.2009 -1.6925 -0.3134
   31DOPE  C214 3937   2.216   2.614   7.225 -0.1346  0.1049  0.3310
   31DOPE  H14R 3938   2.140   2.692   7.200 -0.9536 -1.0367 -0.8912
   31DOPE  H14S 3939   2.301   2.675   7.262  1.5119 -0.6610 -1.9196
   31DOPE  C215 3940   2.164   2.521   7.341 -0.0737  0.2351 -0.2858
   31DOPE  H15R 3941   2.234   2.436   7.355  0.0511  0.3423 -0.2535
   31DOPE  H15S 3942   2.062   2.488   7.312  0.5312 -0.4452 -1.7831
   31DOPE  C216 3943   2.149   2.596   7.478 -0.3979  0.2100 -0.0478
   31DOPE  H16R 3944   2.061   2.660   7.457 -0.8611 -0.7627 -1.2229
   31DOPE  H16S 3945   2.232   2.659   7.516 -1.4584  2.2019 -0.8761
   31DOPE  C217 3946   2.115   2.493   7.592  0.4658  0.8608 -0.3103
   31DOPE  H17R 3947   2.203   2.425   7.596 -1.0601 -1.1770  2.6949
   31DOPE  H17S 3948   2.020   2.439   7.570  0.5519 -0.0502  1.3497
   31DOPE  C218 3949   2.115   2.547   7.734  0.3786 -0.1572 -0.5160
   31DOPE  H18R 3950   2.015   2.584   7.764  1.3470  1.4848  0.9145
   31DOPE  H18S 3951   2.187   2.632   7.740 -0.7616  0.7952  0.2109
   31DOPE  H18T 3952   2.143   2.469   7.808  0.7653 -0.3523 -0.8623
   31DOPE   C33 3953   2.696   3.257   6.358 -0.7621 -0.1346 -0.5342
   31DOPE   H3X 3954   2.752   3.348   6.326  0.1947 -1.0236 -1.4424
   31DOPE   H3Y 3955   2.767   3.192   6.413  2.8635  3.2692 -0.6951
   31DOPE   C34 3956   2.596   3.302   6.465 -1.0096  0.8098 -0.3636
   31DOPE   H4X 3957   2.524   3.374   6.419 -1.1651  1.3201  0.6494
   31DOPE   H4Y 3958   2.542   3.209   6.491  2.5651 -1.7236 -1.3051
   31DOPE   C35 3959   2.675   3.360   6.585  0.3985  0.1088 -0.2121
   31DOPE   H5X 3960   2.750   3.435   6.550 -1.6002  2.4728  0.2630
   31DOPE   H5Y 3961   2.729   3.281   6.642 -0.2126  0.4557  0.8576
   31DOPE   C36 3962   2.580   3.447   6.673 -0.3666  0.1738 -0.0361
   31DOPE   H6X 3963   2.476   3.406   6.674 -0.8536  1.3708 -0.2096
   31DOPE   H6Y 3964   2.577   3.549   6.629  0.9499  0.3938  0.3592
   31DOPE   C37 3965   2.633   3.469   6.809 -0.5309  0.4677  0.0346
   31DOPE   H7X 3966   2.743   3.481   6.804 -0.5907  1.1139  0.1692
   31DOPE   H7Y 3967   2.604   3.569   6.846 -1.0758 -0.2201  1.5671
   31DOPE   C38 3968   2.584   3.357   6.906  0.5770  0.3604  0.4613
   31DOPE   H8X 3969   2.473   3.367   6.903  0.6192  0.7810  0.1923
   31DOPE   H8Y 3970   2.606   3.386   7.011  1.8950 -0.4758  0.4324
   31DOPE   C39 3971   2.637   3.219   6.888 -0.2089  0.2007  0.0014
   31DOPE   H9X 3972   2.567   3.148   6.842  0.3643 -0.2301 -0.2159
   31DOPE  C310 3973   2.736   3.160   6.963 -0.1602 -1.0388  0.1172
   31DOPE  H10X 3974   2.763   3.057   6.934 -2.1124 -0.6867 -3.5542
   31DOPE  C311 3975   2.822   3.232   7.072 -0.0075  0.1875  0.9108
   31DOPE  H11X 3976   2.924   3.188   7.062 -0.5195 -0.6829 -0.9522
   31DOPE  H11Y 3977   2.829   3.341   7.057 -1.6714  0.0903 -1.0910
   31DOPE  C312 3978   2.779   3.216   7.223  0.3444  0.9070 -0.2746
   31DOPE  H12X 3979   2.684   3.271   7.235 -0.7845 -0.7642 -1.1279
   31DOPE  H12Y 3980   2.856   3.261   7.289 -0.0875  0.6509  0.4026
   31DOPE  C313 3981   2.774   3.069   7.270 -0.2393  0.5150  0.6176
   31DOPE  H13X 3982   2.690   3.003   7.238 -1.7897  2.0762  1.2731
   31DOPE  H13Y 3983   2.860   3.008   7.235  0.6419  2.2003 -0.2497
   31DOPE  C314 3984   2.770   3.065   7.427  0.7646 -0.1534 -0.3494
   31DOPE  H14X 3985   2.663   3.083   7.452 -0.7401 -1.1237 -5.1064
   31DOPE  H14Y 3986   2.850   3.133   7.463  1.2203 -0.4322 -0.8173
   31DOPE  C315 3987   2.803   2.930   7.494 -0.1550 -0.0212 -0.1626
   31DOPE  H15X 3988   2.908   2.906   7.465 -0.3900  1.4132 -2.4832
   31DOPE  H15Y 3989   2.728   2.852   7.468 -0.9144  1.3874 -2.5161
   31DOPE  C316 3990   2.811   2.939   7.648 -0.4318  0.4328  0.1022
   31DOPE  H16X 3991   2.725   2.985   7.701 -0.9139 -0.0476 -0.2598
   31DOPE  H16Y 3992   2.892   3.012   7.671  1.8599 -2.7276  3.2683
   31DOPE  C317 3993   2.858   2.806   7.708  0.0027 -0.5031  0.2972
   31DOPE  H17X 3994   2.911   2.746   7.631 -1.9468  1.1412 -2.5325
   31DOPE  H17Y 3995   2.940   2.838   7.776  2.3911 -0.8907 -2.2222
   31DOPE  C318 3996   2.751   2.725   7.781  0.3827  0.1524  0.0362
   31DOPE  H18X 3997   2.792   2.622   7.787 -2.2552 -0.9335  1.0243
   31DOPE  H18Y 3998   2.725   2.768   7.880 -3.2671  1.5764 -1.3748
   31DOPE  H18Z 3999   2.652   2.723   7.731 -0.0628 -1.8890  0.8685
   32DOPE     N 4000   4.795   3.047   4.936  0.5121  1.0773 -0.1053
   32DOPE   HN1 4001   4.817   3.068   5.036 -1.9217 -0.5345  0.8966
   32DOPE   HN2 4002   4.772   2.945   4.931 -0.2854  1.3064 -1.4089
   32DOPE   HN3 4003   4.869   3.083   4.874  1.2189  1.5666  0.9823
   32DOPE   C12 4004   4.666   3.129   4.917  0.3985 -0.6368 -0.4942
   32DOPE  H12A 4005   4.623   3.097   4.819 -4.1920 -1.1247  1.4038
   32DOPE  H12B 4006   4.688   3.237   4.927 -1.1663 -0.3949  0.7243
   32DOPE   C11 4007   4.564   3.100   5.027 -0.0731  0.2526 -0.3854
   32DOPE  H11A 4008   4.600   3.128   5.128 -0.2704  2.5281 -0.9014
   32DOPE  H11B 4009   4.547   2.991   5.043  0.1387  0.4098  1.0054
   32DOPE     P 4010   4.396   3.306   5.048 -0.0977  0.4936 -0.0523
   32DOPE   O13 4011   4.277   3.336   4.968  0.5685 -0.0451 -0.3164
   32DOPE   O14 4012   4.513   3.397   5.029  0.2005  0.1727  0.2868
   32DOPE   O11 4013   4.369   3.283   5.199 -0.0054  0.4061 -0.2139
   32DOPE   O12 4014   4.441   3.161   4.999 -0.3834 -0.1056  0.2001
   32DOPE    C1 4015   4.329   3.160   5.258 -0.3552  0.3599 -0.6961
   32DOPE    HA 4016   4.378   3.069   5.218  2.4295  0.6842  1.6643
   32DOPE    HB 4017   4.219   3.144   5.252 -0.2319 -1.2068  0.6836
   32DOPE    C2 4018   4.365   3.166   5.416 -0.2749 -0.5757  0.3352
   32DOPE    HS 4019   4.321   3.259   5.458  1.5055  1.1971 -1.5004
   32DOPE   O21 4020   4.504   3.160   5.428  0.1473  0.0618  0.0434
   32DOPE   C21 4021   4.563   3.277   5.450 -0.3120 -0.6004  0.3664
   32DOPE   O22 4022   4.506   3.384   5.468 -0.6320  0.1802 -0.3757
   32DOPE   C22 4023   4.712   3.260   5.443  0.1941 -0.3157  0.0961
   32DOPE   H2R 4024   4.734   3.332   5.360 -3.2437 -0.3622 -0.9912
   32DOPE   H2S 4025   4.732   3.153   5.419  0.2281 -0.2855 -0.0128
   32DOPE    C3 4026   4.306   3.043   5.487  0.2868 -0.3756 -0.3704
   32DOPE    HX 4027   4.340   2.957   5.427  1.1277  1.2213 -2.2942
   32DOPE    HY 4028   4.196   3.041   5.470  0.2123 -1.3285  0.1602
   32DOPE   O31 4029   4.351   3.034   5.628  0.3013  0.3809  1.0531
   32DOPE   C31 4030   4.262   3.074   5.719 -0.4410 -0.1218  0.9144
   32DOPE   O32 4031   4.160   3.135   5.692 -0.0987 -0.8593 -0.5154
   32DOPE   C32 4032   4.307   3.026   5.858 -0.1780 -0.5810 -0.1894
   32DOPE   H2X 4033   4.273   2.920   5.869  1.6888 -1.3615 -1.4499
   32DOPE   H2Y 4034   4.418   3.022   5.855 -0.1185 -0.0088  0.9685
   32DOPE   C23 4035   4.796   3.307   5.564  0.8490 -0.1903 -0.8896
   32DOPE   H3R 4036   4.749   3.403   5.592  0.1001 -0.8879  0.3148
   32DOPE   H3S 4037   4.898   3.326   5.524  0.6083  0.5689 -1.1606
   32DOPE   C24 4038   4.793   3.208   5.673 -0.8420 -0.0603 -0.4559
   32DOPE   H4R 4039   4.898   3.209   5.708 -1.6126 -0.5939  2.1425
   32DOPE   H4S 4040   4.773   3.106   5.634  1.3251 -0.8856  0.4343
   32DOPE   C25 4041   4.696   3.246   5.790 -0.2138 -0.4979  0.3316
   32DOPE   H5R 4042   4.590   3.222   5.764 -0.4377  0.1991  0.5766
   32DOPE   H5S 4043   4.704   3.357   5.790 -0.0905 -0.4504 -2.0394
   32DOPE   C26 4044   4.724   3.196   5.932  1.2154  0.0897 -0.2029
   32DOPE   H6R 4045   4.826   3.230   5.958  1.3110 -0.8798  0.7647
   32DOPE   H6S 4046   4.713   3.086   5.921 -0.6072  0.1945  0.1397
   32DOPE   C27 4047   4.615   3.248   6.034 -0.2565 -0.3352  0.2481
   32DOPE   H7R 4048   4.516   3.213   5.998  0.1453  0.0601 -1.3229
   32DOPE   H7S 4049   4.618   3.355   6.004 -0.1134 -0.4337 -0.0899
   32DOPE   C28 4050   4.653   3.236   6.182  0.2975 -0.2770  0.0622
   32DOPE   H8R 4051   4.618   3.314   6.254 -0.2422 -0.8366  0.4119
   32DOPE   H8S 4052   4.762   3.254   6.184  0.0316  1.6244 -0.3586
   32DOPE   C29 4053   4.634   3.097   6.226 -0.2293  0.3698  0.3155
   32DOPE   H9R 4054   4.610   3.020   6.151  0.8599  1.2152 -0.9490
   32DOPE  C210 4055   4.652   3.053   6.350 -0.0250  0.2180 -0.3415
   32DOPE  H10R 4056   4.631   2.947   6.370  1.0860 -0.5397 -2.8782
   32DOPE  C211 4057   4.688   3.134   6.472 -0.2874 -0.0509 -0.6409
   32DOPE  H11R 4058   4.612   3.107   6.548 -0.0501 -0.0723 -0.4102
   32DOPE  H11S 4059   4.679   3.244   6.457  2.4796  0.2876 -0.4003
   32DOPE  C212 4060   4.829   3.091   6.523  0.1611 -0.0924 -0.1627
   32DOPE  H12R 4061   4.861   3.174   6.588 -1.1391  2.0178 -2.0814
   32DOPE  H12S 4062   4.894   3.084   6.433  0.3199 -1.3087  0.0225
   32DOPE  C213 4063   4.817   2.956   6.589  0.0052 -0.8675  0.6380
   32DOPE  H13R 4064   4.770   2.884   6.518 -0.4548 -0.8081  0.8790
   32DOPE  H13S 4065   4.744   2.973   6.671  0.0602 -0.1712  0.5485
   32DOPE  C214 4066   4.943   2.902   6.664 -0.9915 -0.7927  0.0528
   32DOPE  H14R 4067   4.985   2.982   6.728 -0.7974  1.9637 -3.2253
   32DOPE  H14S 4068   5.021   2.887   6.586 -0.7513  0.5194  0.0238
   32DOPE  C215 4069   4.922   2.772   6.740 -0.0334 -0.1530  0.6574
   32DOPE  H15R 4070   4.884   2.706   6.659  1.1858  0.0299 -0.0873
   32DOPE  H15S 4071   4.843   2.784   6.818 -0.5893 -0.1971  0.1092
   32DOPE  C216 4072   5.055   2.710   6.785  0.6686 -0.2706 -0.0675
   32DOPE  H16R 4073   5.094   2.779   6.863 -0.6309  0.7141 -0.2586
   32DOPE  H16S 4074   5.132   2.714   6.706  0.1358  3.1350 -0.5918
   32DOPE  C217 4075   5.044   2.571   6.852  0.8201  0.4070  0.0643
   32DOPE  H17R 4076   5.020   2.498   6.772  0.5651 -0.5948  1.0316
   32DOPE  H17S 4077   4.954   2.567   6.917  0.0372  4.2734 -0.4993
   32DOPE  C218 4078   5.166   2.534   6.937 -0.5888 -0.2169 -0.0582
   32DOPE  H18R 4079   5.187   2.624   7.000  1.4701 -0.0815 -0.8586
   32DOPE  H18S 4080   5.259   2.528   6.876 -1.3872  1.8982 -1.5690
   32DOPE  H18T 4081   5.150   2.446   7.003 -0.1013 -0.0019  0.3581
   32DOPE   C33 4082   4.234   3.104   5.971  0.0051 -0.2228  0.2543
   32DOPE   H3X 4083   4.127   3.112   5.941 -0.0289  1.4440  0.7745
   32DOPE   H3Y 4084   4.275   3.206   5.955 -0.5661  0.0003  0.1832
   32DOPE   C34 4085   4.255   3.041   6.109  0.8584  0.1536 -0.8516
   32DOPE   H4X 4086   4.356   2.998   6.121  2.1072  3.4686  2.3072
   32DOPE   H4Y 4087   4.239   3.112   6.193  1.9857 -1.0738  0.4604
   32DOPE   C35 4088   4.167   2.913   6.124  0.5432  0.0294 -0.2957
   32DOPE   H5X 4089   4.207   2.835   6.055 -1.5507  0.4247 -2.0903
   32DOPE   H5Y 4090   4.065   2.934   6.084  1.7734  2.1341 -2.6618
   32DOPE   C36 4091   4.156   2.859   6.264 -0.0345 -0.6828  0.1100
   32DOPE   H6X 4092   4.125   2.941   6.332 -0.0286 -0.8119  0.2674
   32DOPE   H6Y 4093   4.257   2.825   6.295  0.4328 -1.1435 -1.7819
   32DOPE   C37 4094   4.057   2.747   6.269  0.4224 -0.4308  0.1733
   32DOPE   H7X 4095   3.962   2.786   6.227  0.3586  1.4641  1.9335
   32DOPE   H7Y 4096   4.083   2.664   6.200 -0.3857 -0.4293 -0.1402
   32DOPE   C38 4097   4.040   2.687   6.415 -0.4455  0.5117 -0.0126
   32DOPE   H8X 4098   4.020   2.779   6.474  0.6433  0.3141  0.7048
   32DOPE   H8Y 4099   4.140   2.653   6.450 -1.3423 -1.2445  0.9847
   32DOPE   C39 4100   3.929   2.583   6.420 -0.3797 -0.0195  0.8210
   32DOPE   H9X 4101   3.943   2.486   6.369 -3.4843 -0.1167 -0.0803
   32DOPE  C310 4102   3.813   2.596   6.485 -0.0508 -0.2373  0.4127
   32DOPE  H10X 4103   3.747   2.512   6.461 -1.3296  1.3268 -1.9583
   32DOPE  C311 4104   3.736   2.712   6.547  0.1005  0.1761 -0.2432
   32DOPE  H11X 4105   3.697   2.683   6.647  1.0137  1.3047  0.4778
   32DOPE  H11Y 4106   3.796   2.806   6.557 -1.0652  1.0590 -1.3115
   32DOPE  C312 4107   3.601   2.743   6.471 -0.7410  0.1387  0.1622
   32DOPE  H12X 4108   3.547   2.829   6.518 -0.9071  0.5909 -0.8403
   32DOPE  H12Y 4109   3.538   2.652   6.480 -1.1953  0.3711 -0.6425
   32DOPE  C313 4110   3.626   2.776   6.326 -1.1284 -0.0350  0.0631
   32DOPE  H13X 4111   3.696   2.862   6.332  0.5691 -1.3555 -0.0344
   32DOPE  H13Y 4112   3.680   2.696   6.271 -0.1409  0.6072  0.0741
   32DOPE  C314 4113   3.495   2.793   6.242 -0.2679 -0.3983 -0.6623
   32DOPE  H14X 4114   3.443   2.879   6.289  2.3951  1.4038 -0.8119
   32DOPE  H14Y 4115   3.449   2.692   6.235  0.8317 -1.1747  1.9205
   32DOPE  C315 4116   3.530   2.836   6.098  0.1524 -0.2282  0.5339
   32DOPE  H15X 4117   3.600   2.763   6.053  1.0309  0.2402  1.1237
   32DOPE  H15Y 4118   3.575   2.937   6.091  0.4016 -0.4178 -0.7316
   32DOPE  C316 4119   3.406   2.832   6.016  0.5338 -0.4416  0.3407
   32DOPE  H16X 4120   3.336   2.910   6.049 -1.4041 -0.4276 -3.3224
   32DOPE  H16Y 4121   3.364   2.729   6.015  1.9661 -1.0855 -1.9147
   32DOPE  C317 4122   3.423   2.856   5.862  0.4931  0.1435  0.2255
   32DOPE  H17X 4123   3.457   2.961   5.848 -0.0553  0.2759 -0.1195
   32DOPE  H17Y 4124   3.506   2.792   5.826  2.8063  2.3032  1.3558
   32DOPE  C318 4125   3.294   2.817   5.793  0.0867  0.2615  0.2028
   32DOPE  H18X 4126   3.262   2.713   5.817 -0.8000  0.0710 -1.6327
   32DOPE  H18Y 4127   3.217   2.897   5.805 -0.1265 -0.0451  0.9057
   32DOPE  H18Z 4128   3.319   2.812   5.685 -0.2472  0.6345  0.1043
   33DOPE     N 4129   2.649   2.428   5.327 -0.2946 -0.5727 -0.0377
   33DOPE   HN1 4130   2.721   2.490   5.286 -2.0457  1.2615 -0.5138
   33DOPE   HN2 4131   2.636   2.344   5.267 -0.7053 -0.0869 -0.6363
   33DOPE   HN3 4132   2.559   2.481   5.330  1.7407  3.1544  0.4086
   33DOPE   C12 4133   2.700   2.416   5.469  0.0042  0.1692 -0.1570
   33DOPE  H12A 4134   2.629   2.350   5.525  0.1484  0.6943  0.6650
   33DOPE  H12B 4135   2.716   2.518   5.511 -1.0098  0.6504 -0.8882
   33DOPE   C11 4136   2.835   2.341   5.486 -0.3949  0.4331  0.4104
   33DOPE  H11A 4137   2.821   2.235   5.453  0.7670  0.0354  1.1457
   33DOPE  H11B 4138   2.872   2.333   5.590  1.4137 -1.3568 -0.2877
   33DOPE     P 4139   2.988   2.545   5.401  0.0905  0.1481  0.0240
   33DOPE   O13 4140   2.902   2.619   5.306  0.0472 -0.2857  0.0215
   33DOPE   O14 4141   3.135   2.557   5.377  0.7192  0.8286  0.1500
   33DOPE   O11 4142   2.961   2.611   5.541  0.4272 -0.6151 -0.1710
   33DOPE   O12 4143   2.942   2.389   5.403 -0.1981 -0.0671 -0.5422
   33DOPE    C1 4144   3.019   2.570   5.664 -0.1151 -0.1517  0.0061
   33DOPE    HA 4145   3.129   2.588   5.665 -0.3115  1.1233  0.0380
   33DOPE    HB 4146   3.004   2.461   5.679 -2.8173  0.4219  2.4194
   33DOPE    C2 4147   2.950   2.632   5.790  0.0223  0.3662  0.6715
   33DOPE    HS 4148   2.962   2.741   5.777  0.2014  0.1634 -1.0833
   33DOPE   O21 4149   3.016   2.588   5.911 -0.0346 -0.5985  0.2002
   33DOPE   C21 4150   2.999   2.668   6.012 -0.2103 -0.3496  0.4851
   33DOPE   O22 4151   2.934   2.769   6.015  0.2188 -0.5346 -0.0651
   33DOPE   C22 4152   3.093   2.605   6.119 -0.8819  0.5004 -0.3203
   33DOPE   H2R 4153   3.187   2.598   6.061 -1.4377 -3.3640 -0.9816
   33DOPE   H2S 4154   3.062   2.502   6.146 -0.1147  0.1136 -0.8779
   33DOPE    C3 4155   2.799   2.595   5.792 -0.4438  0.3786 -0.0200
   33DOPE    HX 4156   2.756   2.625   5.694 -0.0350 -1.0325 -0.6530
   33DOPE    HY 4157   2.748   2.655   5.871 -1.0090 -0.6473  0.4075
   33DOPE   O31 4158   2.781   2.452   5.809 -0.0250  0.4171  0.1791
   33DOPE   C31 4159   2.755   2.410   5.939 -0.5526  0.7357  0.2615
   33DOPE   O32 4160   2.755   2.482   6.038 -0.1039 -0.1087  0.6650
   33DOPE   C32 4161   2.735   2.255   5.957 -0.3357  0.6614 -0.6196
   33DOPE   H2X 4162   2.732   2.203   5.859  0.1896 -0.7667  0.0915
   33DOPE   H2Y 4163   2.823   2.209   6.007 -1.6007 -1.1107  0.1112
   33DOPE   C23 4164   3.096   2.690   6.247 -0.1471 -0.1060  0.2255
   33DOPE   H3R 4165   2.999   2.682   6.300  0.5501  1.2937  1.8262
   33DOPE   H3S 4166   3.123   2.798   6.238 -1.1360  0.1556  0.2762
   33DOPE   C24 4167   3.184   2.634   6.350 -0.7791  0.3764  0.1183
   33DOPE   H4R 4168   3.287   2.676   6.351  0.1680 -1.6840 -1.6329
   33DOPE   H4S 4169   3.202   2.527   6.325  0.0247  0.6418 -0.4928
   33DOPE   C25 4170   3.125   2.652   6.493 -0.0471 -0.4382 -0.0212
   33DOPE   H5R 4171   3.020   2.615   6.502 -0.6610  0.7389 -1.8903
   33DOPE   H5S 4172   3.131   2.757   6.526 -0.4027  0.3529 -2.2903
   33DOPE   C26 4173   3.201   2.570   6.598 -0.4771 -0.0042 -0.2180
   33DOPE   H6R 4174   3.307   2.598   6.617 -0.0155 -1.4865 -0.4262
   33DOPE   H6S 4175   3.204   2.464   6.563 -0.3016 -0.0620 -0.0365
   33DOPE   C27 4176   3.122   2.569   6.733 -0.6070  0.0666 -0.9814
   33DOPE   H7R 4177   3.014   2.548   6.725 -0.5159 -1.2821  0.7015
   33DOPE   H7S 4178   3.123   2.673   6.773 -0.7776 -0.1956 -0.2724
   33DOPE   C28 4179   3.184   2.474   6.841 -0.2671 -0.0593 -0.3810
   33DOPE   H8R 4180   3.135   2.494   6.938  0.7182  0.4208  0.0236
   33DOPE   H8S 4181   3.292   2.493   6.855 -0.3818 -1.1360  2.5600
   33DOPE   C29 4182   3.170   2.323   6.813  1.0325 -0.8228  0.0298
   33DOPE   H9R 4183   3.264   2.274   6.782  0.7911 -2.5548  1.8400
   33DOPE  C210 4184   3.065   2.247   6.839 -0.0744  0.2730 -0.3095
   33DOPE  H10R 4185   3.071   2.145   6.800  1.4876  0.5768 -0.9153
   33DOPE  C211 4186   2.944   2.288   6.920 -0.4683 -0.3222 -0.0834
   33DOPE  H11R 4187   2.845   2.270   6.873 -0.3851 -0.9688 -0.0142
   33DOPE  H11S 4188   2.957   2.395   6.947  0.3927 -1.2075  3.5475
   33DOPE  C212 4189   2.940   2.205   7.049 -0.2208 -0.2556  0.4851
   33DOPE  H12R 4190   3.027   2.248   7.104  0.4001  2.2468 -2.2101
   33DOPE  H12S 4191   2.949   2.095   7.035 -2.1053 -0.4701  0.6548
   33DOPE  C213 4192   2.815   2.229   7.131 -0.5840  0.0061  0.0312
   33DOPE  H13R 4193   2.724   2.195   7.076 -3.7804  3.2562  2.8315
   33DOPE  H13S 4194   2.801   2.338   7.145  0.1329  0.0682  0.3140
   33DOPE  C214 4195   2.814   2.167   7.269 -0.5775  0.2203  0.1938
   33DOPE  H14R 4196   2.814   2.056   7.261  1.2630  0.0585  1.7113
   33DOPE  H14S 4197   2.723   2.201   7.324 -0.4669  1.3168 -0.2794
   33DOPE  C215 4198   2.941   2.208   7.351 -0.6683  0.7325 -0.1152
   33DOPE  H15R 4199   2.959   2.317   7.342 -0.1513  0.6362 -0.3257
   33DOPE  H15S 4200   3.030   2.156   7.307  0.8182  0.9473  2.4289
   33DOPE  C216 4201   2.937   2.165   7.497  0.6614 -0.4927 -0.7152
   33DOPE  H16R 4202   3.031   2.177   7.554  0.8560 -1.9354 -0.6980
   33DOPE  H16S 4203   2.913   2.056   7.500  0.8515 -0.5213  0.5320
   33DOPE  C217 4204   2.829   2.247   7.581  0.0523 -0.3754  0.0724
   33DOPE  H17R 4205   2.811   2.200   7.680 -0.2323 -1.8051 -0.6298
   33DOPE  H17S 4206   2.741   2.247   7.513  0.6377  0.5930 -0.7097
   33DOPE  C218 4207   2.865   2.398   7.608  0.0662 -0.9826  0.0191
   33DOPE  H18R 4208   2.945   2.396   7.686  2.0478 -0.8704 -1.9171
   33DOPE  H18S 4209   2.778   2.459   7.639  0.6673 -0.3163  0.4360
   33DOPE  H18T 4210   2.904   2.450   7.518 -1.4804  0.0576 -0.0959
   33DOPE   C33 4211   2.599   2.217   6.031 -0.1889 -0.3675 -0.0852
   33DOPE   H3X 4212   2.508   2.264   5.987  0.2976  0.3190 -0.3776
   33DOPE   H3Y 4213   2.609   2.248   6.137 -1.0681 -0.8331  0.1469
   33DOPE   C34 4214   2.581   2.064   6.037 -0.4113  0.2735  0.1942
   33DOPE   H4X 4215   2.574   2.019   5.935  0.3075 -1.3807  0.8341
   33DOPE   H4Y 4216   2.670   2.016   6.083 -0.4258 -1.0347 -1.0614
   33DOPE   C35 4217   2.460   2.026   6.120 -0.4519 -0.4347 -0.6333
   33DOPE   H5X 4218   2.361   2.054   6.079 -2.2071 -1.0249  2.7732
   33DOPE   H5Y 4219   2.481   2.082   6.214 -0.0893  0.4209 -1.2197
   33DOPE   C36 4220   2.453   1.873   6.172 -0.0556  0.3268 -0.3231
   33DOPE   H6X 4221   2.540   1.854   6.238  1.3001  2.1987 -1.4722
   33DOPE   H6Y 4222   2.457   1.799   6.089  0.5561  0.0161 -0.0199
   33DOPE   C37 4223   2.331   1.844   6.262 -0.0421  0.2117 -0.1484
   33DOPE   H7X 4224   2.242   1.844   6.196 -1.3754 -0.0747  1.5856
   33DOPE   H7Y 4225   2.334   1.738   6.293 -2.9590  0.3063  0.7763
   33DOPE   C38 4226   2.311   1.932   6.387  0.7815 -0.2285 -0.0417
   33DOPE   H8X 4227   2.280   2.022   6.330 -0.9758 -0.8456 -0.1344
   33DOPE   H8Y 4228   2.411   1.953   6.429  0.5419  2.0594 -0.4794
   33DOPE   C39 4229   2.216   1.872   6.486  0.4602  0.2024  0.2351
   33DOPE   H9X 4230   2.113   1.904   6.469 -0.1781 -1.9033 -0.0756
   33DOPE  C310 4231   2.240   1.774   6.571 -0.2177  0.4554 -0.2422
   33DOPE  H10X 4232   2.167   1.730   6.641 -0.7787  3.8909  1.5784
   33DOPE  C311 4233   2.371   1.697   6.589 -0.4726 -0.1220 -0.0594
   33DOPE  H11X 4234   2.450   1.721   6.515  0.1556 -0.1492  0.5970
   33DOPE  H11Y 4235   2.397   1.710   6.696 -1.3908 -0.3315  0.2048
   33DOPE  C312 4236   2.356   1.547   6.559  0.2439  0.3650  0.8676
   33DOPE  H12X 4237   2.317   1.550   6.455  0.8576  1.5570  0.6484
   33DOPE  H12Y 4238   2.281   1.503   6.628 -1.7856  0.9548 -0.8466
   33DOPE  C313 4239   2.481   1.457   6.546 -0.3088 -0.2525  0.2356
   33DOPE  H13X 4240   2.450   1.356   6.510  1.4526 -0.2255 -1.5497
   33DOPE  H13Y 4241   2.552   1.489   6.466 -0.9138 -1.0364 -0.6431
   33DOPE  C314 4242   2.568   1.457   6.677  0.0519 -0.3703 -0.8282
   33DOPE  H14X 4243   2.516   1.380   6.737  1.3149  0.9533  2.1936
   33DOPE  H14Y 4244   2.565   1.561   6.717  0.2623 -0.9040  0.6623
   33DOPE  C315 4245   2.718   1.430   6.657 -0.0406  0.0401 -0.1999
   33DOPE  H15X 4246   2.765   1.524   6.621  1.3701 -0.5032  0.1621
   33DOPE  H15Y 4247   2.731   1.352   6.579 -0.2065  0.0244 -0.2137
   33DOPE  C316 4248   2.796   1.392   6.793 -0.0958  0.1168  0.7424
   33DOPE  H16X 4249   2.762   1.440   6.887 -3.0653 -2.0507  0.9230
   33DOPE  H16Y 4250   2.902   1.422   6.782 -0.2346  0.3092 -0.1359
   33DOPE  C317 4251   2.795   1.238   6.811 -0.1016 -0.5352  0.5268
   33DOPE  H17X 4252   2.834   1.208   6.910  1.5668 -3.6381 -0.9493
   33DOPE  H17Y 4253   2.688   1.208   6.812 -0.3792  0.3038  2.8877
   33DOPE  C318 4254   2.877   1.158   6.708 -0.0004  0.6987  0.3066
   33DOPE  H18X 4255   2.972   1.216   6.707 -0.9435  2.4774  2.8746
   33DOPE  H18Y 4256   2.883   1.053   6.746 -0.3800  0.9617  1.1173
   33DOPE  H18Z 4257   2.824   1.155   6.610 -2.0750 -0.5014  1.4027
   34DOPE     N 4258   2.595   4.176   5.736  0.0009 -0.0183 -0.2803
   34DOPE   HN1 4259   2.619   4.142   5.831 -0.0152  0.1384 -0.2212
   34DOPE   HN2 4260   2.679   4.165   5.675  1.0571  1.2168  0.8901
   34DOPE   HN3 4261   2.554   4.271   5.735  0.2771  0.1163  0.5532
   34DOPE   C12 4262   2.488   4.093   5.673  0.8508  0.5474  0.0757
   34DOPE  H12A 4263   2.533   4.012   5.612  0.4344 -0.9593  1.6479
   34DOPE  H12B 4264   2.434   4.171   5.616 -0.6236 -0.0343  0.6178
   34DOPE   C11 4265   2.396   4.032   5.779 -0.7169 -0.3370 -0.0973
   34DOPE  H11A 4266   2.298   4.001   5.735 -0.8754 -0.7299  0.5115
   34DOPE  H11B 4267   2.381   4.116   5.850  4.5200  2.1930 -1.5197
   34DOPE     P 4268   2.445   3.777   5.837  0.1059  0.3317  0.0977
   34DOPE   O13 4269   2.544   3.699   5.911 -0.5797 -0.1905  0.0019
   34DOPE   O14 4270   2.424   3.735   5.699  0.2565 -0.4958  0.0752
   34DOPE   O11 4271   2.303   3.763   5.905 -0.3519  0.5644  0.3001
   34DOPE   O12 4272   2.470   3.931   5.851 -0.3865 -0.0871 -0.7169
   34DOPE    C1 4273   2.253   3.852   6.005 -0.2170 -0.4555  0.4169
   34DOPE    HA 4274   2.158   3.895   5.967  1.1550  2.5138  0.0510
   34DOPE    HB 4275   2.322   3.937   6.027  0.6303 -0.6279 -1.3655
   34DOPE    C2 4276   2.219   3.782   6.131 -0.1803  0.3116 -0.2459
   34DOPE    HS 4277   2.178   3.858   6.202  1.4207  1.0886 -0.1155
   34DOPE   O21 4278   2.327   3.709   6.197 -0.1908 -0.2110  0.0510
   34DOPE   C21 4279   2.426   3.787   6.237  0.0033 -0.2605 -0.1788
   34DOPE   O22 4280   2.430   3.908   6.223  0.1541  0.4274  0.2623
   34DOPE   C22 4281   2.532   3.698   6.289 -0.1279 -0.0895 -0.1764
   34DOPE   H2R 4282   2.591   3.644   6.212 -0.2236  0.0752 -0.3645
   34DOPE   H2S 4283   2.474   3.613   6.332  0.2638 -1.0239 -1.4416
   34DOPE    C3 4284   2.103   3.678   6.105  0.5263  0.5029 -0.0903
   34DOPE    HX 4285   2.145   3.597   6.042 -0.6613  2.1644 -3.2165
   34DOPE    HY 4286   2.019   3.729   6.053 -0.2504  0.0069  0.6378
   34DOPE   O31 4287   2.051   3.628   6.236 -0.4074  0.0341 -0.1277
   34DOPE   C31 4288   1.969   3.526   6.218  0.0939  0.2524 -0.3124
   34DOPE   O32 4289   1.930   3.485   6.110 -0.9550  0.0116 -0.2197
   34DOPE   C32 4290   1.937   3.453   6.349  0.0816  0.0400 -0.0531
   34DOPE   H2X 4291   1.862   3.517   6.401 -1.6700 -1.5851 -0.4859
   34DOPE   H2Y 4292   1.899   3.354   6.317  0.8019 -0.2035 -0.1867
   34DOPE   C23 4293   2.628   3.768   6.384  0.2643 -0.5712  0.5299
   34DOPE   H3R 4294   2.669   3.851   6.322 -0.8463  0.4014  1.0591
   34DOPE   H3S 4295   2.717   3.710   6.420  2.5555  1.3199 -1.6832
   34DOPE   C24 4296   2.571   3.846   6.505 -0.4563  0.1425 -0.3895
   34DOPE   H4R 4297   2.496   3.782   6.556 -0.6002  0.0976 -0.6547
   34DOPE   H4S 4298   2.505   3.927   6.467  1.3700  1.0590 -1.7555
   34DOPE   C25 4299   2.670   3.907   6.608  0.0906 -0.2692 -0.1521
   34DOPE   H5R 4300   2.706   4.007   6.577 -2.4884  0.8351  0.1654
   34DOPE   H5S 4301   2.758   3.839   6.608  1.0148  0.8277 -2.2983
   34DOPE   C26 4302   2.607   3.914   6.747  0.5820 -0.5697  0.5032
   34DOPE   H6R 4303   2.596   3.810   6.784 -3.0325 -1.0494 -1.4546
   34DOPE   H6S 4304   2.501   3.942   6.726  1.4502  1.5493 -1.5706
   34DOPE   C27 4305   2.676   4.013   6.836 -0.4968 -0.4581  0.8405
   34DOPE   H7R 4306   2.692   4.107   6.779  1.0487 -0.0147  1.9318
   34DOPE   H7S 4307   2.780   3.976   6.845  0.0167  1.3890  3.6481
   34DOPE   C28 4308   2.612   4.028   6.971  0.2057  0.0001  0.5165
   34DOPE   H8R 4309   2.616   3.926   7.017  0.1236 -0.9752 -1.5089
   34DOPE   H8S 4310   2.509   4.068   6.957  0.6443  1.3224  0.9768
   34DOPE   C29 4311   2.690   4.121   7.062  0.3666  0.2134  0.2945
   34DOPE   H9R 4312   2.728   4.206   7.004 -2.7792  0.1414 -2.1660
   34DOPE  C210 4313   2.721   4.104   7.191  0.2627  0.5837 -0.3549
   34DOPE  H10R 4314   2.776   4.186   7.239 -3.8064  1.9234  2.6564
   34DOPE  C211 4315   2.685   3.987   7.284  0.6666  0.0047 -0.0163
   34DOPE  H11R 4316   2.782   3.950   7.323  1.6404  1.3695 -1.0254
   34DOPE  H11S 4317   2.637   3.901   7.233  2.3556 -3.2692  3.3851
   34DOPE  C212 4318   2.592   4.024   7.402  0.2057  0.3659 -0.5946
   34DOPE  H12R 4319   2.504   4.070   7.354  0.1380 -0.4770 -1.2979
   34DOPE  H12S 4320   2.636   4.098   7.472 -0.7115  0.2262  0.1521
   34DOPE  C213 4321   2.558   3.895   7.490 -0.7610 -0.7041 -0.4025
   34DOPE  H13R 4322   2.663   3.868   7.515 -0.2110 -0.1349 -2.0052
   34DOPE  H13S 4323   2.513   3.813   7.431 -0.9079 -1.6275  0.9356
   34DOPE  C214 4324   2.474   3.936   7.612 -0.4386 -0.0743 -0.0631
   34DOPE  H14R 4325   2.496   4.034   7.660 -0.2090  0.0723 -0.4541
   34DOPE  H14S 4326   2.499   3.860   7.689 -1.7437  0.6126  1.0844
   34DOPE  C215 4327   2.329   3.930   7.577 -0.7641 -0.2229  0.4125
   34DOPE  H15R 4328   2.312   3.824   7.547  0.7335 -0.4837  0.3806
   34DOPE  H15S 4329   2.303   3.992   7.489  0.7215  0.9707  0.7665
   34DOPE  C216 4330   2.233   3.989   7.684  0.1644  0.0021  1.2403
   34DOPE  H16R 4331   2.131   4.006   7.643  0.2684 -0.0951  0.9375
   34DOPE  H16S 4332   2.266   4.090   7.715 -2.8721  1.0818  1.2912
   34DOPE  C217 4333   2.228   3.894   7.800 -0.3244  0.0121  1.1347
   34DOPE  H17R 4334   2.332   3.893   7.840  0.1277  0.3305  0.0090
   34DOPE  H17S 4335   2.192   3.796   7.764 -0.1344  0.2121  0.3899
   34DOPE  C218 4336   2.138   3.933   7.915 -0.5109 -0.4326 -0.1425
   34DOPE  H18R 4337   2.157   3.863   7.999  0.4705  0.6372  0.5679
   34DOPE  H18S 4338   2.029   3.925   7.891 -0.3890  1.5701 -1.6479
   34DOPE  H18T 4339   2.162   4.038   7.945 -0.2971  0.0100 -1.7455
   34DOPE   C33 4340   2.057   3.425   6.442 -0.5060 -0.5289 -0.2904
   34DOPE   H3X 4341   2.083   3.515   6.501 -1.6099 -1.6597  2.0920
   34DOPE   H3Y 4342   2.130   3.397   6.363  0.1790 -1.1480  0.5424
   34DOPE   C34 4343   2.037   3.304   6.530  1.4524  0.0524 -0.1576
   34DOPE   H4X 4344   1.952   3.326   6.599  0.9504  2.0620 -1.3455
   34DOPE   H4Y 4345   2.015   3.208   6.478 -2.1017  0.4571  0.3530
   34DOPE   C35 4346   2.156   3.273   6.626  0.0093  0.3097  0.0939
   34DOPE   H5X 4347   2.178   3.368   6.679 -2.9124  0.5067  1.1311
   34DOPE   H5Y 4348   2.247   3.255   6.565 -0.3188  2.7551 -1.2678
   34DOPE   C36 4349   2.138   3.158   6.728  0.6765 -0.5923  0.2133
   34DOPE   H6X 4350   2.127   3.066   6.667  0.5355 -0.9803  0.8199
   34DOPE   H6Y 4351   2.052   3.167   6.798  1.3092  1.4363  0.8096
   34DOPE   C37 4352   2.254   3.142   6.821 -0.8383 -0.0864 -0.0632
   34DOPE   H7X 4353   2.345   3.122   6.760 -2.4107  0.5249 -2.8278
   34DOPE   H7Y 4354   2.271   3.232   6.883  3.3016 -1.0639  0.5043
   34DOPE   C38 4355   2.236   3.021   6.909  0.3377 -0.3502 -0.2496
   34DOPE   H8X 4356   2.196   2.940   6.845 -0.7821  1.5184 -2.0278
   34DOPE   H8Y 4357   2.157   3.055   6.980 -0.1051 -0.5844 -0.6232
   34DOPE   C39 4358   2.352   2.966   6.991 -0.4063  0.3869 -0.3868
   34DOPE   H9X 4359   2.407   2.886   6.938 -0.9687 -0.6583  0.5835
   34DOPE  C310 4360   2.382   2.990   7.121 -0.3598  0.1496  0.8394
   34DOPE  H10X 4361   2.462   2.926   7.162 -0.6245 -1.0866 -0.4797
   34DOPE  C311 4362   2.319   3.089   7.213 -0.3258  0.6608  0.5583
   34DOPE  H11X 4363   2.392   3.160   7.256  0.4213  0.0665  0.2993
   34DOPE  H11Y 4364   2.247   3.152   7.156 -0.4289  0.1357  0.1046
   34DOPE  C312 4365   2.234   3.030   7.328 -0.6268  0.8184 -0.4381
   34DOPE  H12X 4366   2.167   2.951   7.287  1.0781 -1.8963  1.6810
   34DOPE  H12Y 4367   2.162   3.107   7.364 -2.6372 -0.7678 -0.8691
   34DOPE  C313 4368   2.324   2.977   7.438  0.1015  0.2288 -0.8256
   34DOPE  H13X 4369   2.360   2.876   7.406  3.1747 -0.0136  2.7141
   34DOPE  H13Y 4370   2.407   3.050   7.443 -0.9983  1.4334  0.8247
   34DOPE  C314 4371   2.258   2.965   7.578 -0.1008 -0.3729 -0.1128
   34DOPE  H14X 4372   2.171   2.897   7.570 -0.7493  0.2762  1.1533
   34DOPE  H14Y 4373   2.215   3.061   7.614  0.2800 -0.5396  0.8152
   34DOPE  C315 4374   2.355   2.912   7.682 -0.0013 -0.3425 -0.6583
   34DOPE  H15X 4375   2.444   2.978   7.672 -0.6478  0.5137 -0.8234
   34DOPE  H15Y 4376   2.377   2.804   7.668 -0.9085 -0.6149 -0.0538
   34DOPE  C316 4377   2.296   2.923   7.822  0.5603  0.2618  0.5912
   34DOPE  H16X 4378   2.213   2.852   7.840 -1.3158  1.9026 -1.1188
   34DOPE  H16Y 4379   2.256   3.026   7.831  0.0004  0.2592 -1.5000
   34DOPE  C317 4380   2.411   2.925   7.927  0.6964 -0.5169 -0.1287
   34DOPE  H17X 4381   2.451   2.821   7.923 -2.1001 -1.7120 -3.8595
   34DOPE  H17Y 4382   2.493   2.986   7.884  1.4097 -0.2132  1.5881
   34DOPE  C318 4383   2.374   2.960   8.076 -0.6826  0.5569 -0.1301
   34DOPE  H18X 4384   2.339   2.873   8.135 -0.4952  1.6217  1.6075
   34DOPE  H18Y 4385   2.470   2.993   8.121 -1.1748 -0.1098  1.4605
   34DOPE  H18Z 4386   2.298   3.041   8.085 -1.5642 -0.4899  3.3785
   35DOPE     N 4387   5.147   2.315   4.894 -0.7436 -0.5178  0.5165
   35DOPE   HN1 4388   5.231   2.303   4.954 -0.3274  1.2574  0.3226
   35DOPE   HN2 4389   5.073   2.376   4.933  1.3705  0.5524  3.1483
   35DOPE   HN3 4390   5.127   2.222   4.850 -0.6616 -0.4124  0.2565
   35DOPE   C12 4391   5.207   2.393   4.779 -0.4329 -0.4757  0.1050
   35DOPE  H12A 4392   5.137   2.395   4.693 -0.0013  1.9412 -0.2591
   35DOPE  H12B 4393   5.302   2.343   4.750  0.6448  1.3549  0.3555
   35DOPE   C11 4394   5.235   2.537   4.817  0.4301  0.1197 -0.7812
   35DOPE  H11A 4395   5.136   2.589   4.815  1.1319  1.7516  1.8338
   35DOPE  H11B 4396   5.294   2.596   4.744  0.2677  0.4548 -0.6454
   35DOPE     P 4397   5.359   2.675   5.002  0.4140 -0.1046  0.0701
   35DOPE   O13 4398   5.272   2.795   4.981  0.0146  0.2598  0.5051
   35DOPE   O14 4399   5.490   2.684   4.944 -0.1179  0.5627  0.0159
   35DOPE   O11 4400   5.373   2.651   5.159  0.0533  0.0206  0.7674
   35DOPE   O12 4401   5.285   2.548   4.954 -0.0563  0.3525  0.0214
   35DOPE    C1 4402   5.249   2.620   5.227 -0.2829  0.8999  0.4133
   35DOPE    HA 4403   5.201   2.538   5.171  0.8811 -0.0638  0.7849
   35DOPE    HB 4404   5.195   2.717   5.238  1.2093  1.8352 -0.1484
   35DOPE    C2 4405   5.272   2.574   5.371 -0.0030 -0.1154  1.3611
   35DOPE    HS 4406   5.172   2.577   5.418 -1.9175  2.8620 -2.3470
   35DOPE   O21 4407   5.365   2.660   5.433  0.0496 -0.4685  0.0402
   35DOPE   C21 4408   5.355   2.695   5.554  0.0312 -0.2084 -0.3500
   35DOPE   O22 4409   5.254   2.697   5.620 -0.0114  0.5960  0.2371
   35DOPE   C22 4410   5.494   2.758   5.592 -1.0112  0.3771  0.4824
   35DOPE   H2R 4411   5.477   2.825   5.679  1.6026  0.2419  1.1532
   35DOPE   H2S 4412   5.540   2.813   5.507  2.1906  1.6014  2.8328
   35DOPE    C3 4413   5.316   2.426   5.374 -0.4179  0.7353 -0.5900
   35DOPE    HX 4414   5.418   2.432   5.330  0.6243 -0.9071  1.4374
   35DOPE    HY 4415   5.255   2.363   5.306  1.1350 -4.0906  1.9902
   35DOPE   O31 4416   5.323   2.375   5.516 -0.8232  0.0532 -0.0824
   35DOPE   C31 4417   5.307   2.247   5.537  0.2180  0.1453  1.0663
   35DOPE   O32 4418   5.274   2.164   5.456  0.2204 -0.1418 -0.0263
   35DOPE   C32 4419   5.314   2.217   5.687  0.1374  0.0965  0.4539
   35DOPE   H2X 4420   5.416   2.240   5.725  0.0771 -0.8066  1.1917
   35DOPE   H2Y 4421   5.236   2.277   5.739 -0.9922  0.0406 -1.1259
   35DOPE   C23 4422   5.591   2.647   5.637 -0.1582  0.1026  0.5920
   35DOPE   H3R 4423   5.686   2.697   5.667 -1.7621  2.8304  1.4950
   35DOPE   H3S 4424   5.616   2.590   5.545  0.3825  0.2071  0.6717
   35DOPE   C24 4425   5.555   2.557   5.753  0.2765 -0.1640  0.0986
   35DOPE   H4R 4426   5.650   2.502   5.765  0.2731  0.1477  1.7022
   35DOPE   H4S 4427   5.473   2.487   5.726 -0.4668  0.3144  1.0724
   35DOPE   C25 4428   5.514   2.642   5.876  0.4698  1.1609  0.0396
   35DOPE   H5R 4429   5.406   2.668   5.868 -0.1045 -0.9913 -0.0192
   35DOPE   H5S 4430   5.578   2.730   5.896 -1.4142  2.0814  2.6372
   35DOPE   C26 4431   5.518   2.545   5.992 -0.0403 -0.1566 -0.2076
   35DOPE   H6R 4432   5.603   2.475   5.978  0.7250  0.6260  0.4006
   35DOPE   H6S 4433   5.425   2.484   5.995 -0.1389  0.0271  1.4168
   35DOPE   C27 4434   5.537   2.622   6.126 -0.2963  0.2810  0.0208
   35DOPE   H7R 4435   5.490   2.721   6.114  1.3194  1.0220 -0.4704
   35DOPE   H7S 4436   5.642   2.651   6.144 -0.2529  0.4195 -0.4513
   35DOPE   C28 4437   5.467   2.540   6.240  0.0483 -0.5468 -0.5771
   35DOPE   H8R 4438   5.373   2.501   6.196  0.5615 -1.4441 -0.9079
   35DOPE   H8S 4439   5.446   2.598   6.333 -0.8062 -1.5306 -0.1398
   35DOPE   C29 4440   5.548   2.413   6.269 -0.2527 -0.6338  0.0246
   35DOPE   H9R 4441   5.627   2.396   6.195  0.9159  0.5319  0.9612
   35DOPE  C210 4442   5.526   2.320   6.366  0.1335 -0.2421 -0.4851
   35DOPE  H10R 4443   5.610   2.250   6.383  1.4247  1.6461  1.4253
   35DOPE  C211 4444   5.422   2.326   6.476 -0.1760  0.5334 -0.1164
   35DOPE  H11R 4445   5.370   2.229   6.482  0.3915  0.2819  0.9373
   35DOPE  H11S 4446   5.349   2.397   6.432 -1.4333 -1.0597 -0.6742
   35DOPE  C212 4447   5.472   2.377   6.613 -0.2926  0.1299 -0.4254
   35DOPE  H12R 4448   5.378   2.369   6.671  0.5899 -0.3889  0.9958
   35DOPE  H12S 4449   5.490   2.487   6.603 -2.2878  0.4359 -1.1663
   35DOPE  C213 4450   5.589   2.297   6.674 -0.6591 -0.4274  0.5682
   35DOPE  H13R 4451   5.674   2.300   6.602 -1.0363 -1.6412  0.0381
   35DOPE  H13S 4452   5.566   2.188   6.676 -1.0820 -0.3732 -0.4853
   35DOPE  C214 4453   5.622   2.346   6.816 -0.1081 -0.5056  0.2120
   35DOPE  H14R 4454   5.531   2.387   6.865 -0.6746 -0.2599 -1.0253
   35DOPE  H14S 4455   5.698   2.427   6.815  0.3116 -0.8568  1.3448
   35DOPE  C215 4456   5.691   2.243   6.898  0.0422  0.0051  0.6422
   35DOPE  H15R 4457   5.788   2.205   6.861  0.7883  0.7229  1.7687
   35DOPE  H15S 4458   5.629   2.152   6.910  0.5832 -0.3365  0.8990
   35DOPE  C216 4459   5.727   2.298   7.037  0.3434  0.9064  0.1554
   35DOPE  H16R 4460   5.632   2.310   7.093 -0.2448 -4.1475  0.6973
   35DOPE  H16S 4461   5.768   2.401   7.023 -0.6576  0.9170 -4.0780
   35DOPE  C217 4462   5.822   2.220   7.119  0.1100 -0.2675 -0.0706
   35DOPE  H17R 4463   5.924   2.243   7.082 -1.4226  0.4367 -4.5329
   35DOPE  H17S 4464   5.799   2.112   7.121 -0.5979 -0.1297 -0.4447
   35DOPE  C218 4465   5.831   2.264   7.269 -0.7514  0.1100  0.7863
   35DOPE  H18R 4466   5.911   2.194   7.303  0.2693 -0.4396 -2.4328
   35DOPE  H18S 4467   5.736   2.244   7.322 -0.5760 -2.2602  0.3109
   35DOPE  H18T 4468   5.859   2.372   7.270  1.0506 -0.2844 -1.0239
   35DOPE   C33 4469   5.284   2.071   5.714 -0.6440  0.5310 -0.7313
   35DOPE   H3X 4470   5.345   1.997   5.658 -2.4746 -1.5252 -0.1258
   35DOPE   H3Y 4471   5.175   2.060   5.693 -0.0854 -1.5902 -2.9656
   35DOPE   C34 4472   5.303   2.035   5.865 -0.0606  0.6683  0.4200
   35DOPE   H4X 4473   5.266   1.933   5.889 -0.2026  1.3236  3.2934
   35DOPE   H4Y 4474   5.409   2.041   5.897 -0.6376 -0.7429  2.7824
   35DOPE   C35 4475   5.223   2.133   5.946  0.1853  0.3127  0.3961
   35DOPE   H5X 4476   5.114   2.125   5.927  0.2903 -0.4872  0.0850
   35DOPE   H5Y 4477   5.270   2.233   5.934 -1.8586  1.2837  0.0032
   35DOPE   C36 4478   5.247   2.076   6.094 -0.2407  0.3641  0.4521
   35DOPE   H6X 4479   5.353   2.087   6.126 -0.4570 -0.3557  1.4580
   35DOPE   H6Y 4480   5.227   1.967   6.087  1.1734  0.0186  1.4108
   35DOPE   C37 4481   5.160   2.151   6.193 -0.1122  0.3393  0.5647
   35DOPE   H7X 4482   5.192   2.256   6.208 -1.3733  0.7599  0.4771
   35DOPE   H7Y 4483   5.062   2.160   6.141 -1.5941  2.1734  3.4244
   35DOPE   C38 4484   5.155   2.065   6.325 -0.1148  0.7093  1.1234
   35DOPE   H8X 4485   5.253   2.064   6.377  0.8808  0.5454 -0.6763
   35DOPE   H8Y 4486   5.143   1.963   6.282 -0.7505  1.4953 -0.6955
   35DOPE   C39 4487   5.038   2.112   6.405 -0.3966  0.3877 -0.2739
   35DOPE   H9X 4488   4.940   2.109   6.355 -0.4385  1.6565 -0.3125
   35DOPE  C310 4489   5.032   2.158   6.530  0.4699  0.2258  0.0231
   35DOPE  H10X 4490   4.934   2.184   6.573 -1.0164  0.3259 -3.1010
   35DOPE  C311 4491   5.149   2.168   6.629  0.2760  0.2220 -0.3041
   35DOPE  H11X 4492   5.233   2.110   6.585 -0.2255 -0.1740 -0.7437
   35DOPE  H11Y 4493   5.175   2.275   6.627  1.8356 -0.1180 -3.9006
   35DOPE  C312 4494   5.122   2.109   6.770  1.2784 -0.2960 -0.2864
   35DOPE  H12X 4495   5.114   2.000   6.752  0.1920 -0.0534 -1.4410
   35DOPE  H12Y 4496   5.025   2.136   6.818  0.9619 -2.2231  0.2359
   35DOPE  C313 4497   5.240   2.139   6.861  0.1042 -0.0477  0.3189
   35DOPE  H13X 4498   5.332   2.103   6.809  0.3233  1.5541 -0.4631
   35DOPE  H13Y 4499   5.249   2.244   6.896 -0.1146 -0.1598  0.7024
   35DOPE  C314 4500   5.238   2.070   6.999 -0.3693  0.2045  1.1033
   35DOPE  H14X 4501   5.235   1.959   6.988  2.4876 -0.1894  3.3389
   35DOPE  H14Y 4502   5.151   2.095   7.063  0.1344  0.4916  1.6793
   35DOPE  C315 4503   5.368   2.113   7.073 -0.9018 -0.2777  0.0638
   35DOPE  H15X 4504   5.372   2.224   7.076  1.0901 -0.2941 -0.3267
   35DOPE  H15Y 4505   5.455   2.070   7.020 -1.7221 -3.1587  0.8657
   35DOPE  C316 4506   5.371   2.044   7.218 -0.0474  0.0586 -0.1918
   35DOPE  H16X 4507   5.466   2.065   7.273 -0.6668 -1.1561  1.4369
   35DOPE  H16Y 4508   5.362   1.934   7.213 -1.9727  0.1289  0.7807
   35DOPE  C317 4509   5.258   2.096   7.310 -0.0492 -0.1938  0.2078
   35DOPE  H17X 4510   5.157   2.070   7.273 -0.1377 -1.8166  1.4669
   35DOPE  H17Y 4511   5.258   2.039   7.406 -2.1540  0.0817  0.4270
   35DOPE  C318 4512   5.249   2.245   7.331 -0.3992 -0.0800  0.1696
   35DOPE  H18X 4513   5.345   2.301   7.344  0.3564 -0.6931 -2.3832
   35DOPE  H18Y 4514   5.195   2.293   7.247 -1.6581  2.6743  2.3651
   35DOPE  H18Z 4515   5.188   2.267   7.421 -1.2816 -1.2868 -0.1205
   36DOPE     N 4516   4.577   4.327   4.935 -0.0294  0.2123 -0.3680
   36DOPE   HN1 4517   4.639   4.403   4.899  0.0588  0.1565 -0.3327
   36DOPE   HN2 4518   4.604   4.231   4.908 -0.1284  0.1379 -0.2021
   36DOPE   HN3 4519   4.477   4.352   4.924 -0.9208 -1.6994  2.3068
   36DOPE   C12 4520   4.600   4.326   5.087 -0.0626 -0.0371  0.7511
   36DOPE  H12A 4521   4.698   4.281   5.112  0.3901  1.1229  1.1772
   36DOPE  H12B 4522   4.517   4.273   5.139 -2.0553  2.5556  0.4457
   36DOPE   C11 4523   4.603   4.472   5.132 -0.5550 -0.3656 -0.2971
   36DOPE  H11A 4524   4.619   4.472   5.242 -1.3498  1.5410 -0.1481
   36DOPE  H11B 4525   4.509   4.528   5.113 -0.9795 -0.9736 -0.0509
   36DOPE     P 4526   4.852   4.582   5.115  0.1180 -0.1355  0.4295
   36DOPE   O13 4527   4.883   4.717   5.065  0.3043  0.3495  0.2124
   36DOPE   O14 4528   4.940   4.471   5.065  0.0610 -0.7440  0.3012
   36DOPE   O11 4529   4.836   4.568   5.269 -0.6475  0.0425 -0.6492
   36DOPE   O12 4530   4.703   4.544   5.062  0.2978 -0.0964 -0.3749
   36DOPE    C1 4531   4.929   4.657   5.340  0.6493  0.2554  0.3116
   36DOPE    HA 4532   4.898   4.761   5.319  0.8714  0.7155  2.0635
   36DOPE    HB 4533   5.037   4.649   5.316  0.5328  0.2685 -0.2268
   36DOPE    C2 4534   4.908   4.659   5.492 -0.1455  1.3801 -0.6582
   36DOPE    HS 4535   4.959   4.750   5.528  0.3820  0.0833  2.1337
   36DOPE   O21 4536   4.975   4.542   5.546  0.1839 -0.0974 -0.3815
   36DOPE   C21 4537   5.106   4.555   5.556 -0.3077 -0.8121  0.0820
   36DOPE   O22 4538   5.173   4.655   5.529  0.2672  0.1685 -0.1839
   36DOPE   C22 4539   5.166   4.422   5.599  0.2965  0.2184 -0.3259
   36DOPE   H2R 4540   5.173   4.348   5.516  0.8725 -1.1066  0.8529
   36DOPE   H2S 4541   5.093   4.376   5.669 -0.8128  0.4321 -1.3194
   36DOPE    C3 4542   4.752   4.662   5.523 -0.0479 -0.0472 -0.0523
   36DOPE    HX 4543   4.714   4.561   5.497 -0.3699 -0.5176  2.0534
   36DOPE    HY 4544   4.723   4.724   5.436 -0.3860  1.4788  1.0979
   36DOPE   O31 4545   4.715   4.717   5.644  0.1386  0.8680 -0.3180
   36DOPE   C31 4546   4.585   4.696   5.677  0.1657 -0.0236 -0.1459
   36DOPE   O32 4547   4.502   4.632   5.621  0.4897  0.5425  0.0352
   36DOPE   C32 4548   4.566   4.761   5.816  0.0870  0.3457  0.0361
   36DOPE   H2X 4549   4.608   4.864   5.812 -0.4954  0.6231  0.7540
   36DOPE   H2Y 4550   4.455   4.763   5.822  0.0221 -1.0097 -0.3147
   36DOPE   C23 4551   5.312   4.447   5.652  0.7529  0.7353 -0.1237
   36DOPE   H3R 4552   5.311   4.526   5.730 -2.3579 -0.3094  1.0491
   36DOPE   H3S 4553   5.365   4.493   5.566  1.1660  0.8426  0.1844
   36DOPE   C24 4554   5.364   4.313   5.700  0.1135 -0.2976  0.2143
   36DOPE   H4R 4555   5.362   4.244   5.613 -3.0154  0.0073 -0.0691
   36DOPE   H4S 4556   5.303   4.271   5.782  0.0794 -1.9552 -0.6204
   36DOPE   C25 4557   5.517   4.317   5.740  0.4679 -0.7111  0.7613
   36DOPE   H5R 4558   5.519   4.378   5.833 -0.0062 -1.7346  1.4532
   36DOPE   H5S 4559   5.575   4.374   5.664  1.1441 -0.0557  1.7482
   36DOPE   C26 4560   5.576   4.175   5.754  0.4394  0.3758 -0.2616
   36DOPE   H6R 4561   5.605   4.129   5.657  2.3173  1.0258 -0.0587
   36DOPE   H6S 4562   5.512   4.106   5.811  1.4929 -1.0343 -0.7233
   36DOPE   C27 4563   5.707   4.169   5.839 -0.3010  0.7972 -0.2363
   36DOPE   H7R 4564   5.764   4.257   5.804  0.6526  0.7264  1.0234
   36DOPE   H7S 4565   5.773   4.082   5.816 -1.9601 -0.7600  0.6190
   36DOPE   C28 4566   5.673   4.157   5.982  0.3077  0.0434 -0.6447
   36DOPE   H8R 4567   5.616   4.066   6.011 -0.8080  0.8045 -0.3435
   36DOPE   H8S 4568   5.603   4.242   5.998  0.0620 -0.2022 -0.3813
   36DOPE   C29 4569   5.794   4.173   6.069 -0.1904  0.7808 -0.1005
   36DOPE   H9R 4570   5.870   4.238   6.023  0.0541 -0.0440 -0.9156
   36DOPE  C210 4571   5.801   4.124   6.190  0.2933  0.1244 -0.0278
   36DOPE  H10R 4572   5.898   4.130   6.241  0.7221  1.5146 -0.9754
   36DOPE  C211 4573   5.695   4.049   6.277 -0.0868 -0.1382 -0.3007
   36DOPE  H11R 4574   5.714   3.940   6.271  0.7861 -0.1275  1.4865
   36DOPE  H11S 4575   5.589   4.063   6.247 -0.6496 -0.6350  1.3694
   36DOPE  C212 4576   5.710   4.090   6.425  0.4878 -0.0141  0.3272
   36DOPE  H12R 4577   5.665   4.190   6.443 -0.3631 -0.5685  1.3850
   36DOPE  H12S 4578   5.817   4.092   6.455  0.3921 -0.6467  0.7327
   36DOPE  C213 4579   5.652   3.990   6.524 -0.1057 -0.6644  0.6729
   36DOPE  H13R 4580   5.686   3.890   6.488 -2.4382 -0.9900 -0.9148
   36DOPE  H13S 4581   5.541   3.981   6.526 -0.0856 -0.7736  2.2008
   36DOPE  C214 4582   5.704   4.020   6.670 -0.0530  0.3647  0.1399
   36DOPE  H14R 4583   5.701   4.130   6.684 -1.8736  0.4960 -1.0346
   36DOPE  H14S 4584   5.812   3.994   6.664  0.0496  0.6400  0.6848
   36DOPE  C215 4585   5.641   3.943   6.780  0.3662 -0.1933  0.0456
   36DOPE  H15R 4586   5.680   3.839   6.779  1.4454  0.1974 -1.7766
   36DOPE  H15S 4587   5.532   3.951   6.760  0.5219 -0.8658 -1.1378
   36DOPE  C216 4588   5.667   3.997   6.923 -0.2247 -0.1589 -0.2654
   36DOPE  H16R 4589   5.632   4.101   6.940 -1.6224 -0.6675  0.1407
   36DOPE  H16S 4590   5.778   4.002   6.922 -0.1363 -1.6569 -0.4763
   36DOPE  C217 4591   5.614   3.913   7.042 -0.1739 -0.8567  0.1060
   36DOPE  H17R 4592   5.632   3.805   7.022 -1.1271 -1.5215  2.5142
   36DOPE  H17S 4593   5.504   3.926   7.049  0.2007  2.6914  1.4791
   36DOPE  C218 4594   5.671   3.955   7.174 -0.1042 -0.2651 -0.0664
   36DOPE  H18R 4595   5.630   3.885   7.250 -0.2841  1.3733  1.4135
   36DOPE  H18S 4596   5.644   4.060   7.198 -0.1005  0.0122 -1.2267
   36DOPE  H18T 4597   5.782   3.955   7.171 -0.0126 -1.4867  1.6540
   36DOPE   C33 4598   4.634   4.679   5.933 -0.3645 -0.0004  1.0685
   36DOPE   H3X 4599   4.741   4.670   5.904 -0.2691  1.4265  0.8918
   36DOPE   H3Y 4600   4.588   4.579   5.916 -0.7764  0.3511  0.0096
   36DOPE   C34 4601   4.627   4.734   6.076 -0.6683  0.5527 -0.3893
   36DOPE   H4X 4602   4.653   4.842   6.076 -0.7299  0.5696 -0.6371
   36DOPE   H4Y 4603   4.517   4.737   6.093 -0.3120  1.2868  2.1749
   36DOPE   C35 4604   4.714   4.655   6.172 -0.3819  0.2518  0.2659
   36DOPE   H5X 4605   4.817   4.643   6.131 -0.6500 -0.6135 -0.1821
   36DOPE   H5Y 4606   4.674   4.552   6.159  1.9968 -0.8197  0.9505
   36DOPE   C36 4607   4.728   4.696   6.322  0.3040  0.6124 -0.2893
   36DOPE   H6X 4608   4.642   4.651   6.376  0.6118  0.1724 -0.1604
   36DOPE   H6Y 4609   4.719   4.806   6.339  0.8325  0.3519  1.9809
   36DOPE   C37 4610   4.855   4.635   6.390 -0.1545 -0.0913 -0.2117
   36DOPE   H7X 4611   4.873   4.529   6.362 -0.1163  0.3614 -2.0070
   36DOPE   H7Y 4612   4.950   4.690   6.370  0.1891 -0.7196 -0.3207
   36DOPE   C38 4613   4.840   4.661   6.543  0.2688  0.3513 -0.6032
   36DOPE   H8X 4614   4.795   4.762   6.552 -0.1365  0.1567 -0.4247
   36DOPE   H8Y 4615   4.943   4.673   6.584  0.9557 -2.3228 -1.2998
   36DOPE   C39 4616   4.754   4.559   6.617 -0.6748 -0.0531  0.5285
   36DOPE   H9X 4617   4.647   4.559   6.591 -0.3598  1.8356 -1.0754
   36DOPE  C310 4618   4.799   4.466   6.704 -0.5381  0.4411  0.1553
   36DOPE  H10X 4619   4.725   4.390   6.734 -0.0090 -1.3745 -2.7778
   36DOPE  C311 4620   4.939   4.458   6.759 -0.1490 -0.4057  0.4180
   36DOPE  H11X 4621   4.962   4.352   6.785  1.2451 -0.2951 -0.2733
   36DOPE  H11Y 4622   5.008   4.492   6.679 -0.9887 -1.2266 -0.6692
   36DOPE  C312 4623   4.967   4.560   6.873 -0.2304 -0.0227  0.3756
   36DOPE  H12X 4624   4.917   4.655   6.845  0.3886  0.0038 -0.7178
   36DOPE  H12Y 4625   5.077   4.572   6.871  0.1116 -2.5770  0.6645
   36DOPE  C313 4626   4.927   4.517   7.017  0.1067  0.0689  0.0757
   36DOPE  H13X 4627   5.009   4.459   7.065  0.2779 -0.8805 -1.2947
   36DOPE  H13Y 4628   4.914   4.607   7.079  0.0120  0.7908 -0.9621
   36DOPE  C314 4629   4.790   4.440   7.031 -0.0011  0.4204  0.5638
   36DOPE  H14X 4630   4.798   4.351   6.966  3.3797 -0.5256  2.0814
   36DOPE  H14Y 4631   4.706   4.498   6.984  0.4886 -0.7192 -1.9029
   36DOPE  C315 4632   4.748   4.396   7.170  0.1843  0.9634 -0.4818
   36DOPE  H15X 4633   4.801   4.457   7.246 -0.0887 -1.7322  2.0049
   36DOPE  H15Y 4634   4.794   4.298   7.193 -2.0731 -0.2147 -0.7710
   36DOPE  C316 4635   4.593   4.389   7.198 -0.3837  0.4725  0.5476
   36DOPE  H16X 4636   4.531   4.368   7.108 -1.3738 -0.4788  1.4174
   36DOPE  H16Y 4637   4.556   4.486   7.238  0.2186  1.5895 -1.4332
   36DOPE  C317 4638   4.566   4.268   7.290 -0.0468 -0.0370  0.4208
   36DOPE  H17X 4639   4.457   4.258   7.304 -0.1514 -1.1432 -1.0221
   36DOPE  H17Y 4640   4.607   4.179   7.238  0.7184 -0.9967  2.5748
   36DOPE  C318 4641   4.642   4.288   7.424 -0.0795 -0.4978 -0.0958
   36DOPE  H18X 4642   4.749   4.261   7.411 -1.0812 -4.9624 -0.6581
   36DOPE  H18Y 4643   4.629   4.388   7.471  1.5795  0.3621 -1.3527
   36DOPE  H18Z 4644   4.614   4.210   7.497  0.3314 -1.1747 -0.6493
   37DOPE     N 4645   2.356   3.019   5.679 -0.6433 -0.1049 -0.4127
   37DOPE   HN1 4646   2.345   3.032   5.782 -1.0893  0.7513 -0.5546
   37DOPE   HN2 4647   2.322   3.106   5.633 -1.4504  0.1240  0.5708
   37DOPE   HN3 4648   2.295   2.942   5.646  0.9196 -0.6696 -2.1433
   37DOPE   C12 4649   2.497   3.000   5.646 -0.4364  0.7832 -0.3854
   37DOPE  H12A 4650   2.534   2.923   5.716  3.4565  1.1718 -1.7798
   37DOPE  H12B 4651   2.554   3.095   5.660 -0.5870  0.6993  0.9085
   37DOPE   C11 4652   2.521   2.934   5.506 -0.9953 -0.1582 -0.0247
   37DOPE  H11A 4653   2.630   2.913   5.493 -1.5726 -3.2429 -0.6292
   37DOPE  H11B 4654   2.504   3.008   5.425  0.5525  0.1300 -0.1178
   37DOPE     P 4655   2.454   2.755   5.333 -0.1747  0.0426 -0.3731
   37DOPE   O13 4656   2.441   2.608   5.339 -0.8163 -0.6452 -0.2503
   37DOPE   O14 4657   2.573   2.807   5.263 -0.3494  0.3976 -0.1580
   37DOPE   O11 4658   2.323   2.817   5.274  0.0940 -0.0815  0.0866
   37DOPE   O12 4659   2.458   2.807   5.477 -0.0948  0.1980 -0.0055
   37DOPE    C1 4660   2.232   2.898   5.343 -0.3896  0.5640 -0.8626
   37DOPE    HA 4661   2.192   2.975   5.273 -0.8645  1.9142  0.8353
   37DOPE    HB 4662   2.275   2.949   5.432  0.2013  1.2399 -1.5249
   37DOPE    C2 4663   2.114   2.812   5.392  0.0945 -0.1910  0.0857
   37DOPE    HS 4664   2.052   2.884   5.449  0.9860 -0.2483  1.1405
   37DOPE   O21 4665   2.153   2.699   5.464  0.0046  0.3010 -0.2075
   37DOPE   C21 4666   2.188   2.728   5.587  0.1440  0.1483  0.0813
   37DOPE   O22 4667   2.175   2.832   5.651 -0.5411  0.0972 -0.2830
   37DOPE   C22 4668   2.248   2.602   5.643 -0.5700  0.2192  0.7148
   37DOPE   H2R 4669   2.341   2.582   5.585 -1.0110  1.3209 -0.4127
   37DOPE   H2S 4670   2.179   2.518   5.615 -1.1279  1.1495 -0.8190
   37DOPE    C3 4671   2.026   2.773   5.273 -0.3936  0.0015  0.9037
   37DOPE    HX 4672   2.086   2.736   5.188 -3.0129  1.3527 -1.7043
   37DOPE    HY 4673   1.994   2.873   5.235 -1.4109 -1.1620 -1.5023
   37DOPE   O31 4674   1.912   2.699   5.322 -0.0628 -0.4819  0.1426
   37DOPE   C31 4675   1.914   2.570   5.287 -0.1900 -0.0580 -0.1004
   37DOPE   O32 4676   2.007   2.516   5.229 -0.3689 -0.3053  0.0851
   37DOPE   C32 4677   1.787   2.493   5.333 -0.5024  0.3941 -1.2025
   37DOPE   H2X 4678   1.731   2.562   5.399  1.1394 -0.3179  1.0796
   37DOPE   H2Y 4679   1.726   2.460   5.246 -1.6207 -1.0313  0.0556
   37DOPE   C23 4680   2.279   2.605   5.788  0.0666  0.4194 -1.0491
   37DOPE   H3R 4681   2.183   2.626   5.841  1.5124  1.0558  1.5094
   37DOPE   H3S 4682   2.348   2.687   5.820  1.7966 -0.9430 -1.1230
   37DOPE   C24 4683   2.338   2.470   5.848  0.2486 -0.3318 -0.1011
   37DOPE   H4R 4684   2.444   2.460   5.814  0.0672  0.5253 -0.9687
   37DOPE   H4S 4685   2.288   2.377   5.814  1.4292 -1.4903  1.1896
   37DOPE   C25 4686   2.330   2.477   6.002 -0.4491 -0.2475  0.4197
   37DOPE   H5R 4687   2.373   2.383   6.043  0.3171  0.0720  0.3610
   37DOPE   H5S 4688   2.223   2.476   6.031  0.1372  0.7731  2.7867
   37DOPE   C26 4689   2.401   2.595   6.058  0.2341 -0.1023 -0.0118
   37DOPE   H6R 4690   2.337   2.686   6.060 -0.3130 -0.4664 -0.6454
   37DOPE   H6S 4691   2.494   2.619   6.003  1.7089 -2.6985  1.1989
   37DOPE   C27 4692   2.445   2.571   6.205 -0.2761 -0.4023  0.4606
   37DOPE   H7R 4693   2.519   2.489   6.218  1.3297  1.0572  0.9349
   37DOPE   H7S 4694   2.358   2.537   6.264 -1.4656 -0.8715 -1.4678
   37DOPE   C28 4695   2.500   2.698   6.277  0.2877 -0.3146 -0.0783
   37DOPE   H8R 4696   2.503   2.676   6.386 -0.2260  0.0698  0.0169
   37DOPE   H8S 4697   2.425   2.779   6.275 -1.1981 -1.6647 -1.3676
   37DOPE   C29 4698   2.640   2.736   6.227 -1.0391 -0.0269 -0.1416
   37DOPE   H9R 4699   2.660   2.706   6.123 -2.1737 -1.0814 -0.0809
   37DOPE  C210 4700   2.736   2.799   6.304  0.7331 -0.2537  0.5177
   37DOPE  H10R 4701   2.832   2.823   6.256 -0.6083  1.9294 -1.3160
   37DOPE  C211 4702   2.709   2.862   6.440  0.4699  0.1678  0.7785
   37DOPE  H11R 4703   2.602   2.891   6.444  1.2178  3.2039  1.5811
   37DOPE  H11S 4704   2.762   2.959   6.459 -0.0702  0.3566  1.3587
   37DOPE  C212 4705   2.729   2.768   6.555  0.1721  0.2252  0.7250
   37DOPE  H12R 4706   2.838   2.750   6.545  0.3888  2.1080 -0.9390
   37DOPE  H12S 4707   2.679   2.672   6.530 -4.3678  2.4262  0.2966
   37DOPE  C213 4708   2.669   2.806   6.689  0.0200  0.2449  0.4979
   37DOPE  H13R 4709   2.559   2.810   6.702  0.0082 -1.3066  1.1517
   37DOPE  H13S 4710   2.702   2.910   6.709 -1.5110  1.0336 -0.7655
   37DOPE  C214 4711   2.720   2.705   6.799 -0.0596  0.4328  0.7857
   37DOPE  H14R 4712   2.831   2.704   6.792 -0.1548  0.6696 -1.1727
   37DOPE  H14S 4713   2.696   2.600   6.775  2.9706 -0.1819 -0.0142
   37DOPE  C215 4714   2.672   2.750   6.937 -0.5176  0.9091  0.1022
   37DOPE  H15R 4715   2.565   2.777   6.939 -0.7496  0.2321 -1.6634
   37DOPE  H15S 4716   2.738   2.825   6.986  0.7077 -1.3045  2.1031
   37DOPE  C216 4717   2.680   2.624   7.026  0.2364  0.5208  0.3495
   37DOPE  H16R 4718   2.774   2.578   6.988 -0.2477  1.9452 -2.8997
   37DOPE  H16S 4719   2.601   2.550   7.002 -0.2445  1.0355  0.3146
   37DOPE  C217 4720   2.673   2.668   7.173 -0.3055  0.0875 -0.0906
   37DOPE  H17R 4721   2.589   2.738   7.188  0.3924  0.8489  0.4078
   37DOPE  H17S 4722   2.763   2.732   7.186 -0.2319 -0.0305 -0.0165
   37DOPE  C218 4723   2.677   2.556   7.280  0.2732  0.4028  0.6725
   37DOPE  H18R 4724   2.601   2.477   7.261 -1.2070  2.1628 -1.1349
   37DOPE  H18S 4725   2.651   2.594   7.381 -1.5639 -1.6837  1.0625
   37DOPE  H18T 4726   2.780   2.516   7.288  0.0771 -0.0352  1.1253
   37DOPE   C33 4727   1.823   2.363   5.409 -0.2659  0.7054 -0.2618
   37DOPE   H3X 4728   1.910   2.386   5.473 -0.4996  0.6312  0.0841
   37DOPE   H3Y 4729   1.865   2.287   5.339 -0.1458  1.1858 -0.7196
   37DOPE   C34 4730   1.719   2.291   5.494 -0.2075 -0.0775 -0.4990
   37DOPE   H4X 4731   1.631   2.246   5.443 -2.4029 -0.8084  3.4725
   37DOPE   H4Y 4732   1.764   2.199   5.537 -0.1938  0.7753  1.4284
   37DOPE   C35 4733   1.683   2.367   5.625  0.6884 -0.0219  0.8639
   37DOPE   H5X 4734   1.622   2.454   5.593  1.4357  0.6049  1.1176
   37DOPE   H5Y 4735   1.774   2.407   5.674  1.3314 -1.8306  1.2270
   37DOPE   C36 4736   1.586   2.288   5.715  0.2739 -0.2600 -0.3996
   37DOPE   H6X 4737   1.640   2.199   5.753 -1.6017 -1.2800 -0.0220
   37DOPE   H6Y 4738   1.493   2.254   5.665 -2.4291  3.1805  1.7558
   37DOPE   C37 4739   1.526   2.380   5.823 -0.3771 -0.3993 -0.0909
   37DOPE   H7X 4740   1.614   2.437   5.859 -0.3630  0.7969 -1.9486
   37DOPE   H7Y 4741   1.458   2.458   5.784  0.9708  1.3829  0.9564
   37DOPE   C38 4742   1.483   2.304   5.945  0.0739 -0.6695 -1.0219
   37DOPE   H8X 4743   1.561   2.228   5.964  0.7834  0.0616 -0.9977
   37DOPE   H8Y 4744   1.390   2.248   5.918 -1.2387  1.5185 -1.2627
   37DOPE   C39 4745   1.465   2.400   6.061  0.1200  0.4289  0.4977
   37DOPE   H9X 4746   1.416   2.494   6.032  0.3711  0.0422 -1.3089
   37DOPE  C310 4747   1.503   2.375   6.190  0.1841 -0.8000  0.1929
   37DOPE  H10X 4748   1.494   2.450   6.270  2.1639 -2.6878  2.3132
   37DOPE  C311 4749   1.545   2.242   6.235 -0.0861 -0.5759  0.1028
   37DOPE  H11X 4750   1.526   2.159   6.164 -0.0848 -1.0780  0.6791
   37DOPE  H11Y 4751   1.649   2.255   6.273  0.4639 -0.7804 -1.2538
   37DOPE  C312 4752   1.463   2.197   6.352  0.2370 -1.0516 -0.1166
   37DOPE  H12X 4753   1.468   2.087   6.364 -2.4840 -1.0870  1.3285
   37DOPE  H12Y 4754   1.356   2.222   6.340  0.9901  3.1186  0.3559
   37DOPE  C313 4755   1.522   2.258   6.485 -0.3819  0.5117  0.7015
   37DOPE  H13X 4756   1.629   2.227   6.487 -0.2674  0.4947 -2.2926
   37DOPE  H13Y 4757   1.524   2.368   6.472  2.7162  0.4070 -0.7855
   37DOPE  C314 4758   1.446   2.205   6.608 -0.5739  0.7905 -0.6008
   37DOPE  H14X 4759   1.458   2.094   6.612 -0.3816  0.8421  1.3556
   37DOPE  H14Y 4760   1.340   2.231   6.590 -0.6970 -0.7019 -2.3322
   37DOPE  C315 4761   1.502   2.270   6.739  0.3297 -0.0027  0.0995
   37DOPE  H15X 4762   1.489   2.381   6.736  1.3415  0.1399  0.4696
   37DOPE  H15Y 4763   1.613   2.262   6.748  0.3722  0.9551  0.5439
   37DOPE  C316 4764   1.440   2.214   6.869  0.0030  0.0632  0.7018
   37DOPE  H16X 4765   1.510   2.242   6.950  0.5106  1.8580 -0.3040
   37DOPE  H16Y 4766   1.443   2.103   6.869  0.8980  0.0849  0.5743
   37DOPE  C317 4767   1.300   2.261   6.891 -0.4711  0.3757  0.3970
   37DOPE  H17X 4768   1.298   2.372   6.896  1.2600  0.3870  1.7021
   37DOPE  H17Y 4769   1.237   2.229   6.806  1.9476  1.2076 -1.8294
   37DOPE  C318 4770   1.238   2.218   7.018 -0.0366  0.0919  0.2590
   37DOPE  H18X 4771   1.154   2.281   7.054  1.0043  0.3942  2.2997
   37DOPE  H18Y 4772   1.191   2.119   6.997 -1.7988  1.2276 -1.4142
   37DOPE  H18Z 4773   1.307   2.215   7.106  0.5068  0.3505 -0.1501
   38DOPE     N 4774   3.685   4.884   5.634 -0.1937 -0.1389 -0.6431
   38DOPE   HN1 4775   3.594   4.835   5.634 -0.1495 -0.2871  0.8610
   38DOPE   HN2 4776   3.671   4.964   5.570  0.0779 -2.0772 -3.2696
   38DOPE   HN3 4777   3.747   4.819   5.583  1.1094  0.6778 -0.1641
   38DOPE   C12 4778   3.741   4.928   5.774  0.0546 -0.2190 -0.2649
   38DOPE  H12A 4779   3.725   4.840   5.840  1.5228 -1.0599 -0.9793
   38DOPE  H12B 4780   3.668   5.002   5.813 -1.3302 -1.3944 -0.5536
   38DOPE   C11 4781   3.880   4.987   5.791 -0.7891  0.9924  0.5770
   38DOPE  H11A 4782   3.899   5.023   5.895 -0.1253  1.4995  0.2824
   38DOPE  H11B 4783   3.887   5.077   5.728 -2.5684  0.0055 -1.1340
   38DOPE     P 4784   4.129   4.920   5.732 -0.0809 -0.3262  0.1328
   38DOPE   O13 4785   4.123   5.027   5.629  0.2914 -0.2498 -0.1616
   38DOPE   O14 4786   4.199   4.794   5.702  0.2668 -0.6652 -0.5811
   38DOPE   O11 4787   4.164   4.985   5.869 -0.7217 -0.4594 -0.1575
   38DOPE   O12 4788   3.977   4.881   5.755  0.6847 -0.1131  0.7176
   38DOPE    C1 4789   4.159   4.918   5.995 -0.1166 -0.4586  0.1343
   38DOPE    HA 4790   4.242   4.843   5.996  1.0671  0.6916  3.4221
   38DOPE    HB 4791   4.065   4.860   5.993 -0.5536  0.2567 -1.7629
   38DOPE    C2 4792   4.187   4.998   6.121  0.3371 -0.6521 -0.2449
   38DOPE    HS 4793   4.178   4.934   6.211  2.0099 -0.7360 -0.1047
   38DOPE   O21 4794   4.096   5.113   6.117  0.2740  0.2970  0.0260
   38DOPE   C21 4795   4.009   5.097   6.218  0.3886  0.0382 -0.2368
   38DOPE   O22 4796   4.009   5.020   6.311 -0.4562  0.4740  0.5284
   38DOPE   C22 4797   3.892   5.177   6.177  0.6996 -0.2805 -0.1718
   38DOPE   H2R 4798   3.818   5.105   6.136  0.6968 -0.6782  0.5110
   38DOPE   H2S 4799   3.905   5.260   6.104 -1.0091 -0.3614 -0.6274
   38DOPE    C3 4800   4.328   5.056   6.136  0.4677  0.0978 -0.5926
   38DOPE    HX 4801   4.341   5.131   6.055 -1.1616 -0.2481 -1.2035
   38DOPE    HY 4802   4.401   4.973   6.124  0.7569  0.4049 -0.9737
   38DOPE   O31 4803   4.345   5.135   6.258  0.2495 -0.3346 -0.1015
   38DOPE   C31 4804   4.420   5.079   6.356  0.5136 -0.1647 -0.0371
   38DOPE   O32 4805   4.475   4.971   6.353  0.4112 -0.0979 -0.3130
   38DOPE   C32 4806   4.399   5.166   6.481 -0.0619  1.0593 -0.3945
   38DOPE   H2X 4807   4.491   5.150   6.541 -0.8273  2.5754  1.3344
   38DOPE   H2Y 4808   4.384   5.273   6.453 -0.9940  1.3518  1.0598
   38DOPE   C23 4809   3.826   5.237   6.311 -0.0628 -0.0718  0.7070
   38DOPE   H3R 4810   3.852   5.167   6.394 -1.1175 -0.2011  0.9415
   38DOPE   H3S 4811   3.717   5.251   6.297  0.2658  0.1631 -2.2270
   38DOPE   C24 4812   3.882   5.375   6.340 -0.0709  0.7789 -0.1854
   38DOPE   H4R 4813   3.847   5.455   6.271  0.9434  1.9182  0.5629
   38DOPE   H4S 4814   3.992   5.366   6.332 -0.0840  1.0461 -0.7019
   38DOPE   C25 4815   3.850   5.423   6.484 -0.1049 -0.3305  0.2035
   38DOPE   H5R 4816   3.876   5.339   6.553  0.7468 -0.5113 -0.3272
   38DOPE   H5S 4817   3.741   5.441   6.495 -0.1637  0.4111 -1.4178
   38DOPE   C26 4818   3.935   5.535   6.532 -0.3987  0.4618 -0.2909
   38DOPE   H6R 4819   3.877   5.586   6.612 -0.0338 -0.3465  0.5033
   38DOPE   H6S 4820   3.950   5.611   6.452 -0.1674  2.6318  1.6954
   38DOPE   C27 4821   4.072   5.486   6.577 -0.1039 -0.7478  0.2009
   38DOPE   H7R 4822   4.138   5.446   6.497  0.4083  0.5110 -0.0228
   38DOPE   H7S 4823   4.048   5.409   6.654  1.2540 -1.9538 -0.5355
   38DOPE   C28 4824   4.148   5.603   6.639 -0.2632 -0.0645 -0.3312
   38DOPE   H8R 4825   4.160   5.675   6.555  1.2610 -1.8859 -1.7551
   38DOPE   H8S 4826   4.247   5.564   6.670 -0.3041 -0.2593 -0.4478
   38DOPE   C29 4827   4.086   5.673   6.759  0.2389  0.0627  0.2236
   38DOPE   H9R 4828   4.040   5.770   6.735  1.9516  0.1590 -3.1631
   38DOPE  C210 4829   4.071   5.627   6.884 -0.4000  0.7315  0.5366
   38DOPE  H10R 4830   4.043   5.701   6.961 -0.3387  1.0530  0.2486
   38DOPE  C211 4831   4.116   5.496   6.947  0.3600 -0.0065  0.3123
   38DOPE  H11R 4832   4.169   5.434   6.872 -0.3979 -1.4484  0.9457
   38DOPE  H11S 4833   4.027   5.431   6.962  0.3400 -0.9863 -3.1622
   38DOPE  C212 4834   4.201   5.513   7.076 -0.1040 -0.3525 -0.1996
   38DOPE  H12R 4835   4.278   5.592   7.061 -0.0403 -0.0464  1.6141
   38DOPE  H12S 4836   4.247   5.416   7.106 -1.6358 -1.7249 -2.0183
   38DOPE  C213 4837   4.099   5.556   7.184  0.3996 -0.0446  0.1717
   38DOPE  H13R 4838   4.003   5.503   7.168  0.8842 -1.0891  0.6343
   38DOPE  H13S 4839   4.080   5.663   7.162 -1.2123 -0.0040  1.5830
   38DOPE  C214 4840   4.149   5.546   7.331  0.1275 -0.0903  0.3370
   38DOPE  H14R 4841   4.251   5.588   7.339  0.2976 -0.4041 -0.2025
   38DOPE  H14S 4842   4.148   5.441   7.367  1.4288 -0.7577 -1.4811
   38DOPE  C215 4843   4.063   5.635   7.423  0.3777 -0.1248 -1.1099
   38DOPE  H15R 4844   3.960   5.604   7.395  0.3034 -0.8623 -0.0704
   38DOPE  H15S 4845   4.069   5.741   7.388  2.8496 -0.0030 -0.4967
   38DOPE  C216 4846   4.081   5.631   7.572 -0.4456 -0.6914 -0.2604
   38DOPE  H16R 4847   4.022   5.711   7.621  0.9478  1.4732 -1.9354
   38DOPE  H16S 4848   4.185   5.668   7.581 -0.6363 -0.1084 -0.3820
   38DOPE  C217 4849   4.068   5.494   7.638  0.2001  0.7169 -0.0275
   38DOPE  H17R 4850   4.130   5.415   7.591  0.6355 -0.4911  2.4201
   38DOPE  H17S 4851   3.960   5.469   7.626 -0.0297  0.6877  1.7814
   38DOPE  C218 4852   4.095   5.502   7.787  0.9576 -0.0889 -0.2228
   38DOPE  H18R 4853   4.011   5.565   7.825  0.7173 -0.3257 -0.3588
   38DOPE  H18S 4854   4.191   5.549   7.818  0.9725  1.7334 -2.7039
   38DOPE  H18T 4855   4.083   5.403   7.836  0.9453  0.9345  1.9875
   38DOPE   C33 4856   4.271   5.115   6.557 -0.3358 -0.3549 -0.1583
   38DOPE   H3X 4857   4.278   5.005   6.569  4.8642 -0.1413  1.3528
   38DOPE   H3Y 4858   4.173   5.146   6.517 -0.9389 -0.6499  1.0524
   38DOPE   C34 4859   4.274   5.170   6.697 -0.8578  0.5417  0.3573
   38DOPE   H4X 4860   4.301   5.278   6.700  0.6161  0.2561 -1.0891
   38DOPE   H4Y 4861   4.181   5.156   6.756 -2.3597  1.4371 -1.6678
   38DOPE   C35 4862   4.388   5.094   6.773 -0.4208  0.5115 -0.1445
   38DOPE   H5X 4863   4.488   5.136   6.747 -0.1081 -0.9600 -1.4498
   38DOPE   H5Y 4864   4.380   4.987   6.742  0.6023  0.1422  0.8059
   38DOPE   C36 4865   4.363   5.101   6.924 -0.2948  0.5880 -0.0142
   38DOPE   H6X 4866   4.260   5.064   6.944 -0.2951  0.8088  0.4189
   38DOPE   H6Y 4867   4.370   5.207   6.956  2.0544  0.1897  1.0007
   38DOPE   C37 4868   4.469   5.023   6.998 -0.4921  0.2978  0.3393
   38DOPE   H7X 4869   4.460   4.920   6.960  0.4845  0.4671 -0.3738
   38DOPE   H7Y 4870   4.566   5.070   6.970 -1.3687  0.8364 -2.0497
   38DOPE   C38 4871   4.455   5.031   7.156  0.4031 -0.4331  0.0737
   38DOPE   H8X 4872   4.358   4.984   7.187 -0.0723 -0.1894 -1.0220
   38DOPE   H8Y 4873   4.453   5.135   7.194 -0.1277 -1.0134  1.7306
   38DOPE   C39 4874   4.571   4.963   7.222 -0.9840  0.6455  0.6944
   38DOPE   H9X 4875   4.675   4.985   7.195 -0.6151 -1.0516  0.6155
   38DOPE  C310 4876   4.569   4.873   7.324  0.7221  0.4980 -0.0784
   38DOPE  H10X 4877   4.667   4.835   7.355  1.4812  1.3202 -1.3973
   38DOPE  C311 4878   4.449   4.836   7.408 -1.3719 -0.9069 -0.0746
   38DOPE  H11X 4879   4.451   4.899   7.500  0.6294 -0.7864 -0.1532
   38DOPE  H11Y 4880   4.352   4.849   7.357 -1.2748  1.1391  0.1690
   38DOPE  C312 4881   4.447   4.686   7.456  0.7625  0.2240 -0.4109
   38DOPE  H12X 4882   4.544   4.665   7.506  0.3954  2.0849  1.2319
   38DOPE  H12Y 4883   4.431   4.618   7.369  0.9599 -0.1245 -0.1781
   38DOPE  C313 4884   4.335   4.663   7.563 -0.0854  0.3358 -0.5976
   38DOPE  H13X 4885   4.239   4.705   7.525 -0.6219 -2.5723 -2.8990
   38DOPE  H13Y 4886   4.309   4.555   7.568 -0.9244  0.5218 -0.8058
   38DOPE  C314 4887   4.368   4.716   7.710  0.2124 -0.3567 -0.2481
   38DOPE  H14X 4888   4.385   4.826   7.703  2.5878 -0.6386  0.0582
   38DOPE  H14Y 4889   4.465   4.668   7.737 -0.5206 -1.4029  0.6140
   38DOPE  C315 4890   4.258   4.681   7.814 -0.1114 -0.3815  0.5951
   38DOPE  H15X 4891   4.229   4.574   7.814 -3.0782  0.3226 -0.4997
   38DOPE  H15Y 4892   4.165   4.737   7.793 -0.1846 -0.1705  1.4547
   38DOPE  C316 4893   4.292   4.733   7.955 -0.3284  0.2714  0.2325
   38DOPE  H16X 4894   4.382   4.686   7.998 -0.7962 -0.6572  0.2168
   38DOPE  H16Y 4895   4.201   4.703   8.011  0.5668 -1.8091  0.6296
   38DOPE  C317 4896   4.303   4.886   7.947 -0.0581  0.4082  0.4942
   38DOPE  H17X 4897   4.404   4.911   7.905  0.7540 -1.1470  1.4375
   38DOPE  H17Y 4898   4.229   4.926   7.874 -0.1211 -1.9965 -0.8719
   38DOPE  C318 4899   4.292   4.946   8.082  0.4014  0.2290 -0.0217
   38DOPE  H18X 4900   4.296   5.057   8.077  0.3749  0.4052  2.5806
   38DOPE  H18Y 4901   4.195   4.932   8.135 -0.6510  0.2827 -1.8535
   38DOPE  H18Z 4902   4.371   4.913   8.152  0.4873  0.0456 -0.2048
   39DOPE     N 4903   1.636   3.303   4.839  0.2016  0.4573 -0.2094
   39DOPE   HN1 4904   1.726   3.303   4.891  0.4917 -1.7094 -0.6449
   39DOPE   HN2 4905   1.591   3.212   4.858  1.1108 -0.0597 -0.4695
   39DOPE   HN3 4906   1.655   3.326   4.739  1.4745  0.7618  0.0777
   39DOPE   C12 4907   1.555   3.407   4.917  0.5121  0.4971 -1.1796
   39DOPE  H12A 4908   1.454   3.405   4.870 -0.3218 -2.8706  0.4110
   39DOPE  H12B 4909   1.600   3.508   4.909 -0.7600  1.2179  0.1439
   39DOPE   C11 4910   1.544   3.364   5.064 -0.5813 -0.0905  0.5162
   39DOPE  H11A 4911   1.482   3.273   5.070 -0.5084 -0.1708  0.0508
   39DOPE  H11B 4912   1.484   3.429   5.131 -1.5864 -1.6968  1.2322
   39DOPE     P 4913   1.727   3.212   5.169  0.0385 -0.7731 -0.0622
   39DOPE   O13 4914   1.850   3.241   5.252 -0.2038  0.1556 -0.8063
   39DOPE   O14 4915   1.742   3.131   5.049 -0.6232 -0.2280  0.0162
   39DOPE   O11 4916   1.618   3.138   5.262  0.7647 -0.0607 -0.8611
   39DOPE   O12 4917   1.665   3.350   5.133 -0.0833  0.0823 -0.2287
   39DOPE    C1 4918   1.581   3.203   5.382  0.4646 -0.2823  0.0643
   39DOPE    HA 4919   1.516   3.288   5.353 -0.1630 -1.0917 -0.9582
   39DOPE    HB 4920   1.674   3.224   5.439  0.3657 -3.7735  1.7947
   39DOPE    C2 4921   1.509   3.112   5.490  0.1160 -0.0213  0.7095
   39DOPE    HS 4922   1.513   3.177   5.580  1.1240  1.2522 -0.2205
   39DOPE   O21 4923   1.570   2.981   5.511 -0.1132 -0.0317  0.2081
   39DOPE   C21 4924   1.681   2.994   5.590  0.0039  0.6567  0.2543
   39DOPE   O22 4925   1.723   3.097   5.632 -0.2443 -0.1192 -0.3876
   39DOPE   C22 4926   1.744   2.858   5.622 -0.1944  0.1897  0.2795
   39DOPE   H2R 4927   1.796   2.830   5.528  0.2679  0.1696  0.5395
   39DOPE   H2S 4928   1.662   2.785   5.639  0.9374 -1.1355  0.2346
   39DOPE    C3 4929   1.358   3.094   5.447  0.6420  0.2695  0.0493
   39DOPE    HX 4930   1.351   3.002   5.384 -1.5244 -0.9704  1.9368
   39DOPE    HY 4931   1.324   3.181   5.387 -2.9506 -0.8027  0.2626
   39DOPE   O31 4932   1.276   3.077   5.567 -0.9030 -0.1137 -0.6124
   39DOPE   C31 4933   1.211   3.187   5.616 -0.2865  0.0985 -0.3667
   39DOPE   O32 4934   1.186   3.289   5.557  0.3552  0.2479  0.0533
   39DOPE   C32 4935   1.143   3.147   5.747 -0.3900  0.2894 -0.3116
   39DOPE   H2X 4936   1.120   3.038   5.739  0.6594  0.1252 -1.6992
   39DOPE   H2Y 4937   1.224   3.148   5.823 -1.7650 -1.1272  1.2484
   39DOPE   C23 4938   1.835   2.861   5.744 -0.4202 -0.4984  0.2064
   39DOPE   H3R 4939   1.785   2.908   5.831 -0.0701  2.5993 -1.1326
   39DOPE   H3S 4940   1.927   2.920   5.725 -1.6085  0.5955 -2.5995
   39DOPE   C24 4941   1.864   2.719   5.792  0.1092 -0.8679 -0.4512
   39DOPE   H4R 4942   1.907   2.663   5.706 -0.8717 -0.1173 -1.4541
   39DOPE   H4S 4943   1.770   2.662   5.805 -0.1465 -0.6282 -1.1874
   39DOPE   C25 4944   1.942   2.710   5.919  0.7136  0.3116 -0.2986
   39DOPE   H5R 4945   2.032   2.775   5.914 -0.4668  2.1783  1.1107
   39DOPE   H5S 4946   1.982   2.607   5.925 -1.2341 -0.5970 -1.7850
   39DOPE   C26 4947   1.871   2.749   6.046  0.0145 -0.4337  0.2294
   39DOPE   H6R 4948   1.853   2.858   6.055 -0.1041 -0.3887 -0.5588
   39DOPE   H6S 4949   1.950   2.729   6.122 -0.5431  3.3359  2.0039
   39DOPE   C27 4950   1.738   2.678   6.080  0.2215  0.1650  0.0075
   39DOPE   H7R 4951   1.751   2.570   6.057  1.2223  0.6918 -2.2598
   39DOPE   H7S 4952   1.659   2.717   6.013 -0.2398 -1.0168 -0.1596
   39DOPE   C28 4953   1.697   2.698   6.227 -0.6226 -0.4358 -0.3390
   39DOPE   H8R 4954   1.591   2.669   6.240 -0.4404 -0.5642  0.9982
   39DOPE   H8S 4955   1.698   2.809   6.227 -1.4299 -0.4139 -1.0530
   39DOPE   C29 4956   1.775   2.624   6.336 -0.0092  0.3250  0.1972
   39DOPE   H9R 4957   1.854   2.558   6.298 -0.9269 -0.7316  0.0730
   39DOPE  C210 4958   1.761   2.643   6.468  0.2455  0.8623  0.0174
   39DOPE  H10R 4959   1.832   2.577   6.521 -1.5561 -2.7765 -1.7594
   39DOPE  C211 4960   1.671   2.736   6.545 -0.1484 -1.1580  0.8599
   39DOPE  H11R 4961   1.612   2.669   6.613 -1.1890  0.4688  1.6148
   39DOPE  H11S 4962   1.601   2.781   6.472  0.7902  1.4126  1.4382
   39DOPE  C212 4963   1.738   2.856   6.621  0.8095 -0.4557  0.3963
   39DOPE  H12R 4964   1.659   2.923   6.660 -0.4889 -1.8622  0.2801
   39DOPE  H12S 4965   1.798   2.913   6.548  0.2130 -0.4662 -0.1094
   39DOPE  C213 4966   1.829   2.808   6.737 -0.6333 -0.5632 -0.8417
   39DOPE  H13R 4967   1.886   2.895   6.775 -1.2350 -0.3913 -0.3056
   39DOPE  H13S 4968   1.904   2.736   6.698 -0.0128 -1.5611  1.9379
   39DOPE  C214 4969   1.752   2.751   6.856 -0.2980  0.6248  0.1390
   39DOPE  H14R 4970   1.647   2.782   6.837 -0.2789  0.2985 -0.5159
   39DOPE  H14S 4971   1.795   2.804   6.944  2.5574  2.0230 -1.9561
   39DOPE  C215 4972   1.752   2.601   6.883 -0.0603 -0.2645 -0.2308
   39DOPE  H15R 4973   1.701   2.552   6.797 -1.3350  0.7931 -0.1137
   39DOPE  H15S 4974   1.685   2.580   6.969  0.7438 -3.6813 -0.3014
   39DOPE  C216 4975   1.882   2.525   6.905 -1.0638 -0.0259  0.2059
   39DOPE  H16R 4976   1.948   2.569   6.982 -2.5597 -0.5714  1.8764
   39DOPE  H16S 4977   1.940   2.519   6.810 -1.7068  2.4927 -0.4277
   39DOPE  C217 4978   1.859   2.379   6.942 -0.5158 -0.0795 -0.3864
   39DOPE  H17R 4979   1.964   2.344   6.941 -0.8132 -0.9941 -1.4327
   39DOPE  H17S 4980   1.816   2.323   6.856 -1.4802 -0.3853  0.2689
   39DOPE  C218 4981   1.796   2.348   7.078  0.8258 -0.9571 -0.0306
   39DOPE  H18R 4982   1.840   2.404   7.162 -1.9874  0.3171  0.7268
   39DOPE  H18S 4983   1.785   2.239   7.101  1.0398 -0.7776  0.9602
   39DOPE  H18T 4984   1.695   2.394   7.083  0.1174 -2.1658 -1.8458
   39DOPE   C33 4985   1.028   3.237   5.776 -0.2463 -0.0939  0.1970
   39DOPE   H3X 4986   0.947   3.242   5.700  0.4002  3.4790 -0.4791
   39DOPE   H3Y 4987   1.055   3.345   5.784 -1.0865  0.0715  0.8792
   39DOPE   C34 4988   0.972   3.199   5.918  0.6166 -0.5859  0.2254
   39DOPE   H4X 4989   0.880   3.260   5.936  0.2878 -1.0346  0.0897
   39DOPE   H4Y 4990   0.952   3.090   5.914  2.6278 -1.0504  1.5243
   39DOPE   C35 4991   1.063   3.232   6.035  0.0350 -0.3086  0.6166
   39DOPE   H5X 4992   1.109   3.333   6.033 -0.2372 -0.1747  1.1001
   39DOPE   H5Y 4993   1.153   3.168   6.023  0.3528  0.4642 -1.8001
   39DOPE   C36 4994   1.012   3.200   6.181 -0.3283 -0.2109  0.4268
   39DOPE   H6X 4995   0.965   3.099   6.174 -3.1383  1.1421 -3.0155
   39DOPE   H6Y 4996   0.931   3.274   6.198  0.7953  0.8943  1.1214
   39DOPE   C37 4997   1.114   3.200   6.301 -0.6716  0.3749 -0.2873
   39DOPE   H7X 4998   1.201   3.136   6.277  0.5781  2.0119 -0.3037
   39DOPE   H7Y 4999   1.147   3.306   6.309  0.6826 -0.0160 -0.4053
   39DOPE   C38 5000   1.055   3.123   6.432  0.3102 -0.9410  0.3817
   39DOPE   H8X 5001   1.011   3.030   6.389  0.7155 -0.7077 -0.5542
   39DOPE   H8Y 5002   0.970   3.181   6.474  0.3329 -0.0956 -0.7097
   39DOPE   C39 5003   1.157   3.085   6.540 -0.5396 -0.3997  0.9337
   39DOPE   H9X 5004   1.239   3.036   6.485 -0.7105  0.8207 -0.4892
   39DOPE  C310 5005   1.154   3.107   6.675 -0.4654 -0.1017  0.3821
   39DOPE  H10X 5006   1.234   3.079   6.745 -1.0178 -1.0948  0.6405
   39DOPE  C311 5007   1.057   3.189   6.752  0.4239  0.3069  0.3394
   39DOPE  H11X 5008   1.107   3.279   6.794  0.6878  0.0118  0.6644
   39DOPE  H11Y 5009   0.969   3.217   6.691 -0.3169 -1.7919  0.3383
   39DOPE  C312 5010   1.000   3.095   6.865 -0.3007  0.6679 -0.3244
   39DOPE  H12X 5011   0.968   3.003   6.812  1.7344  0.3035 -0.9961
   39DOPE  H12Y 5012   0.906   3.141   6.902 -0.9599 -1.9022  1.4775
   39DOPE  C313 5013   1.098   3.058   6.982 -0.2284  0.4960 -0.4327
   39DOPE  H13X 5014   1.047   2.973   7.032 -1.5211  1.1291 -0.6380
   39DOPE  H13Y 5015   1.195   3.011   6.955 -0.8383 -0.4574 -1.0553
   39DOPE  C314 5016   1.110   3.171   7.090  0.6904  0.8719  0.1851
   39DOPE  H14X 5017   1.041   3.148   7.174 -0.3508 -0.6499 -1.0200
   39DOPE  H14Y 5018   1.056   3.258   7.045 -0.7283  0.6894  1.4581
   39DOPE  C315 5019   1.245   3.207   7.137 -1.0671 -0.3063  0.1558
   39DOPE  H15X 5020   1.245   3.309   7.181  1.7557  0.1363 -0.6224
   39DOPE  H15Y 5021   1.304   3.219   7.043 -0.8028  0.8338  0.4551
   39DOPE  C316 5022   1.302   3.116   7.242  0.3766 -0.0736  0.4238
   39DOPE  H16X 5023   1.411   3.096   7.234  0.9418  1.5981  2.7871
   39DOPE  H16Y 5024   1.263   3.015   7.216  0.2857  0.0204  0.1960
   39DOPE  C317 5025   1.284   3.154   7.390 -0.5754 -0.4324  1.0030
   39DOPE  H17X 5026   1.331   3.253   7.408 -1.5082  0.4431 -1.0127
   39DOPE  H17Y 5027   1.175   3.176   7.393 -0.0343  2.9640 -0.4296
   39DOPE  C318 5028   1.334   3.042   7.483  0.9715 -0.1666 -0.6021
   39DOPE  H18X 5029   1.443   3.024   7.469  1.6909  2.0998  1.4748
   39DOPE  H18Y 5030   1.313   3.065   7.589  0.1567 -3.5846  0.0875
   39DOPE  H18Z 5031   1.284   2.947   7.453  1.3889 -0.2709 -0.9853
   40DOPE     N 5032   3.500   5.656   5.581  0.3477  0.0851  0.2850
   40DOPE   HN1 5033   3.485   5.642   5.479  0.4178 -3.0173  0.6112
   40DOPE   HN2 5034   3.409   5.633   5.626  0.7750 -0.7843  0.7247
   40DOPE   HN3 5035   3.528   5.754   5.597  0.4036 -0.0533  1.0729
   40DOPE   C12 5036   3.602   5.561   5.632 -0.2409 -0.8839 -0.1336
   40DOPE  H12A 5037   3.697   5.596   5.584 -0.3857  1.2757  1.0469
   40DOPE  H12B 5038   3.574   5.459   5.599  0.1225 -0.0785 -3.2606
   40DOPE   C11 5039   3.632   5.573   5.781 -0.1948 -0.0094  0.3167
   40DOPE  H11A 5040   3.544   5.551   5.845 -1.4034 -1.8639 -1.8474
   40DOPE  H11B 5041   3.662   5.679   5.796 -0.5676  0.1445 -0.0280
   40DOPE     P 5042   3.736   5.336   5.803 -0.2695  0.3054 -0.0931
   40DOPE   O13 5043   3.846   5.274   5.873 -0.1072 -0.4375  0.9472
   40DOPE   O14 5044   3.721   5.284   5.666 -0.1658 -0.1033 -0.5569
   40DOPE   O11 5045   3.609   5.295   5.878  1.0301 -0.6052  0.2929
   40DOPE   O12 5046   3.743   5.487   5.805  0.1282 -0.1677  0.0652
   40DOPE    C1 5047   3.590   5.350   6.010  0.0388 -0.0562 -0.4681
   40DOPE    HA 5048   3.609   5.459   6.014  0.6796 -0.1202 -1.4181
   40DOPE    HB 5049   3.655   5.288   6.076  1.3801  1.9635  0.1958
   40DOPE    C2 5050   3.445   5.323   6.063  0.9411 -1.1077  0.1891
   40DOPE    HS 5051   3.378   5.391   6.007  0.1081 -1.6579  0.4914
   40DOPE   O21 5052   3.437   5.361   6.204 -0.5108 -0.7281 -0.3033
   40DOPE   C21 5053   3.447   5.491   6.223  0.3127 -0.2868  0.2278
   40DOPE   O22 5054   3.440   5.565   6.127  0.5464 -0.3457  0.1975
   40DOPE   C22 5055   3.462   5.547   6.368  0.5660 -0.3353  0.0467
   40DOPE   H2R 5056   3.540   5.485   6.418 -0.7331 -2.0798 -0.0140
   40DOPE   H2S 5057   3.371   5.514   6.422  0.1733  0.6225 -0.0033
   40DOPE    C3 5058   3.398   5.178   6.050  0.1001  0.2782  0.4081
   40DOPE    HX 5059   3.374   5.152   5.945 -2.7495  1.3093  0.7236
   40DOPE    HY 5060   3.304   5.164   6.108  0.2471  0.7154  0.7595
   40DOPE   O31 5061   3.497   5.093   6.107  0.5001 -0.4724  0.1428
   40DOPE   C31 5062   3.491   4.965   6.068  0.3376  0.2792  1.3805
   40DOPE   O32 5063   3.403   4.917   5.997  0.3979  0.0199  0.1225
   40DOPE   C32 5064   3.619   4.882   6.113 -0.0863 -0.0828  0.0535
   40DOPE   H2X 5065   3.589   4.782   6.077 -1.0175  1.1569 -2.8927
   40DOPE   H2Y 5066   3.706   4.919   6.054  0.9346  0.4575  1.8304
   40DOPE   C23 5067   3.481   5.697   6.370 -0.1282  0.2372 -0.4340
   40DOPE   H3R 5068   3.382   5.743   6.353  0.2549  0.8657 -1.0104
   40DOPE   H3S 5069   3.556   5.726   6.292 -1.4451  0.4647 -1.6585
   40DOPE   C24 5070   3.552   5.764   6.488  0.8911 -0.7927 -0.6221
   40DOPE   H4R 5071   3.598   5.863   6.462 -0.4856  0.9583  2.9157
   40DOPE   H4S 5072   3.634   5.695   6.518 -0.1997 -0.6742  3.0134
   40DOPE   C25 5073   3.454   5.775   6.605  0.0899 -0.3639  0.2513
   40DOPE   H5R 5074   3.393   5.683   6.616 -1.9642  1.0159  0.9891
   40DOPE   H5S 5075   3.374   5.852   6.600 -2.2299 -2.6761 -1.2381
   40DOPE   C26 5076   3.536   5.807   6.733  0.6436 -0.1146 -0.0787
   40DOPE   H6R 5077   3.585   5.907   6.724 -0.3260  0.2512 -2.0087
   40DOPE   H6S 5078   3.611   5.727   6.748 -0.5790 -0.9597  1.8804
   40DOPE   C27 5079   3.435   5.805   6.853 -0.7719  0.0693  0.9930
   40DOPE   H7R 5080   3.396   5.703   6.873 -2.5310  0.5923  0.4307
   40DOPE   H7S 5081   3.342   5.853   6.814 -0.7152  0.5460  1.4340
   40DOPE   C28 5082   3.485   5.869   6.988  0.3130 -0.3363 -0.1575
   40DOPE   H8R 5083   3.394   5.878   7.050 -0.7054 -0.2154 -1.6287
   40DOPE   H8S 5084   3.521   5.969   6.954 -0.4731  0.2547  0.7225
   40DOPE   C29 5085   3.592   5.799   7.068  0.2365  0.5145  0.1645
   40DOPE   H9R 5086   3.562   5.706   7.120 -0.6061 -1.3339 -3.3427
   40DOPE  C210 5087   3.717   5.819   7.060  0.2695 -0.3472 -0.3279
   40DOPE  H10R 5088   3.780   5.761   7.129 -2.1102  1.1209  3.3641
   40DOPE  C211 5089   3.784   5.924   6.971  0.3709 -0.4465 -0.0786
   40DOPE  H11R 5090   3.718   6.011   6.953 -0.2741 -0.5377  1.7341
   40DOPE  H11S 5091   3.806   5.879   6.872 -0.0114  0.6185 -0.6690
   40DOPE  C212 5092   3.916   5.961   7.040 -0.0788  0.2371  0.4700
   40DOPE  H12R 5093   3.989   5.986   6.960  0.5754  0.0110  0.9883
   40DOPE  H12S 5094   3.971   5.883   7.096  0.6511 -0.4981 -1.1907
   40DOPE  C213 5095   3.903   6.092   7.123  0.1036  0.8541 -0.4195
   40DOPE  H13R 5096   3.840   6.061   7.209  0.0554 -1.4435 -1.2218
   40DOPE  H13S 5097   3.851   6.168   7.059  0.4530  1.5418  0.1011
   40DOPE  C214 5098   4.036   6.142   7.168 -0.4012  0.1726  0.5909
   40DOPE  H14R 5099   4.109   6.137   7.084 -0.6112 -0.5398  0.4416
   40DOPE  H14S 5100   4.080   6.084   7.252  1.6027 -0.0092 -0.5183
   40DOPE  C215 5101   4.035   6.287   7.221  0.1514  0.1246  0.0800
   40DOPE  H15R 5102   3.972   6.354   7.159  0.1595 -0.7111 -0.8608
   40DOPE  H15S 5103   4.136   6.332   7.215 -0.1699  1.2498  2.3039
   40DOPE  C216 5104   4.001   6.293   7.368 -0.2603 -0.2021 -0.8301
   40DOPE  H16R 5105   4.093   6.252   7.415 -1.3085 -2.0027 -0.2371
   40DOPE  H16S 5106   3.915   6.236   7.408  0.3982 -0.4467  0.2615
   40DOPE  C217 5107   3.989   6.444   7.400 -0.2598  0.0177  0.2032
   40DOPE  H17R 5108   3.911   6.482   7.331  1.9197 -2.2738 -3.9310
   40DOPE  H17S 5109   4.083   6.498   7.377 -0.6022  0.6840  0.3500
   40DOPE  C218 5110   3.960   6.463   7.549  0.5019 -0.2001 -0.0939
   40DOPE  H18R 5111   3.852   6.437   7.561  0.6963 -0.9379  0.0632
   40DOPE  H18S 5112   3.979   6.568   7.579  0.5334 -0.2868  0.1836
   40DOPE  H18T 5113   4.024   6.391   7.602 -0.5333 -0.0914  1.3631
   40DOPE   C33 5114   3.644   4.876   6.267  0.5122 -0.3684 -0.4761
   40DOPE   H3X 5115   3.699   4.965   6.304 -0.0282  0.0872 -0.7583
   40DOPE   H3Y 5116   3.723   4.800   6.285 -0.9493 -1.3034  2.7927
   40DOPE   C34 5117   3.529   4.841   6.360 -0.2595 -0.3691 -0.8535
   40DOPE   H4X 5118   3.473   4.935   6.374 -0.9765 -0.7829 -0.9067
   40DOPE   H4Y 5119   3.455   4.768   6.321 -0.4833  0.2948 -1.7025
   40DOPE   C35 5120   3.590   4.776   6.491  0.1901 -0.1931 -0.0244
   40DOPE   H5X 5121   3.682   4.831   6.520 -0.1316  0.2822  0.1112
   40DOPE   H5Y 5122   3.620   4.673   6.462 -0.9169 -0.7195  0.6424
   40DOPE   C36 5123   3.490   4.769   6.606 -0.5194 -0.2283  0.1500
   40DOPE   H6X 5124   3.384   4.772   6.571 -0.0834  0.8679 -1.1608
   40DOPE   H6Y 5125   3.506   4.860   6.668 -0.2986 -0.0754 -0.1347
   40DOPE   C37 5126   3.502   4.637   6.683  0.2547 -0.0592  0.3213
   40DOPE   H7X 5127   3.500   4.566   6.598 -2.1404 -0.2860  0.5075
   40DOPE   H7Y 5128   3.603   4.626   6.728  0.2983 -0.9391  0.0373
   40DOPE   C38 5129   3.390   4.610   6.791  0.2045 -0.2129 -0.2063
   40DOPE   H8X 5130   3.290   4.628   6.746 -1.4612 -0.4187  3.1055
   40DOPE   H8Y 5131   3.397   4.695   6.863  1.3094  0.1225 -0.6904
   40DOPE   C39 5132   3.399   4.470   6.847  0.0116 -0.0922  0.6868
   40DOPE   H9X 5133   3.356   4.388   6.788  0.6884 -0.1376  0.2526
   40DOPE  C310 5134   3.464   4.443   6.962  0.0748  0.3119  0.7813
   40DOPE  H10X 5135   3.490   4.337   6.975 -1.4336 -0.2983 -0.7233
   40DOPE  C311 5136   3.549   4.525   7.057  0.2883 -0.4205  0.4164
   40DOPE  H11X 5137   3.620   4.466   7.119  1.5989  2.5958  1.9672
   40DOPE  H11Y 5138   3.613   4.586   6.990 -0.3278 -0.0108  0.1920
   40DOPE  C312 5139   3.448   4.614   7.134  0.9639 -0.5339 -0.0680
   40DOPE  H12X 5140   3.369   4.550   7.180 -2.3535  2.7550 -0.7329
   40DOPE  H12Y 5141   3.391   4.678   7.063 -0.0727 -0.9369  0.3739
   40DOPE  C313 5142   3.512   4.711   7.236 -0.2709 -0.3193  0.3238
   40DOPE  H13X 5143   3.565   4.653   7.315 -0.4598  0.0378  0.7179
   40DOPE  H13Y 5144   3.589   4.772   7.184 -0.1137 -2.0283 -1.6050
   40DOPE  C314 5145   3.408   4.803   7.309 -0.8933  0.8132 -0.2471
   40DOPE  H14X 5146   3.402   4.882   7.230  0.4645  1.1364 -0.0669
   40DOPE  H14Y 5147   3.462   4.853   7.392 -1.0808  2.0922 -0.8575
   40DOPE  C315 5148   3.282   4.740   7.356 -0.5783  0.0595  0.2223
   40DOPE  H15X 5149   3.227   4.688   7.275 -1.4059  3.1022 -1.3636
   40DOPE  H15Y 5150   3.216   4.824   7.389 -1.0710 -0.5386  0.7677
   40DOPE  C316 5151   3.311   4.638   7.465  0.2421 -0.0488  0.3116
   40DOPE  H16X 5152   3.376   4.677   7.547  0.7053 -0.6156  0.2229
   40DOPE  H16Y 5153   3.365   4.555   7.415  1.5720  0.5360  0.7275
   40DOPE  C317 5154   3.182   4.578   7.519 -0.9816 -0.7468  0.8578
   40DOPE  H17X 5155   3.111   4.656   7.555 -0.6895 -0.1675  0.2140
   40DOPE  H17Y 5156   3.136   4.527   7.432  1.5572 -3.3434  0.8822
   40DOPE  C318 5157   3.203   4.470   7.630 -0.3436  0.6433 -0.0569
   40DOPE  H18X 5158   3.248   4.507   7.725  1.1328 -1.0714 -0.0240
   40DOPE  H18Y 5159   3.098   4.436   7.640  0.0513 -0.5312  0.2235
   40DOPE  H18Z 5160   3.271   4.391   7.591 -2.7138 -1.2620 -0.5093
   41DOPE     N 5161   2.172   3.729   5.597 -0.0707  0.1667 -0.4285
   41DOPE   HN1 5162   2.186   3.671   5.512 -1.4075  1.7418 -1.7903
   41DOPE   HN2 5163   2.141   3.820   5.560  2.8196  0.6905 -1.8368
   41DOPE   HN3 5164   2.257   3.746   5.654  1.0644 -1.2108 -1.6232
   41DOPE   C12 5165   2.043   3.694   5.667  0.2199  0.0733  0.3476
   41DOPE  H12A 5166   2.064   3.618   5.746  0.3545  1.1924  1.4299
   41DOPE  H12B 5167   1.978   3.650   5.588  0.0006 -0.8343  1.0150
   41DOPE   C11 5168   1.973   3.828   5.717  0.4797  0.4650  0.7423
   41DOPE  H11A 5169   2.035   3.883   5.792  1.3595  0.1805  0.2402
   41DOPE  H11B 5170   1.884   3.814   5.783  0.1547  1.5062  0.5452
   41DOPE     P 5171   1.915   4.073   5.617  0.1066  0.3917 -0.5578
   41DOPE   O13 5172   1.818   4.097   5.507  0.2658  0.2336  0.2020
   41DOPE   O14 5173   2.041   4.152   5.612  0.6549  0.1722  0.1028
   41DOPE   O11 5174   1.855   4.078   5.763  0.2781 -0.7878  0.3518
   41DOPE   O12 5175   1.963   3.922   5.608 -0.1502  0.7199 -0.4067
   41DOPE    C1 5176   1.711   4.048   5.779  0.4339 -0.1538 -0.5866
   41DOPE    HA 5177   1.701   3.988   5.872  0.5245  1.0301  0.2003
   41DOPE    HB 5178   1.665   3.990   5.696  2.0876 -1.4185 -0.6757
   41DOPE    C2 5179   1.629   4.185   5.805  0.9380  0.7458  0.1850
   41DOPE    HS 5180   1.640   4.241   5.710  1.1677 -0.6689 -0.6421
   41DOPE   O21 5181   1.692   4.261   5.915  0.4952 -0.4160  0.7537
   41DOPE   C21 5182   1.661   4.396   5.899 -0.6306  0.6485 -0.7942
   41DOPE   O22 5183   1.610   4.443   5.803 -0.0042 -0.3090  0.7968
   41DOPE   C22 5184   1.712   4.476   6.022  0.6508 -0.0228  0.7167
   41DOPE   H2R 5185   1.621   4.527   6.061 -0.1530  0.6010 -1.8186
   41DOPE   H2S 5186   1.769   4.562   5.982 -0.5026  0.8502  0.8729
   41DOPE    C3 5187   1.478   4.157   5.845  0.1561  0.3077 -0.3562
   41DOPE    HX 5188   1.429   4.092   5.769  1.3756  0.2074 -1.0748
   41DOPE    HY 5189   1.417   4.250   5.854 -0.7729 -0.3318  0.1133
   41DOPE   O31 5190   1.454   4.087   5.974 -0.1541  0.1075 -0.0273
   41DOPE   C31 5191   1.459   4.168   6.085  0.7717  0.5332  0.4616
   41DOPE   O32 5192   1.459   4.290   6.091  0.0466  0.6409  0.1292
   41DOPE   C32 5193   1.457   4.075   6.209  0.6016  0.1943  1.3072
   41DOPE   H2X 5194   1.383   3.997   6.179 -1.1230  2.0254  0.5529
   41DOPE   H2Y 5195   1.552   4.018   6.212  0.2532 -0.6723 -1.3965
   41DOPE   C23 5196   1.780   4.397   6.144 -0.3193 -0.2277  0.4086
   41DOPE   H3R 5197   1.890   4.383   6.134 -0.3735 -0.9596  0.7897
   41DOPE   H3S 5198   1.728   4.299   6.146 -1.2601  0.2628  1.0669
   41DOPE   C24 5199   1.753   4.462   6.274 -0.7451  0.0953  0.2085
   41DOPE   H4R 5200   1.647   4.450   6.303 -0.7470  0.1633  0.2304
   41DOPE   H4S 5201   1.776   4.570   6.271  0.3639 -0.1437 -0.5480
   41DOPE   C25 5202   1.826   4.384   6.396 -0.7555 -0.1022  0.8246
   41DOPE   H5R 5203   1.936   4.375   6.382 -0.1667  4.7260  0.6825
   41DOPE   H5S 5204   1.792   4.278   6.390  4.7597 -2.1563 -1.6918
   41DOPE   C26 5205   1.795   4.441   6.533  0.2559  0.3497  0.2249
   41DOPE   H6R 5206   1.686   4.437   6.549 -0.1499  2.3334 -1.5437
   41DOPE   H6S 5207   1.826   4.546   6.553  0.0469  0.7034 -1.1651
   41DOPE   C27 5208   1.866   4.345   6.633 -0.0143  0.0696  0.0157
   41DOPE   H7R 5209   1.974   4.330   6.611  0.0188  2.3696 -1.8377
   41DOPE   H7S 5210   1.820   4.244   6.638  1.6216 -0.6270  2.7215
   41DOPE   C28 5211   1.867   4.415   6.774  0.1466  0.0442  0.2627
   41DOPE   H8R 5212   1.906   4.518   6.762 -0.9873  0.4485 -0.1403
   41DOPE   H8S 5213   1.941   4.377   6.847 -0.0610 -0.6553  0.1155
   41DOPE   C29 5214   1.730   4.415   6.838  0.1212 -0.2008 -0.8800
   41DOPE   H9R 5215   1.654   4.436   6.762  0.7924 -2.8872 -2.4319
   41DOPE  C210 5216   1.696   4.382   6.968  0.1046 -0.0943 -0.3602
   41DOPE  H10R 5217   1.592   4.396   6.999 -0.1615 -0.8822 -0.8649
   41DOPE  C211 5218   1.790   4.357   7.083 -0.4827  0.5248 -0.1309
   41DOPE  H11R 5219   1.888   4.406   7.062 -0.7159  0.9329 -0.2638
   41DOPE  H11S 5220   1.808   4.247   7.087  1.1920  0.7789  0.0508
   41DOPE  C212 5221   1.739   4.407   7.220  0.5495 -0.2010  0.2378
   41DOPE  H12R 5222   1.644   4.353   7.239  0.7855 -0.1539  1.6521
   41DOPE  H12S 5223   1.715   4.514   7.203  2.7220  0.2391 -0.3216
   41DOPE  C213 5224   1.845   4.391   7.327  0.0314  1.2455 -0.1352
   41DOPE  H13R 5225   1.911   4.480   7.324  1.4317  0.2160 -2.4487
   41DOPE  H13S 5226   1.909   4.302   7.314 -1.1158  0.3248  0.3421
   41DOPE  C214 5227   1.793   4.386   7.463  0.4459 -0.5484  0.0990
   41DOPE  H14R 5228   1.727   4.299   7.486 -1.0023  1.1160  2.7500
   41DOPE  H14S 5229   1.742   4.479   7.496  2.1274  0.3529  0.2337
   41DOPE  C215 5230   1.908   4.384   7.566 -0.4520  0.0564  0.7022
   41DOPE  H15R 5231   1.963   4.480   7.554 -0.7915  0.3683  1.5497
   41DOPE  H15S 5232   1.969   4.293   7.553 -0.3590  0.1691  0.3214
   41DOPE  C216 5233   1.856   4.382   7.703  0.0028  1.0095 -0.6560
   41DOPE  H16R 5234   1.767   4.317   7.693  1.2204 -0.6747 -1.0391
   41DOPE  H16S 5235   1.828   4.482   7.742  2.4106  1.0278  1.2681
   41DOPE  C217 5236   1.936   4.303   7.802  0.6388  0.3594 -0.3495
   41DOPE  H17R 5237   1.929   4.197   7.770 -4.4284 -0.1191  1.3857
   41DOPE  H17S 5238   1.885   4.290   7.900 -1.3418 -1.6137 -1.5361
   41DOPE  C218 5239   2.083   4.354   7.812  0.4564  1.1419  0.0068
   41DOPE  H18R 5240   2.134   4.356   7.911 -0.4388  0.5705  0.4939
   41DOPE  H18S 5241   2.079   4.459   7.776 -1.8148  0.8954 -0.5886
   41DOPE  H18T 5242   2.143   4.302   7.735 -0.9928 -1.7754  0.7148
   41DOPE   C33 5243   1.420   4.152   6.331  0.5278 -0.0373 -0.9240
   41DOPE   H3X 5244   1.314   4.186   6.332 -0.2186 -2.1580  1.4775
   41DOPE   H3Y 5245   1.488   4.239   6.340  0.9783 -0.3969 -0.8612
   41DOPE   C34 5246   1.433   4.058   6.447  0.1563  0.2351  0.1633
   41DOPE   H4X 5247   1.360   3.974   6.448  0.4474 -0.0887  2.8892
   41DOPE   H4Y 5248   1.532   4.009   6.445  0.6660  1.0545  2.2754
   41DOPE   C35 5249   1.439   4.134   6.575  0.3845 -0.4775 -0.0029
   41DOPE   H5X 5250   1.356   4.202   6.604  1.3490  0.5195  0.4959
   41DOPE   H5Y 5251   1.527   4.201   6.570  0.0867 -0.0518  0.3487
   41DOPE   C36 5252   1.465   4.046   6.700 -0.9669  0.3188 -0.4807
   41DOPE   H6X 5253   1.549   3.976   6.683  0.2083  1.2017  1.4583
   41DOPE   H6Y 5254   1.383   3.979   6.732 -2.4196  1.5824 -1.4047
   41DOPE   C37 5255   1.474   4.125   6.824  0.0324 -0.5092 -1.0641
   41DOPE   H7X 5256   1.557   4.198   6.817  0.2272 -0.8746 -3.1043
   41DOPE   H7Y 5257   1.380   4.185   6.828 -0.0055 -0.6150 -0.2806
   41DOPE   C38 5258   1.492   4.037   6.952 -0.3052 -0.5539  0.0035
   41DOPE   H8X 5259   1.427   3.947   6.954  0.2213 -0.9638 -0.7543
   41DOPE   H8Y 5260   1.455   4.113   7.024  1.2082  0.2049  0.0356
   41DOPE   C39 5261   1.633   4.001   6.978 -0.0660  0.2371 -0.3663
   41DOPE   H9X 5262   1.687   3.986   6.884 -1.5001 -0.8610 -1.0484
   41DOPE  C310 5263   1.679   3.986   7.102 -0.0022 -0.0602 -0.0182
   41DOPE  H10X 5264   1.782   3.950   7.115  0.0090 -1.0942 -2.4118
   41DOPE  C311 5265   1.602   4.015   7.227  0.5049  0.1010 -0.1057
   41DOPE  H11X 5266   1.530   4.100   7.223  0.4575  0.2205  2.1113
   41DOPE  H11Y 5267   1.536   3.929   7.250  1.1265 -1.0549 -2.3390
   41DOPE  C312 5268   1.678   4.038   7.359 -1.1858  0.4140 -0.2969
   41DOPE  H12X 5269   1.619   4.099   7.431  0.7427  1.8640  0.1451
   41DOPE  H12Y 5270   1.777   4.078   7.329 -0.6109 -2.0756 -1.9974
   41DOPE  C313 5271   1.706   3.904   7.424  0.0326  0.0691  0.2983
   41DOPE  H13X 5272   1.614   3.856   7.464 -0.8929  1.2246 -0.4026
   41DOPE  H13Y 5273   1.758   3.837   7.352  0.0274  1.1148 -0.7116
   41DOPE  C314 5274   1.793   3.940   7.548 -0.0685 -0.1377 -0.1022
   41DOPE  H14X 5275   1.736   4.008   7.615  0.4899  0.0481  0.1973
   41DOPE  H14Y 5276   1.883   3.995   7.511  0.4688 -0.1601  1.0847
   41DOPE  C315 5277   1.832   3.823   7.635 -0.2837 -0.3447  0.0526
   41DOPE  H15X 5278   1.740   3.779   7.680  1.0111 -2.0553  1.1381
   41DOPE  H15Y 5279   1.888   3.872   7.717 -0.9207  0.0686  0.2512
   41DOPE  C316 5280   1.922   3.719   7.562 -0.1464  0.0470  0.2459
   41DOPE  H16X 5281   1.998   3.769   7.497  0.0176 -0.7730 -0.2153
   41DOPE  H16Y 5282   1.860   3.664   7.488  2.5836  0.2011 -2.3457
   41DOPE  C317 5283   1.978   3.612   7.657 -0.7712 -0.3334 -1.0386
   41DOPE  H17X 5284   2.031   3.661   7.742 -1.2713 -1.4968 -0.0301
   41DOPE  H17Y 5285   1.899   3.553   7.709  0.8206 -1.0152  0.7431
   41DOPE  C318 5286   2.067   3.512   7.595  0.1748 -0.2068  0.0664
   41DOPE  H18X 5287   2.148   3.565   7.541 -1.2013 -0.2530 -2.1698
   41DOPE  H18Y 5288   2.106   3.436   7.666 -1.0565  0.4810  1.5433
   41DOPE  H18Z 5289   2.004   3.453   7.526  0.5731  0.4779 -0.9026
   42DOPE     N 5290   1.638   3.602   5.452 -0.5328 -0.4313  0.2815
   42DOPE   HN1 5291   1.625   3.562   5.548 -1.2112  0.9959  0.8213
   42DOPE   HN2 5292   1.548   3.595   5.401 -0.9492 -0.3938  0.9881
   42DOPE   HN3 5293   1.713   3.545   5.408 -3.2520 -2.3689 -2.2057
   42DOPE   C12 5294   1.666   3.754   5.467 -0.5960  0.3723  0.6609
   42DOPE  H12A 5295   1.715   3.779   5.370  1.3234  1.2093  1.7814
   42DOPE  H12B 5296   1.735   3.777   5.550 -1.4849  1.2328  1.1848
   42DOPE   C11 5297   1.537   3.832   5.474  0.3907 -0.1707 -0.1908
   42DOPE  H11A 5298   1.466   3.801   5.394 -0.5771 -0.4355  0.7424
   42DOPE  H11B 5299   1.547   3.942   5.462 -0.7717 -0.0726 -0.4266
   42DOPE     P 5300   1.331   3.791   5.629  0.3040 -0.1590 -0.2451
   42DOPE   O13 5301   1.272   3.692   5.533 -0.1687  0.0543  0.7032
   42DOPE   O14 5302   1.274   3.931   5.630  0.0720  0.8883 -0.3331
   42DOPE   O11 5303   1.320   3.733   5.777 -0.1127  0.0200  0.4035
   42DOPE   O12 5304   1.483   3.804   5.605  0.5011 -0.1243  0.7071
   42DOPE    C1 5305   1.407   3.768   5.882  0.3102  0.0086 -0.4775
   42DOPE    HA 5306   1.350   3.753   5.976  0.2743 -0.9216 -0.6357
   42DOPE    HB 5307   1.441   3.873   5.869  1.3048 -0.4654 -1.9735
   42DOPE    C2 5308   1.534   3.682   5.902  0.5393 -0.3505  0.2276
   42DOPE    HS 5309   1.599   3.703   5.814 -0.4707  0.4644 -0.3500
   42DOPE   O21 5310   1.502   3.543   5.917 -0.0510 -0.3091 -0.2046
   42DOPE   C21 5311   1.506   3.472   5.809  0.5378  0.3757  0.3039
   42DOPE   O22 5312   1.549   3.506   5.699  0.3103  0.3341 -0.4093
   42DOPE   C22 5313   1.456   3.331   5.846 -0.2386 -0.6941 -0.1902
   42DOPE   H2R 5314   1.453   3.257   5.763 -1.6124 -2.3567  1.2517
   42DOPE   H2S 5315   1.357   3.348   5.895  0.0567 -1.9660  0.9014
   42DOPE    C3 5316   1.609   3.729   6.025  0.0319 -0.2186  0.2447
   42DOPE    HX 5317   1.663   3.827   6.033 -1.2775  0.3771  2.5774
   42DOPE    HY 5318   1.691   3.656   6.036 -0.8577 -0.9634  2.3274
   42DOPE   O31 5319   1.517   3.722   6.139  0.5882 -0.0900  0.0636
   42DOPE   C31 5320   1.535   3.628   6.231 -0.9310  0.5555 -0.2013
   42DOPE   O32 5321   1.642   3.576   6.255 -0.5157 -0.0158  0.1615
   42DOPE   C32 5322   1.401   3.596   6.304  0.2351 -0.2958  0.0387
   42DOPE   H2X 5323   1.313   3.647   6.260 -0.0962 -0.4165  0.5403
   42DOPE   H2Y 5324   1.372   3.488   6.309 -3.1596  0.5247  0.4842
   42DOPE   C23 5325   1.552   3.283   5.960 -0.1434  1.0338  0.0375
   42DOPE   H3R 5326   1.529   3.339   6.053 -1.3525  0.3241  0.1727
   42DOPE   H3S 5327   1.662   3.283   5.941  0.0207 -0.4875  0.8936
   42DOPE   C24 5328   1.532   3.131   5.988 -0.4610 -0.1329  0.3703
   42DOPE   H4R 5329   1.510   3.077   5.893 -0.1665  1.2562 -0.5117
   42DOPE   H4S 5330   1.439   3.123   6.049 -0.8067  0.9732  0.0082
   42DOPE   C25 5331   1.639   3.068   6.075 -0.4844  0.3333 -0.1441
   42DOPE   H5R 5332   1.725   3.064   6.005 -1.7684  2.4501 -1.9811
   42DOPE   H5S 5333   1.603   2.964   6.091 -0.7447  0.3167 -0.8053
   42DOPE   C26 5334   1.670   3.153   6.199 -0.1599  0.1419 -0.4234
   42DOPE   H6R 5335   1.709   3.256   6.184  2.5705 -0.6630  0.5420
   42DOPE   H6S 5336   1.751   3.101   6.254  0.3991  0.6981 -0.7053
   42DOPE   C27 5337   1.557   3.170   6.301 -0.0730 -0.0829  0.9825
   42DOPE   H7R 5338   1.519   3.067   6.322  0.6946 -0.4244  0.7502
   42DOPE   H7S 5339   1.476   3.236   6.262  1.6918  0.6551 -1.6910
   42DOPE   C28 5340   1.611   3.225   6.438  0.1479 -0.4803  0.3791
   42DOPE   H8R 5341   1.643   3.328   6.412 -1.2824 -0.5568 -2.0341
   42DOPE   H8S 5342   1.697   3.159   6.462 -0.3618 -0.7910  1.4042
   42DOPE   C29 5343   1.511   3.230   6.555  0.1042  0.2269 -0.1411
   42DOPE   H9R 5344   1.415   3.263   6.512 -0.2064 -0.0284  0.3561
   42DOPE  C210 5345   1.537   3.217   6.686 -0.1371  0.7086 -0.7501
   42DOPE  H10R 5346   1.460   3.242   6.761  0.4907 -0.1036  0.1948
   42DOPE  C211 5347   1.673   3.211   6.759 -0.1874  0.4001 -0.3100
   42DOPE  H11R 5348   1.693   3.314   6.794 -2.3911  0.2184  1.7559
   42DOPE  H11S 5349   1.753   3.176   6.691 -0.1751  0.0710 -0.1306
   42DOPE  C212 5350   1.669   3.130   6.896 -1.0516 -0.1749 -0.8211
   42DOPE  H12R 5351   1.642   3.024   6.879  0.6977 -0.5249 -1.5904
   42DOPE  H12S 5352   1.593   3.170   6.966  1.8291  0.2579  2.3172
   42DOPE  C213 5353   1.813   3.135   6.968 -0.1619  0.0628 -0.1465
   42DOPE  H13R 5354   1.866   3.230   6.947 -2.3735  1.4706  0.2327
   42DOPE  H13S 5355   1.863   3.046   6.925 -2.7358  0.0280 -3.5598
   42DOPE  C214 5356   1.811   3.117   7.119  0.2730 -0.0617  0.1632
   42DOPE  H14R 5357   1.740   3.190   7.163  0.4348 -1.4813  3.0022
   42DOPE  H14S 5358   1.911   3.139   7.162  0.1497 -0.5940  0.7439
   42DOPE  C215 5359   1.763   2.979   7.157  0.8668  0.3459  0.3238
   42DOPE  H15R 5360   1.845   2.906   7.141 -0.0953 -1.4835  3.0340
   42DOPE  H15S 5361   1.677   2.950   7.093  0.5563  0.2267  0.7926
   42DOPE  C216 5362   1.716   2.973   7.301  0.4651 -0.8410 -0.0466
   42DOPE  H16R 5363   1.610   3.006   7.306  0.7469  0.0830 -0.0780
   42DOPE  H16S 5364   1.774   3.050   7.356  0.8330 -1.0606 -0.1230
   42DOPE  C217 5365   1.758   2.840   7.367 -0.1641  0.4326  0.0360
   42DOPE  H17R 5366   1.869   2.841   7.353 -0.3153  0.2859 -1.2480
   42DOPE  H17S 5367   1.740   2.737   7.328  2.0095 -0.3071  0.8060
   42DOPE  C218 5368   1.715   2.827   7.516 -0.6651  0.0409  0.3740
   42DOPE  H18R 5369   1.755   2.735   7.565 -3.5952 -1.7698 -0.4190
   42DOPE  H18S 5370   1.604   2.832   7.523 -0.8566  0.1776 -2.1012
   42DOPE  H18T 5371   1.751   2.910   7.581  1.4430 -3.2295  3.8353
   42DOPE   C33 5372   1.380   3.657   6.448 -0.1085 -0.4776  0.2033
   42DOPE   H3X 5373   1.274   3.656   6.482 -0.4978  1.3585 -0.8052
   42DOPE   H3Y 5374   1.419   3.761   6.441  0.8538 -0.8104  0.5563
   42DOPE   C34 5375   1.455   3.578   6.557  0.3358  0.0675 -0.8112
   42DOPE   H4X 5376   1.395   3.484   6.556 -2.4833  1.7756 -0.6471
   42DOPE   H4Y 5377   1.564   3.558   6.543  0.7921  0.8239  1.2147
   42DOPE   C35 5378   1.438   3.653   6.687 -0.0436  0.4298 -0.5252
   42DOPE   H5X 5379   1.330   3.675   6.699  0.0280 -0.5111  3.5166
   42DOPE   H5Y 5380   1.487   3.753   6.692 -0.1538  0.4249  2.5712
   42DOPE   C36 5381   1.485   3.574   6.797 -0.1621  0.2655 -0.5588
   42DOPE   H6X 5382   1.578   3.517   6.779 -0.8892 -1.0560 -0.2335
   42DOPE   H6Y 5383   1.406   3.501   6.824 -1.0738  1.7100  0.9278
   42DOPE   C37 5384   1.514   3.674   6.911 -0.6443 -0.7138 -0.5358
   42DOPE   H7X 5385   1.596   3.744   6.883 -1.9771  1.3688  0.5141
   42DOPE   H7Y 5386   1.429   3.739   6.940 -0.1822 -0.8254  1.2566
   42DOPE   C38 5387   1.569   3.605   7.037 -0.0095  0.1544  0.4231
   42DOPE   H8X 5388   1.635   3.674   7.095  0.9352  0.9986 -1.5728
   42DOPE   H8Y 5389   1.626   3.519   6.995 -0.0801 -0.5483  1.7194
   42DOPE   C39 5390   1.461   3.547   7.124  0.3215 -0.1542 -0.1882
   42DOPE   H9X 5391   1.359   3.579   7.099  0.0533 -1.2747 -0.5800
   42DOPE  C310 5392   1.489   3.493   7.248  0.0360  0.6282 -0.0544
   42DOPE  H10X 5393   1.404   3.467   7.313 -2.2373  0.1133 -2.9946
   42DOPE  C311 5394   1.625   3.471   7.308 -0.0624  0.4998 -0.4682
   42DOPE  H11X 5395   1.706   3.465   7.233 -1.7330  1.4086 -2.4483
   42DOPE  H11Y 5396   1.647   3.558   7.373 -3.3280  0.3278  1.0718
   42DOPE  C312 5397   1.625   3.350   7.399  0.0998 -0.3201 -0.2013
   42DOPE  H12X 5398   1.612   3.260   7.335  4.5433 -0.2651 -1.5061
   42DOPE  H12Y 5399   1.550   3.364   7.480  1.2010 -0.7011  0.9095
   42DOPE  C313 5400   1.764   3.328   7.455  0.1358 -0.4440  0.2876
   42DOPE  H13X 5401   1.824   3.282   7.374  0.1003  0.2719 -0.1540
   42DOPE  H13Y 5402   1.805   3.423   7.493 -1.4217  0.3358  0.0976
   42DOPE  C314 5403   1.753   3.242   7.581  0.1387  0.0810  0.0947
   42DOPE  H14X 5404   1.732   3.142   7.539  0.9846  0.2092 -0.6612
   42DOPE  H14Y 5405   1.676   3.285   7.649  1.3473 -1.5473  2.6711
   42DOPE  C315 5406   1.875   3.223   7.673 -0.2184  0.4938  0.4733
   42DOPE  H15X 5407   1.907   3.324   7.708  0.0061  0.1473  1.2938
   42DOPE  H15Y 5408   1.954   3.177   7.610 -1.6279  0.2210 -1.1446
   42DOPE  C316 5409   1.865   3.131   7.796  0.0879 -0.1685  0.2868
   42DOPE  H16X 5410   1.821   3.033   7.769  0.8738  0.8070 -5.8377
   42DOPE  H16Y 5411   1.792   3.179   7.865  0.1476 -1.1495  1.0584
   42DOPE  C317 5412   2.001   3.121   7.866  0.5178  0.4134 -0.3608
   42DOPE  H17X 5413   2.004   3.031   7.932  1.1213  1.7371  1.4973
   42DOPE  H17Y 5414   2.086   3.093   7.801  0.3809 -1.3441  0.1590
   42DOPE  C318 5415   2.040   3.246   7.941 -0.2727  0.3490  0.2309
   42DOPE  H18X 5416   1.960   3.286   8.007 -0.2860 -2.0928  1.7902
   42DOPE  H18Y 5417   2.130   3.231   8.004 -0.4551 -0.7370  0.2484
   42DOPE  H18Z 5418   2.064   3.333   7.877  2.4336  0.9661  1.9174
   43DOPE     N 5419   0.231   2.439   5.210 -0.2763 -0.3053  0.2734
   43DOPE   HN1 5420   0.155   2.454   5.280  0.4758  0.3873  0.9515
   43DOPE   HN2 5421   0.272   2.347   5.234 -1.8388 -1.9752 -2.7293
   43DOPE   HN3 5422   0.299   2.518   5.213  0.8414 -1.2155 -0.3354
   43DOPE   C12 5423   0.169   2.431   5.078  0.1366 -0.3806 -0.0427
   43DOPE  H12A 5424   0.141   2.326   5.057  0.3548 -0.5163  0.3472
   43DOPE  H12B 5425   0.243   2.469   5.003 -0.7864  0.6790 -0.4472
   43DOPE   C11 5426   0.049   2.526   5.052 -0.0112  0.3136  0.3858
   43DOPE  H11A 5427  -0.030   2.496   5.124  0.9286  0.5554  1.5501
   43DOPE  H11B 5428   0.004   2.513   4.951 -3.0425  2.5949  1.3040
   43DOPE     P 5429   0.045   2.748   5.193  0.1454  0.2128 -0.6055
   43DOPE   O13 5430  -0.096   2.763   5.179  0.2427 -0.0009 -0.3972
   43DOPE   O14 5431   0.123   2.873   5.197 -0.0924 -0.3571  0.2419
   43DOPE   O11 5432   0.074   2.648   5.313 -0.4309 -0.0139  0.1826
   43DOPE   O12 5433   0.087   2.659   5.073  0.8775 -0.0592 -0.2788
   43DOPE    C1 5434   0.067   2.689   5.448 -0.0530 -0.4305  0.3252
   43DOPE    HA 5435   0.009   2.616   5.507 -0.6135 -0.2142  0.0474
   43DOPE    HB 5436   0.012   2.785   5.458  0.2640 -0.3409  1.2771
   43DOPE    C2 5437   0.209   2.706   5.499 -0.3304 -0.2167 -0.4695
   43DOPE    HS 5438   0.270   2.749   5.416  0.9216 -1.6509 -0.3307
   43DOPE   O21 5439   0.261   2.578   5.542 -0.6014 -0.0952  0.1230
   43DOPE   C21 5440   0.398   2.579   5.527  0.0517 -0.5261  0.0898
   43DOPE   O22 5441   0.468   2.679   5.532  0.3925  0.2113 -0.4665
   43DOPE   C22 5442   0.454   2.439   5.511 -0.0096 -0.0776 -0.0998
   43DOPE   H2R 5443   0.511   2.438   5.415  3.8896 -0.1262  2.0082
   43DOPE   H2S 5444   0.374   2.361   5.510 -0.4285  0.2953  1.8096
   43DOPE    C3 5445   0.212   2.801   5.617  0.1793  0.2253 -0.1970
   43DOPE    HX 5446   0.184   2.898   5.571  2.5905  0.2049 -1.8665
   43DOPE    HY 5447   0.312   2.815   5.663  1.1061  0.6356 -2.2513
   43DOPE   O31 5448   0.108   2.773   5.723  0.6676 -0.5886  0.2436
   43DOPE   C31 5449   0.144   2.686   5.818 -0.0391 -0.2338 -0.0916
   43DOPE   O32 5450   0.257   2.642   5.831  0.1048 -0.2661  0.2762
   43DOPE   C32 5451   0.015   2.645   5.889  0.3799 -0.3837  0.2455
   43DOPE   H2X 5452  -0.056   2.730   5.900  0.2157 -0.8183  3.7513
   43DOPE   H2Y 5453  -0.033   2.562   5.834 -2.4054 -0.0355  1.9765
   43DOPE   C23 5454   0.546   2.405   5.628 -0.5754 -0.1379 -0.3368
   43DOPE   H3R 5455   0.616   2.490   5.638 -0.1231 -0.3253 -1.6349
   43DOPE   H3S 5456   0.602   2.310   5.613  0.5030  0.4573 -0.1706
   43DOPE   C24 5457   0.464   2.393   5.757 -0.5757  0.6910 -0.6141
   43DOPE   H4R 5458   0.383   2.322   5.732 -0.8669  0.6188  0.4779
   43DOPE   H4S 5459   0.419   2.486   5.797  1.4172  0.7311  1.7892
   43DOPE   C25 5460   0.543   2.329   5.872  0.0651 -1.0637 -0.4291
   43DOPE   H5R 5461   0.644   2.376   5.879 -0.3281 -0.4392  2.0654
   43DOPE   H5S 5462   0.562   2.227   5.834  0.9102 -0.5064 -1.5612
   43DOPE   C26 5463   0.466   2.344   5.999  0.0413  0.3158 -0.3805
   43DOPE   H6R 5464   0.362   2.305   5.993  0.3879 -1.3119  2.2440
   43DOPE   H6S 5465   0.451   2.452   6.016 -0.7780  0.1399  0.0737
   43DOPE   C27 5466   0.533   2.295   6.127 -0.2822 -0.0030  0.6676
   43DOPE   H7R 5467   0.627   2.354   6.121 -1.0274  1.0992 -0.7498
   43DOPE   H7S 5468   0.569   2.191   6.116 -0.8740 -0.1740  0.2458
   43DOPE   C28 5469   0.450   2.309   6.258 -0.3008 -0.1984  0.5634
   43DOPE   H8R 5470   0.356   2.251   6.254  0.5276 -1.6085  0.7769
   43DOPE   H8S 5471   0.414   2.413   6.243  0.8581 -0.1882 -2.9649
   43DOPE   C29 5472   0.528   2.271   6.377  1.0421 -0.1030 -0.4998
   43DOPE   H9R 5473   0.611   2.202   6.358  2.6745  1.1624  1.5606
   43DOPE  C210 5474   0.501   2.311   6.503 -0.6479  0.4782  0.4153
   43DOPE  H10R 5475   0.553   2.261   6.586 -0.2377  2.6279  1.5297
   43DOPE  C211 5476   0.406   2.426   6.529  0.1029 -0.7789 -0.1249
   43DOPE  H11R 5477   0.304   2.384   6.542 -0.6526  1.5257  2.0794
   43DOPE  H11S 5478   0.399   2.498   6.445  0.1181 -0.2961  0.2842
   43DOPE  C212 5479   0.443   2.521   6.641  0.0276 -0.4691  0.1721
   43DOPE  H12R 5480   0.378   2.611   6.645  2.7031  1.5774  3.1539
   43DOPE  H12S 5481   0.543   2.561   6.614  0.4244 -1.3279  0.3373
   43DOPE  C213 5482   0.452   2.466   6.786  0.4869 -0.0378  1.4684
   43DOPE  H13R 5483   0.535   2.393   6.794  0.0811 -0.8358 -0.7151
   43DOPE  H13S 5484   0.356   2.421   6.817  0.2890 -0.2768  0.5565
   43DOPE  C214 5485   0.479   2.585   6.883 -0.1711  0.1418 -0.0902
   43DOPE  H14R 5486   0.470   2.546   6.987 -0.1898 -0.7421 -0.4146
   43DOPE  H14S 5487   0.398   2.658   6.862  1.4982  2.0981 -0.0628
   43DOPE  C215 5488   0.624   2.646   6.871 -0.0276 -0.5187 -0.0131
   43DOPE  H15R 5489   0.642   2.681   6.767  2.5283  0.2633  0.6306
   43DOPE  H15S 5490   0.687   2.554   6.874 -1.2334 -1.4260 -1.3639
   43DOPE  C216 5491   0.668   2.747   6.975 -0.0962  0.1522  0.7172
   43DOPE  H16R 5492   0.779   2.736   6.985 -0.1721 -2.2557 -0.3180
   43DOPE  H16S 5493   0.620   2.721   7.072 -1.2818 -0.2521  0.0318
   43DOPE  C217 5494   0.625   2.891   6.939 -0.7886 -0.7767 -0.2614
   43DOPE  H17R 5495   0.523   2.879   6.896 -1.1796 -3.7936  1.2829
   43DOPE  H17S 5496   0.689   2.934   6.859 -1.8423  1.0681 -0.1982
   43DOPE  C218 5497   0.630   2.986   7.063  0.5540 -0.1564 -0.7753
   43DOPE  H18R 5498   0.734   2.988   7.102 -0.1170 -0.3622  1.1040
   43DOPE  H18S 5499   0.564   2.967   7.150  2.2709  1.1916  0.9105
   43DOPE  H18T 5500   0.595   3.085   7.024  0.0343 -0.1283 -0.2546
   43DOPE   C33 5501   0.036   2.581   6.027 -0.1840 -0.3655 -0.3711
   43DOPE   H3X 5502   0.090   2.654   6.091 -0.6172  0.5431 -1.0223
   43DOPE   H3Y 5503   0.095   2.488   6.017  0.6558  0.1608 -0.3573
   43DOPE   C34 5504  -0.102   2.566   6.092  0.1859 -1.0837  0.4116
   43DOPE   H4X 5505  -0.156   2.662   6.105  2.2630  0.3417 -0.8372
   43DOPE   H4Y 5506  -0.172   2.498   6.038  2.6717 -3.2693 -0.2976
   43DOPE   C35 5507  -0.082   2.496   6.223 -0.9519 -0.3362 -0.0056
   43DOPE   H5X 5508  -0.028   2.400   6.214  2.7457  1.6400 -0.5346
   43DOPE   H5Y 5509  -0.182   2.489   6.272 -1.1777 -0.4891 -0.4858
   43DOPE   C36 5510  -0.009   2.580   6.329 -0.0361  0.4076  0.2805
   43DOPE   H6X 5511  -0.069   2.673   6.340 -1.0570 -0.3053  0.8550
   43DOPE   H6Y 5512   0.098   2.600   6.304  0.5889 -0.5916  2.0066
   43DOPE   C37 5513  -0.003   2.490   6.455  0.0095 -0.0584  0.1214
   43DOPE   H7X 5514  -0.104   2.446   6.471  0.9559 -2.5291 -0.2990
   43DOPE   H7Y 5515   0.062   2.402   6.436 -0.3536 -0.9534  2.5554
   43DOPE   C38 5516   0.049   2.566   6.583  0.2063  0.2553  0.1256
   43DOPE   H8X 5517  -0.031   2.640   6.604  0.5439  0.9280 -0.8573
   43DOPE   H8Y 5518   0.140   2.625   6.558 -0.0620  0.2276 -1.0032
   43DOPE   C39 5519   0.078   2.488   6.702  0.0390  0.4680 -0.1897
   43DOPE   H9X 5520   0.084   2.379   6.685 -0.3095  0.4409 -0.1615
   43DOPE  C310 5521   0.086   2.537   6.825  0.1725 -0.1296  0.2601
   43DOPE  H10X 5522   0.119   2.472   6.908 -0.0039  0.7383  1.0224
   43DOPE  C311 5523   0.083   2.680   6.872  0.3141  0.2319 -0.2164
   43DOPE  H11X 5524   0.157   2.743   6.817  0.5252  0.8087  0.7023
   43DOPE  H11Y 5525  -0.013   2.727   6.844  0.1331  1.4774  2.2216
   43DOPE  C312 5526   0.107   2.711   7.025 -0.0419 -0.6774 -0.4170
   43DOPE  H12X 5527   0.189   2.643   7.056 -1.2812 -2.5197 -0.9925
   43DOPE  H12Y 5528   0.022   2.678   7.089  1.0461  0.8275  1.9393
   43DOPE  C313 5529   0.138   2.861   7.054  0.3752  0.3403  0.5799
   43DOPE  H13X 5530   0.219   2.889   6.983 -0.3449  1.8892  0.3337
   43DOPE  H13Y 5531   0.058   2.933   7.029  1.7263  1.2830 -1.3156
   43DOPE  C314 5532   0.182   2.874   7.199  0.3770  0.2259  0.1589
   43DOPE  H14X 5533   0.272   2.809   7.202 -1.0105 -1.7612  0.6968
   43DOPE  H14Y 5534   0.101   2.830   7.260  1.7448 -1.2858  0.9535
   43DOPE  C315 5535   0.212   3.022   7.227  0.7813 -0.3864 -0.1370
   43DOPE  H15X 5536   0.120   3.077   7.199  1.7993  1.6666  0.3077
   43DOPE  H15Y 5537   0.300   3.069   7.177  2.2625 -2.6851  0.1618
   43DOPE  C316 5538   0.227   3.052   7.380 -0.0239  0.5623 -0.9854
   43DOPE  H16X 5539   0.158   2.985   7.435 -1.5470  3.4138  0.8050
   43DOPE  H16Y 5540   0.196   3.155   7.407  0.0656  0.6483 -1.2077
   43DOPE  C317 5541   0.361   3.024   7.446  0.4699 -0.2016 -0.3333
   43DOPE  H17X 5542   0.373   2.914   7.437 -0.6034 -0.2705 -1.1914
   43DOPE  H17Y 5543   0.436   3.072   7.380 -0.4109 -0.6454 -1.6993
   43DOPE  C318 5544   0.375   3.075   7.586 -0.3649  0.0841 -0.7498
   43DOPE  H18X 5545   0.375   3.185   7.597  1.5692 -0.0884  1.7911
   43DOPE  H18Y 5546   0.295   3.025   7.645  0.2658  0.4582  0.4358
   43DOPE  H18Z 5547   0.466   3.032   7.632 -1.7624 -1.2761  0.8999
   44DOPE     N 5548   2.811   1.372   4.615 -0.4048 -0.2140  0.6022
   44DOPE   HN1 5549   2.838   1.272   4.610 -0.7944 -0.2828 -0.2519
   44DOPE   HN2 5550   2.770   1.396   4.523  0.8211  1.0077  0.3437
   44DOPE   HN3 5551   2.901   1.422   4.624 -1.1874  2.0611 -2.5704
   44DOPE   C12 5552   2.720   1.386   4.730  0.5847  0.3634 -0.9282
   44DOPE  H12A 5553   2.643   1.306   4.732  0.5028  0.4065  1.5878
   44DOPE  H12B 5554   2.680   1.490   4.729  2.5945  1.2008 -0.2661
   44DOPE   C11 5555   2.799   1.370   4.868  0.1983 -0.0731 -0.0116
   44DOPE  H11A 5556   2.826   1.262   4.865 -0.0684 -0.1260 -0.4611
   44DOPE  H11B 5557   2.734   1.381   4.958  1.7284 -0.8640  1.2447
   44DOPE     P 5558   2.884   1.605   4.945  0.1564  0.0641 -0.1962
   44DOPE   O13 5559   2.794   1.686   4.861 -0.7770  0.3700  0.0194
   44DOPE   O14 5560   3.015   1.665   4.983  0.3308  0.3472  0.0827
   44DOPE   O11 5561   2.800   1.567   5.077  0.5356 -0.2596  0.0632
   44DOPE   O12 5562   2.910   1.461   4.877 -0.2296 -0.1200  0.2490
   44DOPE    C1 5563   2.873   1.570   5.199 -0.2685  0.1068 -0.5769
   44DOPE    HA 5564   2.846   1.661   5.258  2.9635  1.3977 -0.8954
   44DOPE    HB 5565   2.983   1.568   5.185  0.1010  0.6518  1.7082
   44DOPE    C2 5566   2.845   1.441   5.283 -0.2431 -0.0359  0.6026
   44DOPE    HS 5567   2.867   1.365   5.205  2.8319  2.1495 -0.8817
   44DOPE   O21 5568   2.706   1.431   5.317 -0.1225 -0.0570 -0.6388
   44DOPE   C21 5569   2.660   1.303   5.318 -1.0572 -0.1029  0.5791
   44DOPE   O22 5570   2.729   1.211   5.272  0.0288  0.1995 -0.1255
   44DOPE   C22 5571   2.521   1.299   5.376 -0.1003 -0.0980 -0.1203
   44DOPE   H2R 5572   2.456   1.290   5.287 -2.7189 -2.0260  1.7927
   44DOPE   H2S 5573   2.501   1.402   5.413  1.3084  0.4609 -0.8336
   44DOPE    C3 5574   2.931   1.418   5.407 -0.2073 -0.6542 -0.1369
   44DOPE    HX 5575   3.034   1.414   5.367  0.6647  0.2239  1.8626
   44DOPE    HY 5576   2.908   1.315   5.444  1.0149 -1.4300 -1.3961
   44DOPE   O31 5577   2.927   1.514   5.513 -0.1006  0.5451 -0.0976
   44DOPE   C31 5578   3.042   1.559   5.567 -0.2611  0.1641  0.5768
   44DOPE   O32 5579   3.158   1.519   5.535  0.9623 -0.2361 -0.2643
   44DOPE   C32 5580   3.016   1.670   5.672 -0.2419  0.2160  0.0159
   44DOPE   H2X 5581   3.030   1.766   5.619 -0.2819 -0.4991 -1.3431
   44DOPE   H2Y 5582   2.912   1.654   5.709  0.5732 -1.0544  1.9728
   44DOPE   C23 5583   2.479   1.186   5.466 -0.1353  0.7148 -0.3457
   44DOPE   H3R 5584   2.492   1.088   5.415 -3.0632  0.3137 -0.5047
   44DOPE   H3S 5585   2.370   1.193   5.489 -0.4727 -1.5036 -1.0250
   44DOPE   C24 5586   2.546   1.189   5.606  0.1586  0.9591  0.1750
   44DOPE   H4R 5587   2.487   1.127   5.677  1.5155 -0.2763  0.2715
   44DOPE   H4S 5588   2.541   1.290   5.651 -2.3396  1.3470 -0.7815
   44DOPE   C25 5589   2.682   1.114   5.604  0.0864  0.6017  0.6889
   44DOPE   H5R 5590   2.764   1.169   5.552  0.9123 -1.1204  0.0828
   44DOPE   H5S 5591   2.666   1.012   5.562  1.7008  0.0946  1.1937
   44DOPE   C26 5592   2.743   1.087   5.743 -0.4402  0.4111 -0.1592
   44DOPE   H6R 5593   2.682   1.021   5.808  0.0723  0.1315  0.0490
   44DOPE   H6S 5594   2.731   1.185   5.794 -2.5304  0.1785 -0.1358
   44DOPE   C27 5595   2.890   1.044   5.742 -0.7388 -0.2492 -0.3631
   44DOPE   H7R 5596   2.945   1.122   5.684 -0.4438 -0.6224 -0.5896
   44DOPE   H7S 5597   2.907   0.952   5.682  0.3324 -0.7892  0.7295
   44DOPE   C28 5598   2.958   1.044   5.878 -0.7687  0.0170 -0.3881
   44DOPE   H8R 5599   2.907   0.970   5.943  0.5866 -1.1023 -0.5308
   44DOPE   H8S 5600   2.925   1.142   5.919  0.1667 -0.3919  1.4799
   44DOPE   C29 5601   3.112   1.034   5.887 -0.1537  0.0979 -0.3450
   44DOPE   H9R 5602   3.148   0.951   5.825 -1.2758  1.1308 -2.5001
   44DOPE  C210 5603   3.197   1.111   5.957  0.5588 -0.0522  0.2432
   44DOPE  H10R 5604   3.301   1.080   5.939  0.3060  0.9852 -3.7991
   44DOPE  C211 5605   3.169   1.220   6.058 -0.2188  0.0645  0.5461
   44DOPE  H11R 5606   3.062   1.248   6.045 -0.4029 -0.9467 -0.2489
   44DOPE  H11S 5607   3.230   1.308   6.027  0.9333 -0.4713  1.2265
   44DOPE  C212 5608   3.200   1.193   6.207  0.4668  0.2382 -0.2565
   44DOPE  H12R 5609   3.277   1.113   6.212  1.0719  0.8862  1.3211
   44DOPE  H12S 5610   3.105   1.152   6.248 -0.4047  2.4002 -0.0201
   44DOPE  C213 5611   3.226   1.317   6.285  1.1003 -0.6541 -0.1745
   44DOPE  H13R 5612   3.144   1.391   6.275  1.9238  0.0877 -1.8172
   44DOPE  H13S 5613   3.329   1.351   6.257  1.3531  1.0511  2.4503
   44DOPE  C214 5614   3.225   1.288   6.438  0.2280 -0.6640 -0.5908
   44DOPE  H14R 5615   3.290   1.198   6.451 -1.8561 -2.3788 -1.4284
   44DOPE  H14S 5616   3.125   1.260   6.476  0.5011 -1.1025 -0.1812
   44DOPE  C215 5617   3.281   1.400   6.528  0.0476 -0.1091 -0.1230
   44DOPE  H15R 5618   3.211   1.485   6.519  1.7663  1.3193 -0.4838
   44DOPE  H15S 5619   3.383   1.432   6.497 -0.1644  0.3720 -0.3210
   44DOPE  C216 5620   3.286   1.365   6.676 -0.0524  1.1238  0.3940
   44DOPE  H16R 5621   3.362   1.287   6.695 -0.1938  0.4418 -1.6146
   44DOPE  H16S 5622   3.184   1.327   6.696 -0.2532  1.9327  0.9736
   44DOPE  C217 5623   3.314   1.477   6.772  0.4236  0.0280 -0.5062
   44DOPE  H17R 5624   3.235   1.553   6.753  0.3627  0.0804 -0.0527
   44DOPE  H17S 5625   3.410   1.530   6.758 -0.0567  0.9566 -0.3780
   44DOPE  C218 5626   3.291   1.435   6.916  0.9375  0.3947 -0.1355
   44DOPE  H18R 5627   3.367   1.366   6.956  0.4810  0.2596  0.5150
   44DOPE  H18S 5628   3.197   1.376   6.927  0.3307  1.5160  1.0018
   44DOPE  H18T 5629   3.278   1.522   6.985 -2.8279 -0.1971  0.1465
   44DOPE   C33 5630   3.110   1.661   5.801  0.6442  0.4056  1.2378
   44DOPE   H3X 5631   3.218   1.657   5.776  0.3367 -1.8095  0.0835
   44DOPE   H3Y 5632   3.078   1.572   5.859  0.7871  0.3099  1.1682
   44DOPE   C34 5633   3.088   1.783   5.889 -1.3317  0.1025  0.3948
   44DOPE   H4X 5634   3.178   1.792   5.955  1.6657 -0.4222 -3.2773
   44DOPE   H4Y 5635   3.097   1.881   5.836 -1.9905  0.9417  1.7573
   44DOPE   C35 5636   2.956   1.778   5.964  0.4336  0.6163  0.0522
   44DOPE   H5X 5637   2.868   1.748   5.904  0.5548  0.7123 -0.1736
   44DOPE   H5Y 5638   2.931   1.881   5.998 -0.4483  0.9570 -1.5485
   44DOPE   C36 5639   2.960   1.691   6.092 -0.3405  0.0344 -1.1291
   44DOPE   H6X 5640   3.057   1.718   6.139  0.5786 -0.5033 -2.6217
   44DOPE   H6Y 5641   2.968   1.582   6.071  3.0402  0.1773 -1.1428
   44DOPE   C37 5642   2.837   1.710   6.192 -0.0567 -0.5551  0.4082
   44DOPE   H7X 5643   2.805   1.816   6.205 -0.6853 -0.8792  1.6700
   44DOPE   H7Y 5644   2.754   1.658   6.140 -1.3075  0.0053  1.7710
   44DOPE   C38 5645   2.844   1.648   6.331  0.7396 -1.0226  0.1153
   44DOPE   H8X 5646   2.882   1.544   6.331 -1.6885 -2.0583 -2.4325
   44DOPE   H8Y 5647   2.739   1.647   6.369  0.9190  0.3146  0.7109
   44DOPE   C39 5648   2.940   1.731   6.412 -0.2758 -0.4636  0.3135
   44DOPE   H9X 5649   3.044   1.721   6.375 -0.5814 -2.1122 -0.1618
   44DOPE  C310 5650   2.916   1.828   6.503  0.0235 -0.5411  0.2292
   44DOPE  H10X 5651   3.004   1.871   6.555 -1.2639  0.4817  1.6579
   44DOPE  C311 5652   2.779   1.874   6.545  0.4159 -0.1368  0.3452
   44DOPE  H11X 5653   2.743   1.961   6.486 -0.3397  0.1142  1.1483
   44DOPE  H11Y 5654   2.702   1.799   6.519  0.2429  0.2677 -0.3218
   44DOPE  C312 5655   2.766   1.908   6.696 -0.1895  0.3359  0.6307
   44DOPE  H12X 5656   2.673   1.962   6.723  1.0928  2.5132  0.9127
   44DOPE  H12Y 5657   2.846   1.973   6.736 -0.7874  0.9008  0.9194
   44DOPE  C313 5658   2.776   1.770   6.775  0.2952  0.4356  0.1849
   44DOPE  H13X 5659   2.699   1.696   6.741  2.5850 -1.7973 -0.4572
   44DOPE  H13Y 5660   2.876   1.721   6.777  0.5568  0.9819  2.2327
   44DOPE  C314 5661   2.747   1.806   6.926  0.7765  0.8337 -0.0281
   44DOPE  H14X 5662   2.639   1.832   6.932  0.1254 -1.8396  1.5514
   44DOPE  H14Y 5663   2.802   1.896   6.961  0.2446  1.4298 -0.7069
   44DOPE  C315 5664   2.764   1.688   7.026 -0.4028  0.0090 -0.7214
   44DOPE  H15X 5665   2.863   1.639   7.026 -0.7090 -0.6831  1.0663
   44DOPE  H15Y 5666   2.692   1.607   7.004 -1.5966  0.5851  0.8493
   44DOPE  C316 5667   2.742   1.723   7.175  0.2032 -0.1804 -0.1214
   44DOPE  H16X 5668   2.635   1.745   7.193 -0.5246 -2.8342 -0.6624
   44DOPE  H16Y 5669   2.803   1.813   7.197  2.4116 -1.6923  0.2926
   44DOPE  C317 5670   2.786   1.612   7.275 -0.3148  0.4742 -0.0038
   44DOPE  H17X 5671   2.750   1.512   7.244  0.9816 -0.5914  1.7298
   44DOPE  H17Y 5672   2.897   1.619   7.276 -0.4051  2.5595  0.7863
   44DOPE  C318 5673   2.738   1.631   7.417 -0.2286  0.3437  0.3049
   44DOPE  H18X 5674   2.803   1.565   7.479  0.0455  0.5616  0.2492
   44DOPE  H18Y 5675   2.739   1.732   7.464 -1.3752  1.4053 -1.8220
   44DOPE  H18Z 5676   2.632   1.601   7.426  0.1605 -1.4648 -0.7020
   45DOPE     N 5677   3.765   0.511   5.477 -0.5244  0.1008 -0.1795
   45DOPE   HN1 5678   3.719   0.418   5.485  0.1351 -0.1367  1.1990
   45DOPE   HN2 5679   3.867   0.503   5.457  0.1312 -1.5404  3.0396
   45DOPE   HN3 5680   3.754   0.553   5.571  2.9948 -0.6947  0.7356
   45DOPE   C12 5681   3.714   0.600   5.369 -0.1732 -0.2659  0.4622
   45DOPE  H12A 5682   3.614   0.640   5.396 -0.1024  1.7400 -1.8448
   45DOPE  H12B 5683   3.712   0.537   5.278  1.0859  1.9595 -1.2191
   45DOPE   C11 5684   3.807   0.725   5.356  0.3520  0.8723  0.0584
   45DOPE  H11A 5685   3.804   0.785   5.449  0.2257  0.3690  0.3837
   45DOPE  H11B 5686   3.758   0.781   5.274 -3.3487 -1.3254  0.5621
   45DOPE     P 5687   4.036   0.788   5.255 -0.2918  0.0123 -0.1527
   45DOPE   O13 5688   3.994   0.805   5.109 -0.2914  0.3211 -0.2163
   45DOPE   O14 5689   4.177   0.747   5.272  0.5024 -0.0570 -0.3677
   45DOPE   O11 5690   4.000   0.927   5.334  0.0606  0.2519  0.5073
   45DOPE   O12 5691   3.943   0.680   5.324  0.5966 -0.3991 -0.0315
   45DOPE    C1 5692   4.083   0.963   5.446 -0.5169 -0.8921 -0.1270
   45DOPE    HA 5693   4.125   1.063   5.424  2.5731 -2.7581 -3.7804
   45DOPE    HB 5694   4.176   0.903   5.452  0.6796  0.9124  0.2327
   45DOPE    C2 5695   4.005   0.952   5.584  0.0120 -0.4972  0.9134
   45DOPE    HS 5696   3.943   0.860   5.586 -0.9679  0.0605 -1.1664
   45DOPE   O21 5697   3.913   1.067   5.593 -0.0712  0.7863  0.0386
   45DOPE   C21 5698   3.794   1.043   5.641 -0.0641  0.9428  0.0961
   45DOPE   O22 5699   3.740   0.935   5.662 -0.3836  0.0583  0.6130
   45DOPE   C22 5700   3.724   1.177   5.670 -0.0942 -0.5543 -0.0388
   45DOPE   H2R 5701   3.697   1.207   5.567  0.9635  2.8416  0.5361
   45DOPE   H2S 5702   3.796   1.259   5.692 -0.6048  0.1345 -0.8775
   45DOPE    C3 5703   4.091   0.948   5.711  0.1731  0.5004  0.2590
   45DOPE    HX 5704   4.131   1.049   5.734  3.4036 -0.6412  0.1746
   45DOPE    HY 5705   4.172   0.878   5.681 -0.6404  0.4778 -2.1331
   45DOPE   O31 5706   4.006   0.907   5.823 -0.3487  0.4145 -0.3118
   45DOPE   C31 5707   4.062   0.918   5.943  0.2607 -0.2469  0.3049
   45DOPE   O32 5708   4.177   0.950   5.964 -0.0851  0.1751 -0.4874
   45DOPE   C32 5709   3.961   0.880   6.049 -0.2577 -0.2365 -0.7547
   45DOPE   H2X 5710   3.883   0.956   6.072 -0.0659 -0.5891  1.2319
   45DOPE   H2Y 5711   3.908   0.791   6.010  1.0548 -0.9157 -1.0541
   45DOPE   C23 5712   3.606   1.153   5.767  0.1151  0.0682  0.8709
   45DOPE   H3R 5713   3.549   1.062   5.736 -0.4082  1.2576 -1.9497
   45DOPE   H3S 5714   3.526   1.230   5.778  0.1464  0.1898  0.2757
   45DOPE   C24 5715   3.648   1.147   5.911 -0.3479 -0.3545  0.1173
   45DOPE   H4R 5716   3.707   1.056   5.935  1.2782  0.2725 -1.3430
   45DOPE   H4S 5717   3.550   1.136   5.964 -1.6328  0.9051 -1.8624
   45DOPE   C25 5718   3.731   1.259   5.962 -0.1359 -0.8494  0.1239
   45DOPE   H5R 5719   3.665   1.348   5.955 -1.5319 -1.8342  0.2819
   45DOPE   H5S 5720   3.826   1.253   5.905  1.0095 -2.0256  2.0407
   45DOPE   C26 5721   3.778   1.245   6.103  0.1750 -0.9011 -0.3716
   45DOPE   H6R 5722   3.843   1.332   6.130 -0.3880 -1.1314  1.9695
   45DOPE   H6S 5723   3.849   1.159   6.099  1.1169 -0.0969 -1.6699
   45DOPE   C27 5724   3.669   1.246   6.215 -0.9231  0.5700 -0.2697
   45DOPE   H7R 5725   3.618   1.147   6.217  0.5720 -0.2752  2.2543
   45DOPE   H7S 5726   3.585   1.314   6.192 -4.3226 -2.4196  2.1872
   45DOPE   C28 5727   3.720   1.260   6.361 -0.1321  0.3167 -0.1450
   45DOPE   H8R 5728   3.812   1.203   6.386 -1.5869 -0.9432  2.8970
   45DOPE   H8S 5729   3.644   1.226   6.434  0.5868  2.3540  1.6674
   45DOPE   C29 5730   3.737   1.412   6.379  0.1439  0.1534 -0.4462
   45DOPE   H9R 5731   3.767   1.465   6.288 -0.6451  1.1697 -0.1257
   45DOPE  C210 5732   3.715   1.487   6.485  1.3298  0.1440 -0.7758
   45DOPE  H10R 5733   3.733   1.595   6.487  1.2879  0.1707  1.9781
   45DOPE  C211 5734   3.704   1.429   6.621  0.7468 -0.4612  0.2339
   45DOPE  H11R 5735   3.779   1.352   6.649 -0.3460 -0.9858  1.8532
   45DOPE  H11S 5736   3.609   1.377   6.644  0.0968  0.9242  0.7550
   45DOPE  C212 5737   3.713   1.542   6.726 -0.2259 -0.1546 -0.3456
   45DOPE  H12R 5738   3.651   1.629   6.698  2.3220  1.9670  0.2652
   45DOPE  H12S 5739   3.817   1.581   6.724  0.0311 -0.8270 -2.0009
   45DOPE  C213 5740   3.669   1.499   6.872 -0.5065 -0.4940 -0.2768
   45DOPE  H13R 5741   3.745   1.438   6.926 -0.2209 -0.7785 -0.9875
   45DOPE  H13S 5742   3.573   1.444   6.870 -1.8320  1.7340 -1.4988
   45DOPE  C214 5743   3.658   1.634   6.954  0.2165 -0.2595  0.0047
   45DOPE  H14R 5744   3.589   1.705   6.905  0.1953 -0.3836 -0.1464
   45DOPE  H14S 5745   3.758   1.680   6.962  1.0014 -1.5753 -1.6359
   45DOPE  C215 5746   3.595   1.608   7.095 -0.0985 -0.2267 -0.0926
   45DOPE  H15R 5747   3.667   1.534   7.136  1.0663  0.7477 -0.3308
   45DOPE  H15S 5748   3.496   1.563   7.072  0.2255 -0.5069 -0.9625
   45DOPE  C216 5749   3.593   1.735   7.172 -0.0664 -0.0606  0.2880
   45DOPE  H16R 5750   3.522   1.805   7.124  0.8095 -1.0562 -2.6685
   45DOPE  H16S 5751   3.693   1.783   7.163 -0.5607  1.0053  0.2892
   45DOPE  C217 5752   3.568   1.713   7.323 -0.4094  0.6149 -0.4313
   45DOPE  H17R 5753   3.634   1.624   7.320 -2.1357 -0.7004 -1.8369
   45DOPE  H17S 5754   3.463   1.676   7.323 -0.4458  0.6952 -1.2557
   45DOPE  C218 5755   3.593   1.830   7.411 -0.1596 -0.0365  0.2502
   45DOPE  H18R 5756   3.558   1.803   7.513 -0.3102  1.6936  0.6787
   45DOPE  H18S 5757   3.547   1.925   7.378 -0.1261  0.5890  1.9137
   45DOPE  H18T 5758   3.701   1.854   7.422  0.4418 -2.5729  0.6594
   45DOPE   C33 5759   4.021   0.867   6.189  0.2608  0.3576  0.0123
   45DOPE   H3X 5760   4.092   0.952   6.194  0.5449  0.2742 -1.8689
   45DOPE   H3Y 5761   4.074   0.770   6.188  1.1801  0.8460 -0.8470
   45DOPE   C34 5762   3.920   0.886   6.303 -0.2653  0.2946  0.6041
   45DOPE   H4X 5763   3.996   0.887   6.383  2.4580  2.0071 -1.7991
   45DOPE   H4Y 5764   3.875   0.987   6.301 -0.0936  0.3873  1.2165
   45DOPE   C35 5765   3.818   0.776   6.315  0.7830 -0.7358 -0.1828
   45DOPE   H5X 5766   3.872   0.681   6.333 -1.0773 -1.4613  1.9761
   45DOPE   H5Y 5767   3.764   0.765   6.218 -1.0389  0.7675  0.6120
   45DOPE   C36 5768   3.727   0.805   6.438  0.5579  0.0353  0.4365
   45DOPE   H6X 5769   3.657   0.720   6.449  0.6099 -0.0509  0.1229
   45DOPE   H6Y 5770   3.669   0.896   6.411  0.8645  0.4317  1.0866
   45DOPE   C37 5771   3.796   0.839   6.575 -0.0210 -0.2520 -0.4637
   45DOPE   H7X 5772   3.844   0.748   6.614 -1.4046 -0.9130 -0.2424
   45DOPE   H7Y 5773   3.886   0.902   6.558  0.9855 -1.4847  0.1474
   45DOPE   C38 5774   3.708   0.879   6.693 -0.0531 -0.2590  0.3168
   45DOPE   H8X 5775   3.761   0.832   6.779  2.0561  0.2175 -0.6637
   45DOPE   H8Y 5776   3.610   0.825   6.688 -0.4024  0.4331 -0.5049
   45DOPE   C39 5777   3.678   1.025   6.713  0.1028 -0.3712 -0.0563
   45DOPE   H9X 5778   3.633   1.072   6.624 -0.5317 -0.6668  0.1012
   45DOPE  C310 5779   3.721   1.102   6.813  0.2696 -0.2076 -0.2931
   45DOPE  H10X 5780   3.707   1.212   6.815 -0.0657 -0.2539  0.6653
   45DOPE  C311 5781   3.807   1.058   6.929 -0.0338 -0.8538  0.1056
   45DOPE  H11X 5782   3.862   0.962   6.914 -0.0545 -0.6454 -1.4893
   45DOPE  H11Y 5783   3.887   1.135   6.937 -1.8331  1.1305 -0.0697
   45DOPE  C312 5784   3.727   1.044   7.061 -0.5207  0.2094 -0.3459
   45DOPE  H12X 5785   3.803   1.014   7.135 -0.6563  1.9901  0.5811
   45DOPE  H12Y 5786   3.655   0.961   7.047  1.3077 -1.5734  0.4044
   45DOPE  C313 5787   3.656   1.175   7.102 -0.6812 -0.0004 -0.4021
   45DOPE  H13X 5788   3.735   1.252   7.112 -0.3182 -0.3116 -0.8723
   45DOPE  H13Y 5789   3.588   1.206   7.020  0.0295 -1.4933 -1.6114
   45DOPE  C314 5790   3.578   1.163   7.227  0.1153 -1.1533  0.2100
   45DOPE  H14X 5791   3.650   1.163   7.312  0.1879 -0.5190  0.1537
   45DOPE  H14Y 5792   3.519   1.069   7.230  0.3299 -1.2698  1.7643
   45DOPE  C315 5793   3.479   1.281   7.250  0.0736 -0.1755  0.0011
   45DOPE  H15X 5794   3.413   1.269   7.162  0.0166  0.4095 -0.0377
   45DOPE  H15Y 5795   3.539   1.374   7.257 -1.0240  0.6206 -0.7366
   45DOPE  C316 5796   3.398   1.275   7.375  0.3514  0.7797  0.1575
   45DOPE  H16X 5797   3.473   1.286   7.457  0.0413  2.3863  0.2609
   45DOPE  H16Y 5798   3.347   1.177   7.386  0.0481  1.0524  1.2603
   45DOPE  C317 5799   3.301   1.398   7.375 -0.1120  0.3842  0.5491
   45DOPE  H17X 5800   3.285   1.423   7.482  1.3757 -0.6391  1.0339
   45DOPE  H17Y 5801   3.349   1.478   7.314 -1.5568  0.5973 -0.3585
   45DOPE  C318 5802   3.160   1.352   7.317  0.1845 -0.5732  0.2008
   45DOPE  H18X 5803   3.085   1.434   7.324 -0.8628 -1.5192  0.2163
   45DOPE  H18Y 5804   3.179   1.328   7.210 -0.9449  1.2131 -0.4491
   45DOPE  H18Z 5805   3.131   1.260   7.371 -0.6786 -1.6422 -1.9404
   46DOPE     N 5806   3.924   5.398   5.503 -0.4382 -0.0068 -0.8634
   46DOPE   HN1 5807   3.822   5.417   5.508 -0.3756  1.5312 -3.7004
   46DOPE   HN2 5808   3.942   5.302   5.469 -1.0455 -1.4488  2.4404
   46DOPE   HN3 5809   3.974   5.428   5.590  1.7736 -1.2848 -1.6000
   46DOPE   C12 5810   3.985   5.487   5.406 -0.0555 -0.3254  0.0403
   46DOPE  H12A 5811   3.930   5.480   5.310  0.9219 -2.1626 -0.4422
   46DOPE  H12B 5812   4.089   5.459   5.379 -0.1899  0.5815 -1.5539
   46DOPE   C11 5813   3.964   5.643   5.429  0.3318 -0.0597 -1.4518
   46DOPE  H11A 5814   3.862   5.673   5.398  0.9084  1.9891 -1.5172
   46DOPE  H11B 5815   4.040   5.696   5.368 -0.7080  1.9521 -1.0734
   46DOPE     P 5816   4.032   5.825   5.606  0.2095 -0.1240 -0.1737
   46DOPE   O13 5817   3.926   5.922   5.562 -0.2357  0.0865  0.2901
   46DOPE   O14 5818   4.171   5.849   5.564  0.0017  0.5189 -0.3437
   46DOPE   O11 5819   4.039   5.810   5.765 -0.9322  0.5873 -0.8021
   46DOPE   O12 5820   3.988   5.682   5.561 -0.5911  0.2631 -0.1017
   46DOPE    C1 5821   3.937   5.742   5.831 -0.2644  0.3134  0.3857
   46DOPE    HA 5822   3.910   5.649   5.775  1.5370  0.6984 -1.1936
   46DOPE    HB 5823   3.846   5.806   5.832 -0.5229 -0.0266 -0.5913
   46DOPE    C2 5824   3.987   5.716   5.978  0.0328 -0.1670  0.2606
   46DOPE    HS 5825   4.040   5.804   6.020  0.5146 -1.1124  1.7268
   46DOPE   O21 5826   4.081   5.604   5.989  0.3573 -0.0868 -0.1798
   46DOPE   C21 5827   4.135   5.596   6.109  0.0456  0.3197 -0.6051
   46DOPE   O22 5828   4.125   5.677   6.202 -0.2450 -0.0964 -0.6210
   46DOPE   C22 5829   4.199   5.457   6.118 -0.5938  0.2744  0.5423
   46DOPE   H2R 5830   4.241   5.429   6.019  0.6418  1.1762  0.7799
   46DOPE   H2S 5831   4.125   5.381   6.150  1.8737 -3.1110 -1.2119
   46DOPE    C3 5832   3.864   5.693   6.071  0.3269  0.0444 -0.2193
   46DOPE    HX 5833   3.883   5.689   6.180  0.3586  0.7789 -0.1884
   46DOPE    HY 5834   3.814   5.595   6.055 -1.1428  0.4236  1.7340
   46DOPE   O31 5835   3.760   5.794   6.050  0.0517  0.0556 -0.2894
   46DOPE   C31 5836   3.762   5.891   6.140 -0.1643 -0.0407  0.3970
   46DOPE   O32 5837   3.836   5.904   6.235  0.0797  0.1190 -0.2701
   46DOPE   C32 5838   3.632   5.966   6.105  0.7524  0.0215  0.1561
   46DOPE   H2X 5839   3.656   6.029   6.018 -0.2777  0.4412  0.1643
   46DOPE   H2Y 5840   3.564   5.886   6.070  0.7445 -0.4621  1.2378
   46DOPE   C23 5841   4.309   5.460   6.227  0.4115  0.2341  0.2619
   46DOPE   H3R 5842   4.362   5.363   6.218 -2.4010 -1.3182 -1.1091
   46DOPE   H3S 5843   4.246   5.466   6.318 -1.1953 -0.5405 -0.7328
   46DOPE   C24 5844   4.399   5.587   6.242 -0.3445 -0.1751 -0.1190
   46DOPE   H4R 5845   4.343   5.666   6.296  0.8743  1.7425 -1.5043
   46DOPE   H4S 5846   4.427   5.629   6.143 -2.0113 -0.5456 -0.7708
   46DOPE   C25 5847   4.525   5.564   6.323  0.0413 -0.2458  0.2022
   46DOPE   H5R 5848   4.596   5.648   6.307 -0.2236  0.3367  1.8691
   46DOPE   H5S 5849   4.571   5.479   6.270 -0.0609  1.2828 -2.5345
   46DOPE   C26 5850   4.500   5.547   6.474 -0.3580  0.2901  0.0972
   46DOPE   H6R 5851   4.419   5.475   6.498 -1.4540  1.1131 -0.9960
   46DOPE   H6S 5852   4.475   5.641   6.526 -0.2166 -0.8834  2.4176
   46DOPE   C27 5853   4.623   5.497   6.556 -0.6437  0.2760  0.3375
   46DOPE   H7R 5854   4.696   5.580   6.541 -0.5335  0.5518  2.2548
   46DOPE   H7S 5855   4.666   5.402   6.516  0.3100  0.5930  0.5902
   46DOPE   C28 5856   4.592   5.470   6.703 -0.1416 -0.2370  0.3187
   46DOPE   H8R 5857   4.509   5.396   6.702 -0.9325  0.6259  0.5833
   46DOPE   H8S 5858   4.541   5.561   6.740 -1.2655 -0.1291 -1.3481
   46DOPE   C29 5859   4.710   5.426   6.790  0.8279  0.4339 -0.9885
   46DOPE   H9R 5860   4.803   5.403   6.737  0.1300 -1.4783 -1.4575
   46DOPE  C210 5861   4.700   5.405   6.927 -0.0750  0.0475 -0.3550
   46DOPE  H10R 5862   4.790   5.383   6.986 -0.3290  0.6791  0.2840
   46DOPE  C211 5863   4.569   5.450   6.998 -0.1924  0.2083  0.0337
   46DOPE  H11R 5864   4.537   5.367   7.065  1.1707  1.4109  2.3111
   46DOPE  H11S 5865   4.488   5.480   6.928 -0.0284 -0.7745 -0.5879
   46DOPE  C212 5866   4.584   5.563   7.097 -0.3073 -0.2172 -0.7740
   46DOPE  H12R 5867   4.487   5.574   7.150 -0.4841  0.0918 -1.1582
   46DOPE  H12S 5868   4.611   5.653   7.038 -3.0687  0.8495 -0.5685
   46DOPE  C213 5869   4.690   5.548   7.206  0.4751 -0.1053  0.2173
   46DOPE  H13R 5870   4.726   5.647   7.240 -1.1232  1.1271 -1.5092
   46DOPE  H13S 5871   4.785   5.520   7.156  0.9142 -1.6743  1.8251
   46DOPE  C214 5872   4.637   5.445   7.320 -0.8272 -0.4073  0.1262
   46DOPE  H14R 5873   4.710   5.455   7.403 -0.1369 -0.1749 -0.5046
   46DOPE  H14S 5874   4.623   5.346   7.272 -2.5299  0.6597 -1.7948
   46DOPE  C215 5875   4.501   5.485   7.381  0.6222  0.0947  0.1969
   46DOPE  H15R 5876   4.417   5.448   7.319  1.2128 -0.4010 -0.3199
   46DOPE  H15S 5877   4.495   5.596   7.386  1.6306  0.1785 -0.2260
   46DOPE  C216 5878   4.458   5.410   7.519 -0.7385 -0.8927  0.2250
   46DOPE  H16R 5879   4.363   5.462   7.544  0.6976  0.5813  3.0713
   46DOPE  H16S 5880   4.530   5.434   7.599 -1.5278 -0.9027  0.9501
   46DOPE  C217 5881   4.455   5.257   7.501 -0.6938 -0.1088 -0.1709
   46DOPE  H17R 5882   4.563   5.232   7.495 -0.7778 -0.1762 -2.3617
   46DOPE  H17S 5883   4.399   5.223   7.411 -0.8857 -3.0712  0.9527
   46DOPE  C218 5884   4.388   5.182   7.610  0.0804 -0.2314 -0.4894
   46DOPE  H18R 5885   4.397   5.075   7.580 -1.8049  0.6277 -4.9134
   46DOPE  H18S 5886   4.279   5.202   7.621 -0.2761 -2.3556  0.2330
   46DOPE  H18T 5887   4.436   5.200   7.708  2.0444  0.8405 -1.5899
   46DOPE   C33 5888   3.574   6.043   6.223  0.1383 -0.5689 -0.0499
   46DOPE   H3X 5889   3.552   5.972   6.305 -0.3342 -0.9540 -0.5085
   46DOPE   H3Y 5890   3.475   6.085   6.195  0.2827  1.1763  1.8049
   46DOPE   C34 5891   3.661   6.162   6.269  0.0351  0.4445 -0.1536
   46DOPE   H4X 5892   3.740   6.116   6.332 -2.1219 -2.5685  0.5950
   46DOPE   H4Y 5893   3.699   6.214   6.179 -2.0362  2.0221 -0.1716
   46DOPE   C35 5894   3.584   6.263   6.358 -0.6185  0.1269  0.5300
   46DOPE   H5X 5895   3.480   6.279   6.322 -1.5410 -1.5497  2.2532
   46DOPE   H5Y 5896   3.645   6.353   6.332 -0.4947 -0.3420 -0.9057
   46DOPE   C36 5897   3.583   6.222   6.506 -0.3306  0.1997 -0.4127
   46DOPE   H6X 5898   3.684   6.228   6.552  0.1212 -1.9880 -0.9815
   46DOPE   H6Y 5899   3.554   6.115   6.519  0.3462 -0.2035 -1.9396
   46DOPE   C37 5900   3.484   6.301   6.589 -0.6535 -0.6030  0.1787
   46DOPE   H7X 5901   3.495   6.412   6.578  2.1207 -0.9297 -1.1566
   46DOPE   H7Y 5902   3.383   6.279   6.548  0.4018 -0.5677 -2.6467
   46DOPE   C38 5903   3.479   6.260   6.739 -1.0839  0.3082 -0.7760
   46DOPE   H8X 5904   3.466   6.150   6.742 -1.3256  0.3637  0.8409
   46DOPE   H8Y 5905   3.388   6.308   6.782 -0.6482  0.7698 -0.3624
   46DOPE   C39 5906   3.614   6.299   6.805  1.0205  0.2330  0.1249
   46DOPE   H9X 5907   3.700   6.244   6.764 -0.6626 -2.8597  0.4419
   46DOPE  C310 5908   3.641   6.363   6.922 -0.0504 -0.7165  0.9413
   46DOPE  H10X 5909   3.747   6.383   6.943 -0.2281  0.0367  1.1680
   46DOPE  C311 5910   3.535   6.419   7.022  0.5292  0.3170  0.6500
   46DOPE  H11X 5911   3.533   6.530   7.014 -2.5767  0.2154 -1.2957
   46DOPE  H11Y 5912   3.434   6.391   6.988  0.0127  0.4006  2.0419
   46DOPE  C312 5913   3.552   6.392   7.169  0.0173  0.0190 -0.0375
   46DOPE  H12X 5914   3.468   6.441   7.222  1.5293  1.9464  0.7149
   46DOPE  H12Y 5915   3.644   6.440   7.208 -0.4575 -1.0376  2.6197
   46DOPE  C313 5916   3.546   6.238   7.190 -0.1060  0.4113 -0.2594
   46DOPE  H13X 5917   3.446   6.209   7.150 -0.4994 -0.8252  1.5463
   46DOPE  H13Y 5918   3.623   6.192   7.125 -0.5144 -0.7953  0.0853
   46DOPE  C314 5919   3.546   6.186   7.335 -0.2467 -0.0790  0.0797
   46DOPE  H14X 5920   3.447   6.204   7.381 -0.5660  0.3009 -0.7483
   46DOPE  H14Y 5921   3.620   6.241   7.397  0.3473  1.6756 -2.0681
   46DOPE  C315 5922   3.575   6.039   7.330  0.8121 -0.7536  0.3312
   46DOPE  H15X 5923   3.657   6.021   7.258 -0.2705 -1.2878 -0.8156
   46DOPE  H15Y 5924   3.484   5.988   7.290  1.3102 -2.5198  1.3215
   46DOPE  C316 5925   3.612   5.991   7.474 -0.2163 -0.0385 -0.4246
   46DOPE  H16X 5926   3.566   5.894   7.503  0.6176 -0.0072  1.1206
   46DOPE  H16Y 5927   3.584   6.072   7.545 -0.1066 -0.9427  0.6773
   46DOPE  C317 5928   3.765   5.974   7.476  0.4580 -0.3334 -0.2141
   46DOPE  H17X 5929   3.781   5.882   7.416  2.2275  0.5188 -1.1133
   46DOPE  H17Y 5930   3.818   6.056   7.423  0.8318 -0.0504  0.5843
   46DOPE  C318 5931   3.831   5.945   7.612  0.0653  0.8078  1.1446
   46DOPE  H18X 5932   3.780   6.003   7.692 -0.7357 -1.8598  2.6884
   46DOPE  H18Y 5933   3.807   5.841   7.641  1.1418  0.3689  0.4950
   46DOPE  H18Z 5934   3.940   5.959   7.600  0.0498 -0.5048 -0.9121
   47DOPE     N 5935   1.718   4.263   5.322 -0.0541 -0.1285  0.1772
   47DOPE   HN1 5936   1.753   4.179   5.371 -0.4326 -1.6064 -1.9635
   47DOPE   HN2 5937   1.616   4.254   5.302  0.2347  1.4289 -2.5388
   47DOPE   HN3 5938   1.754   4.253   5.225  1.2459 -0.1881  0.6535
   47DOPE   C12 5939   1.732   4.402   5.377 -0.1597  0.5009 -0.7129
   47DOPE  H12A 5940   1.660   4.407   5.461 -0.2828  0.8718 -0.8391
   47DOPE  H12B 5941   1.701   4.461   5.288 -2.9950 -0.6095 -0.5641
   47DOPE   C11 5942   1.866   4.430   5.439 -0.5032 -0.4692  0.1914
   47DOPE  H11A 5943   1.897   4.365   5.523  2.5334  1.1499  0.4608
   47DOPE  H11B 5944   1.862   4.527   5.493  0.7687  0.9841 -2.1297
   47DOPE     P 5945   1.989   4.576   5.257 -0.5349  0.1224  0.2306
   47DOPE   O13 5946   1.875   4.609   5.174  0.2086  0.0175 -0.2724
   47DOPE   O14 5947   2.126   4.580   5.191  0.1917  0.4665 -0.3460
   47DOPE   O11 5948   1.990   4.685   5.373 -0.5357  0.3220 -0.1629
   47DOPE   O12 5949   1.964   4.444   5.335  0.7817  0.0948 -0.4308
   47DOPE    C1 5950   2.105   4.684   5.466  0.6310  0.0939  0.2985
   47DOPE    HA 5951   2.149   4.784   5.446 -2.0845  1.0267 -1.5848
   47DOPE    HB 5952   2.177   4.602   5.446  0.5745  0.0184  0.4082
   47DOPE    C2 5953   2.077   4.681   5.614  0.5504  0.2324 -0.5458
   47DOPE    HS 5954   2.032   4.582   5.639  0.6893  0.6798  1.7027
   47DOPE   O21 5955   1.980   4.782   5.637  0.5558 -0.5566 -0.2343
   47DOPE   C21 5956   1.895   4.749   5.736 -0.1113  0.1138 -1.1374
   47DOPE   O22 5957   1.910   4.657   5.814 -0.0506 -0.4471  0.1138
   47DOPE   C22 5958   1.787   4.851   5.739  0.0040 -0.0809  0.0569
   47DOPE   H2R 5959   1.744   4.847   5.637 -0.6441 -0.9255  0.3528
   47DOPE   H2S 5960   1.815   4.958   5.750 -2.3059  0.7614 -1.5430
   47DOPE    C3 5961   2.197   4.718   5.699  0.6978 -0.4027  0.0016
   47DOPE    HX 5962   2.219   4.819   5.660 -2.0156 -0.2743 -1.3966
   47DOPE    HY 5963   2.285   4.658   5.668 -0.7087 -2.6701  0.1708
   47DOPE   O31 5964   2.172   4.725   5.840 -0.8557  0.1852 -0.6293
   47DOPE   C31 5965   2.194   4.616   5.914  0.1844  0.1836 -0.4344
   47DOPE   O32 5966   2.197   4.500   5.875 -0.4045  0.1287  0.4361
   47DOPE   C32 5967   2.196   4.652   6.063  0.0228 -0.1895 -0.3447
   47DOPE   H2X 5968   2.295   4.633   6.110 -0.6846 -1.2185  0.7806
   47DOPE   H2Y 5969   2.168   4.758   6.078  1.1575 -0.1393  1.7293
   47DOPE   C23 5970   1.687   4.834   5.855  0.3255  0.5807  0.1832
   47DOPE   H3R 5971   1.634   4.738   5.872 -1.6382  1.6992  0.6907
   47DOPE   H3S 5972   1.603   4.902   5.830 -1.9318 -2.0216  0.2382
   47DOPE   C24 5973   1.734   4.894   5.985  0.2902  0.8601  0.0310
   47DOPE   H4R 5974   1.752   5.004   5.982  0.2932  0.9076  1.4025
   47DOPE   H4S 5975   1.833   4.850   6.008  0.7297  1.8630  0.1071
   47DOPE   C25 5976   1.642   4.872   6.110 -0.1063 -0.3900 -0.6737
   47DOPE   H5R 5977   1.639   4.764   6.136  1.3217 -0.0991  0.8920
   47DOPE   H5S 5978   1.536   4.901   6.090  0.1639  0.4435 -0.9563
   47DOPE   C26 5979   1.704   4.937   6.234 -0.2119 -0.4158  0.6791
   47DOPE   H6R 5980   1.707   5.047   6.218 -0.3464 -0.3408  1.1605
   47DOPE   H6S 5981   1.811   4.910   6.248  0.1065  0.1320 -0.5695
   47DOPE   C27 5982   1.628   4.910   6.363 -0.4346 -0.2650  0.8996
   47DOPE   H7R 5983   1.652   4.802   6.375  0.4370 -0.1818  0.0184
   47DOPE   H7S 5984   1.517   4.912   6.356 -0.5396  1.0979  2.3729
   47DOPE   C28 5985   1.682   4.992   6.485 -0.1764 -0.0842  1.0385
   47DOPE   H8R 5986   1.609   4.977   6.567 -1.3138  2.1297  0.5061
   47DOPE   H8S 5987   1.682   5.098   6.451  0.9732 -0.5808 -0.6944
   47DOPE   C29 5988   1.825   4.957   6.516 -0.3071  0.1117 -0.6588
   47DOPE   H9R 5989   1.898   4.977   6.436 -1.5516  0.9075 -1.6304
   47DOPE  C210 5990   1.865   4.908   6.634 -0.1804  0.9628  0.0083
   47DOPE  H10R 5991   1.972   4.886   6.648 -0.0392  1.1992 -0.6736
   47DOPE  C211 5992   1.779   4.873   6.747 -0.0563  0.0368 -0.6297
   47DOPE  H11R 5993   1.811   4.776   6.791 -2.0839 -0.0571  0.7866
   47DOPE  H11S 5994   1.672   4.852   6.721  0.1310 -0.2427 -1.2050
   47DOPE  C212 5995   1.789   4.984   6.852  0.1294 -0.3665 -0.4620
   47DOPE  H12R 5996   1.758   5.083   6.815  0.7649 -0.1013 -0.3070
   47DOPE  H12S 5997   1.891   4.988   6.897  0.7724  0.0175 -1.9042
   47DOPE  C213 5998   1.691   4.943   6.964 -0.0217 -0.1806  0.1604
   47DOPE  H13R 5999   1.710   4.853   7.027 -3.4768 -0.5854  0.8120
   47DOPE  H13S 6000   1.602   4.904   6.911  0.3616  0.0996 -0.7005
   47DOPE  C214 6001   1.656   5.052   7.057 -0.3452 -0.2242 -0.2617
   47DOPE  H14R 6002   1.577   5.115   7.013  0.3425 -0.0403 -1.2612
   47DOPE  H14S 6003   1.743   5.111   7.095 -0.1264 -1.8518  2.0048
   47DOPE  C215 6004   1.597   4.991   7.186  0.3923  0.7870  0.5712
   47DOPE  H15R 6005   1.551   4.895   7.153  4.6418 -1.3599  0.2375
   47DOPE  H15S 6006   1.522   5.059   7.231  0.6155  0.6362  1.1756
   47DOPE  C216 6007   1.701   4.972   7.303 -0.4755 -0.0262 -0.4166
   47DOPE  H16R 6008   1.720   5.077   7.336 -0.2582 -1.0282  3.0993
   47DOPE  H16S 6009   1.784   4.922   7.250 -1.1201 -1.9828  0.3329
   47DOPE  C217 6010   1.627   4.896   7.415  0.5487 -0.3325 -1.1871
   47DOPE  H17R 6011   1.531   4.945   7.441  0.6868 -1.5230  1.9154
   47DOPE  H17S 6012   1.680   4.907   7.512  0.8652 -2.7567 -1.0211
   47DOPE  C218 6013   1.583   4.751   7.390  0.7155  0.0607  0.7562
   47DOPE  H18R 6014   1.674   4.695   7.362  0.7513 -0.5811  2.0810
   47DOPE  H18S 6015   1.513   4.753   7.304 -0.2346  0.3846  1.5148
   47DOPE  H18T 6016   1.541   4.714   7.486  0.5211 -1.4210  0.1231
   47DOPE   C33 6017   2.085   4.570   6.149 -0.6012  0.1015  0.5388
   47DOPE   H3X 6018   2.113   4.463   6.163 -0.3259  0.2284  1.0020
   47DOPE   H3Y 6019   1.988   4.596   6.103 -0.3644  1.2170  0.6245
   47DOPE   C34 6020   2.069   4.637   6.291  0.3002  1.0774 -0.9826
   47DOPE   H4X 6021   2.052   4.746   6.283  4.2352  2.1004  1.5842
   47DOPE   H4Y 6022   1.981   4.594   6.344 -0.5194  0.9450 -2.4049
   47DOPE   C35 6023   2.191   4.613   6.384  0.1246 -0.6780 -0.0382
   47DOPE   H5X 6024   2.275   4.664   6.333  1.7073 -0.1256  2.8532
   47DOPE   H5Y 6025   2.213   4.505   6.402  1.2315 -0.3705  0.5101
   47DOPE   C36 6026   2.184   4.683   6.523  0.3368  0.1343  0.3663
   47DOPE   H6X 6027   2.075   4.685   6.546 -0.2335 -0.9482 -2.0055
   47DOPE   H6Y 6028   2.206   4.791   6.507  0.6805  0.3402  1.9880
   47DOPE   C37 6029   2.263   4.616   6.635 -0.0607 -0.2032 -0.3189
   47DOPE   H7X 6030   2.213   4.517   6.644 -2.6390  1.0818  0.4481
   47DOPE   H7Y 6031   2.368   4.604   6.600  1.5351  2.4242  3.0002
   47DOPE   C38 6032   2.274   4.687   6.772  0.6778  0.1656  0.7586
   47DOPE   H8X 6033   2.323   4.786   6.767  1.2918 -0.1550  0.2645
   47DOPE   H8Y 6034   2.335   4.625   6.842 -2.5608 -1.0574  2.7832
   47DOPE   C39 6035   2.137   4.693   6.843 -0.2024  0.1816  0.0462
   47DOPE   H9X 6036   2.056   4.677   6.771  1.2997  0.2487 -1.7202
   47DOPE  C310 6037   2.118   4.711   6.980  0.0627  0.3894  0.0582
   47DOPE  H10X 6038   2.013   4.720   7.012 -0.0826  0.3284 -0.3954
   47DOPE  C311 6039   2.210   4.701   7.096  0.0556 -0.1061  0.3730
   47DOPE  H11X 6040   2.169   4.626   7.167 -1.8981  0.3528 -0.1938
   47DOPE  H11Y 6041   2.311   4.682   7.054 -0.3176  1.9463 -1.7157
   47DOPE  C312 6042   2.225   4.828   7.182 -0.2378  0.0877  0.0877
   47DOPE  H12X 6043   2.133   4.891   7.185 -0.4295 -0.1509 -0.6447
   47DOPE  H12Y 6044   2.313   4.881   7.140 -0.4571 -0.0872 -0.6060
   47DOPE  C313 6045   2.255   4.785   7.332  1.0352 -0.6524  0.0112
   47DOPE  H13X 6046   2.292   4.870   7.393  0.8464  0.6510 -1.6048
   47DOPE  H13Y 6047   2.162   4.742   7.374  0.1896 -1.4807 -2.4953
   47DOPE  C314 6048   2.370   4.682   7.337  0.4345  0.1520 -0.0138
   47DOPE  H14X 6049   2.447   4.714   7.262 -0.0367  0.8127 -0.2252
   47DOPE  H14Y 6050   2.332   4.580   7.314  1.7216 -0.6283  1.1577
   47DOPE  C315 6051   2.425   4.646   7.475 -0.2553 -0.1299  0.0384
   47DOPE  H15X 6052   2.424   4.743   7.530  0.2459 -0.6870  1.0708
   47DOPE  H15Y 6053   2.523   4.595   7.466  0.1192  0.8323 -1.4372
   47DOPE  C316 6054   2.333   4.538   7.548 -0.5071 -0.5280 -0.0869
   47DOPE  H16X 6055   2.232   4.568   7.512  0.6142  2.5266 -0.9885
   47DOPE  H16Y 6056   2.351   4.563   7.655  0.1221  1.3220 -0.5953
   47DOPE  C317 6057   2.354   4.392   7.514 -0.4398  0.7896 -0.4856
   47DOPE  H17X 6058   2.262   4.335   7.539  0.2056 -0.5893 -1.1021
   47DOPE  H17Y 6059   2.360   4.376   7.404 -1.2378  0.7216 -0.5226
   47DOPE  C318 6060   2.477   4.343   7.590 -0.1104 -0.0066 -0.1900
   47DOPE  H18X 6061   2.561   4.404   7.552 -0.0504 -0.5268 -0.8954
   47DOPE  H18Y 6062   2.474   4.354   7.701 -0.6142  0.4437 -0.2432
   47DOPE  H18Z 6063   2.492   4.235   7.569  0.6156  0.0460  0.0163
   48DOPE     N 6064   5.584   2.148   4.662 -0.6564  0.2001  0.3299
   48DOPE   HN1 6065   5.513   2.131   4.588 -1.0897 -0.6926  0.9378
   48DOPE   HN2 6066   5.539   2.190   4.745 -1.5079 -1.3236  0.6762
   48DOPE   HN3 6067   5.650   2.219   4.625  0.3421 -0.8257  0.0754
   48DOPE   C12 6068   5.653   2.021   4.697  0.1596 -0.8873  1.1111
   48DOPE  H12A 6069   5.678   1.979   4.597  3.7836  3.0786  0.0209
   48DOPE  H12B 6070   5.575   1.954   4.739 -1.9963 -0.0716 -1.3837
   48DOPE   C11 6071   5.774   2.033   4.784  0.3546  0.0604 -0.1443
   48DOPE  H11A 6072   5.826   1.937   4.803  2.4699  1.6228  2.9392
   48DOPE  H11B 6073   5.733   2.066   4.881 -0.0025 -2.1667  0.5041
   48DOPE     P 6074   6.004   2.146   4.799  0.1612 -0.2332 -0.2449
   48DOPE   O13 6075   6.019   2.297   4.788 -0.1454 -0.2017  0.2524
   48DOPE   O14 6076   6.114   2.071   4.730 -0.4171  0.1076 -0.2852
   48DOPE   O11 6077   5.983   2.106   4.950  0.1753  0.2908  0.2989
   48DOPE   O12 6078   5.866   2.119   4.725 -0.2441  0.1183 -0.7981
   48DOPE    C1 6079   6.051   1.988   4.997 -0.0627  0.4878  0.4634
   48DOPE    HA 6080   6.111   1.932   4.923 -2.0636 -2.0569  0.6361
   48DOPE    HB 6081   5.970   1.921   5.032 -0.6014  1.0966  0.4085
   48DOPE    C2 6082   6.137   2.025   5.117 -0.0735  0.0864  0.1282
   48DOPE    HS 6083   6.227   2.077   5.078  1.2078 -2.1497 -0.0866
   48DOPE   O21 6084   6.164   1.904   5.184  0.2456  0.6131  0.2560
   48DOPE   C21 6085   6.265   1.899   5.266 -0.8429  0.3538 -0.3536
   48DOPE   O22 6086   6.355   1.987   5.273 -0.0151 -0.3472 -0.0562
   48DOPE   C22 6087   6.233   1.782   5.362  0.2968  0.0361 -0.3283
   48DOPE   H2R 6088   6.167   1.710   5.307  1.0938 -1.7687  0.9701
   48DOPE   H2S 6089   6.195   1.840   5.448  1.5547 -1.7268  1.4987
   48DOPE    C3 6090   6.063   2.125   5.210  0.0857  0.0355 -0.0130
   48DOPE    HX 6091   5.960   2.095   5.239 -0.0588  2.0839  1.8797
   48DOPE    HY 6092   6.059   2.215   5.146 -0.9188 -0.3815 -0.5450
   48DOPE   O31 6093   6.135   2.153   5.330  0.3534  0.2316 -0.1349
   48DOPE   C31 6094   6.068   2.236   5.413 -0.1690  0.1669 -0.2921
   48DOPE   O32 6095   5.956   2.274   5.393  0.1415 -0.1085  0.2418
   48DOPE   C32 6096   6.157   2.290   5.532  0.4830 -0.9855 -0.2820
   48DOPE   H2X 6097   6.246   2.324   5.475 -1.9179  1.4867 -2.8713
   48DOPE   H2Y 6098   6.102   2.378   5.572  0.0686  0.5955 -3.9005
   48DOPE   C23 6099   6.361   1.698   5.396  0.2887 -0.4363  0.0251
   48DOPE   H3R 6100   6.440   1.770   5.426  0.8141 -1.6574  1.7039
   48DOPE   H3S 6101   6.408   1.652   5.306  1.1867  0.8658 -0.2146
   48DOPE   C24 6102   6.325   1.596   5.496  0.6507  0.2118 -0.0257
   48DOPE   H4R 6103   6.236   1.536   5.466  0.2541  0.4234  0.7070
   48DOPE   H4S 6104   6.291   1.645   5.590 -1.4144  1.5539 -1.3866
   48DOPE   C25 6105   6.443   1.496   5.523 -0.2221  0.1797 -0.2670
   48DOPE   H5R 6106   6.534   1.555   5.547  1.3077 -1.0854 -2.5227
   48DOPE   H5S 6107   6.475   1.441   5.432  0.2494 -0.5435  0.3197
   48DOPE   C26 6108   6.415   1.395   5.625  0.5143 -0.3419  0.5329
   48DOPE   H6R 6109   6.361   1.447   5.707  0.7861  3.1154 -1.3073
   48DOPE   H6S 6110   6.513   1.358   5.662  0.0676 -0.4398  1.6668
   48DOPE   C27 6111   6.312   1.282   5.581 -0.6390 -0.1455 -0.2252
   48DOPE   H7R 6112   6.368   1.251   5.491  0.2027  1.7738 -0.4091
   48DOPE   H7S 6113   6.215   1.332   5.560 -0.3001  1.0053  0.7667
   48DOPE   C28 6114   6.279   1.169   5.677  0.5574  0.6708  0.2430
   48DOPE   H8R 6115   6.205   1.105   5.624  1.9624 -0.4582 -0.4188
   48DOPE   H8S 6116   6.232   1.217   5.766  1.3746 -0.9340  1.5839
   48DOPE   C29 6117   6.402   1.088   5.707 -0.3490 -0.6210  0.0711
   48DOPE   H9R 6118   6.440   1.034   5.619  1.8875  2.5827 -1.1192
   48DOPE  C210 6119   6.451   1.059   5.832 -0.6445 -0.5517 -0.0992
   48DOPE  H10R 6120   6.555   1.025   5.842 -0.4792 -0.0931 -0.2149
   48DOPE  C211 6121   6.402   1.103   5.960 -0.6115  0.2873 -1.2747
   48DOPE  H11R 6122   6.434   1.017   6.023  2.5653  3.4005  1.7476
   48DOPE  H11S 6123   6.291   1.111   5.965 -0.5581  0.4780 -0.1571
   48DOPE  C212 6124   6.475   1.230   6.013  0.0359 -0.0345  0.6555
   48DOPE  H12R 6125   6.481   1.305   5.931  2.1924 -1.1081 -0.2507
   48DOPE  H12S 6126   6.584   1.220   6.028  1.0289  3.8574 -2.4362
   48DOPE  C213 6127   6.414   1.291   6.141 -0.5098 -0.2390  0.4273
   48DOPE  H13R 6128   6.304   1.304   6.134 -0.3740  0.2242 -1.2726
   48DOPE  H13S 6129   6.453   1.395   6.148 -0.7093 -0.0024 -1.4239
   48DOPE  C214 6130   6.457   1.202   6.262 -0.2452  0.3918  0.7716
   48DOPE  H14R 6131   6.567   1.210   6.277 -0.1397 -1.0594  0.8675
   48DOPE  H14S 6132   6.429   1.098   6.236  0.6584  0.3887 -0.2407
   48DOPE  C215 6133   6.379   1.244   6.384  0.2936 -0.0288  0.1885
   48DOPE  H15R 6134   6.271   1.225   6.364  0.2570  1.2318 -0.9359
   48DOPE  H15S 6135   6.400   1.351   6.406  1.1927  0.6119 -3.1810
   48DOPE  C216 6136   6.422   1.144   6.496  0.6564  0.1485  0.5730
   48DOPE  H16R 6137   6.530   1.163   6.511  0.0601  2.8803  2.0495
   48DOPE  H16S 6138   6.405   1.042   6.455 -2.6757  0.1722  1.5888
   48DOPE  C217 6139   6.367   1.172   6.634 -0.2830 -0.1743  0.3153
   48DOPE  H17R 6140   6.418   1.099   6.699 -1.7885 -1.3883  0.2030
   48DOPE  H17S 6141   6.258   1.152   6.631 -0.5553  1.2322  0.2386
   48DOPE  C218 6142   6.390   1.317   6.682 -0.1711  0.4137  0.0610
   48DOPE  H18R 6143   6.383   1.406   6.615  0.4044  1.5859  1.5065
   48DOPE  H18S 6144   6.498   1.330   6.704  0.0264 -0.0228 -0.5961
   48DOPE  H18T 6145   6.321   1.336   6.766  2.5524  1.2383  2.2816
   48DOPE   C33 6146   6.197   2.189   5.643  0.4722 -1.3152 -0.1063
   48DOPE   H3X 6147   6.302   2.211   5.673 -0.0113  0.7718  0.2054
   48DOPE   H3Y 6148   6.209   2.087   5.600 -0.0650 -0.7617 -1.6440
   48DOPE   C34 6149   6.098   2.190   5.760  0.4010  0.0880  0.5381
   48DOPE   H4X 6150   6.100   2.291   5.806  0.2219  0.2760  0.1452
   48DOPE   H4Y 6151   5.993   2.190   5.724 -0.1030  1.2339  1.9172
   48DOPE   C35 6152   6.112   2.081   5.871 -0.4508  0.6872  0.3556
   48DOPE   H5X 6153   6.220   2.061   5.891 -0.5078 -0.1663 -0.1166
   48DOPE   H5Y 6154   6.068   1.982   5.844  0.2965 -0.5554  3.2851
   48DOPE   C36 6155   6.057   2.121   6.007  0.4296 -0.0544 -0.0496
   48DOPE   H6X 6156   5.959   2.173   6.003  0.3255 -0.1271  1.3059
   48DOPE   H6Y 6157   6.137   2.185   6.049 -0.0499  0.6312 -0.1516
   48DOPE   C37 6158   6.039   2.004   6.105  0.7502  0.2409  0.0732
   48DOPE   H7X 6159   5.954   1.939   6.075  1.1910 -0.0144 -0.6420
   48DOPE   H7Y 6160   6.125   1.935   6.121  0.3354 -0.3167 -0.0588
   48DOPE   C38 6161   6.003   2.058   6.244  0.2287  0.5194  0.1595
   48DOPE   H8X 6162   5.902   2.103   6.245  0.6440  1.4647  0.4505
   48DOPE   H8Y 6163   6.066   2.142   6.282 -0.5621 -0.3971  3.8837
   48DOPE   C39 6164   6.021   1.942   6.344  0.0286  0.2290  0.5307
   48DOPE   H9X 6165   6.063   1.849   6.302  1.0433  1.5777 -1.6317
   48DOPE  C310 6166   5.990   1.947   6.473 -0.0689 -0.5874  0.3353
   48DOPE  H10X 6167   6.004   1.858   6.536  1.4902 -0.8168 -0.2946
   48DOPE  C311 6168   5.943   2.071   6.550 -0.0733 -0.1733  0.9581
   48DOPE  H11X 6169   5.941   2.162   6.486  1.1564 -1.6282 -1.2963
   48DOPE  H11Y 6170   5.844   2.057   6.599 -1.0832 -3.1773 -1.6089
   48DOPE  C312 6171   6.049   2.093   6.662 -0.8503 -0.0643 -0.3440
   48DOPE  H12X 6172   6.035   2.194   6.704  0.9580 -0.2386  0.8150
   48DOPE  H12Y 6173   6.155   2.090   6.628 -1.2512  0.2739 -1.6881
   48DOPE  C313 6174   6.034   1.993   6.776 -0.2494 -0.3416 -0.0702
   48DOPE  H13X 6175   5.924   2.001   6.794 -0.0617  0.7114  0.7347
   48DOPE  H13Y 6176   6.068   1.894   6.738  1.5854 -0.3634  1.4785
   48DOPE  C314 6177   6.112   2.019   6.904 -0.2849 -0.2252  0.1344
   48DOPE  H14X 6178   6.093   2.121   6.943  3.2288  1.3399 -1.7456
   48DOPE  H14Y 6179   6.218   2.028   6.874  0.0355  0.2524  1.3589
   48DOPE  C315 6180   6.097   1.919   7.025 -0.2332  0.0128  0.2341
   48DOPE  H15X 6181   6.132   1.819   6.992  0.5036  0.2053  0.4201
   48DOPE  H15Y 6182   5.989   1.897   7.040 -0.5312 -0.6077 -2.3024
   48DOPE  C316 6183   6.160   1.971   7.156 -0.5346 -0.1144  0.2308
   48DOPE  H16X 6184   6.082   2.008   7.226 -0.7391  1.7381 -0.9246
   48DOPE  H16Y 6185   6.244   2.038   7.129 -0.9841 -0.5569 -2.5354
   48DOPE  C317 6186   6.229   1.854   7.219 -0.5637  0.2809 -0.1714
   48DOPE  H17X 6187   6.288   1.796   7.144 -1.9048 -1.3368 -0.0276
   48DOPE  H17Y 6188   6.296   1.895   7.297  0.1708 -2.1684  0.5896
   48DOPE  C318 6189   6.134   1.751   7.289 -0.1270 -0.7288  0.3995
   48DOPE  H18X 6190   6.096   1.672   7.221  0.8242 -2.2114  1.5433
   48DOPE  H18Y 6191   6.175   1.690   7.373  2.3978 -1.8153 -1.4815
   48DOPE  H18Z 6192   6.050   1.811   7.330 -0.8843  0.6576 -2.8993
   49DOPE     N 6193   2.458   5.227   5.003  0.0087  0.1892 -0.4771
   49DOPE   HN1 6194   2.466   5.290   5.085  1.3900  2.2077 -2.0732
   49DOPE   HN2 6195   2.551   5.204   4.963  0.9744 -0.9959  2.2269
   49DOPE   HN3 6196   2.408   5.284   4.932 -0.2903  1.5045  0.7444
   49DOPE   C12 6197   2.388   5.103   5.056  0.2198 -0.3331  0.1432
   49DOPE  H12A 6198   2.370   5.030   4.975 -1.6042  0.1041  0.1112
   49DOPE  H12B 6199   2.290   5.142   5.092 -0.6018 -2.1802  0.0122
   49DOPE   C11 6200   2.478   5.037   5.163 -0.0752 -0.0048 -0.4864
   49DOPE  H11A 6201   2.410   4.957   5.201  0.4390  0.8993  2.6779
   49DOPE  H11B 6202   2.486   5.119   5.238  0.2901  1.2537 -1.8661
   49DOPE     P 6203   2.735   4.990   5.198 -0.2720  0.0820 -0.1826
   49DOPE   O13 6204   2.810   5.108   5.143  0.8686 -0.0104 -0.6623
   49DOPE   O14 6205   2.790   4.852   5.177  0.5010 -0.4609  0.2915
   49DOPE   O11 6206   2.691   5.006   5.345  0.6777  0.1750 -0.1966
   49DOPE   O12 6207   2.603   4.986   5.111  0.3473 -0.2605  0.3370
   49DOPE    C1 6208   2.794   5.045   5.441  0.5257  0.1938  0.0644
   49DOPE    HA 6209   2.878   5.093   5.387 -1.1249 -0.8312 -3.8037
   49DOPE    HB 6210   2.815   4.960   5.510  1.4222  1.5599  1.5344
   49DOPE    C2 6211   2.736   5.156   5.532 -0.1645 -0.4155  0.0773
   49DOPE    HS 6212   2.809   5.186   5.611 -0.9473  1.2950  0.1851
   49DOPE   O21 6213   2.611   5.121   5.593  0.3781 -0.2653  0.1782
   49DOPE   C21 6214   2.612   5.063   5.715  0.2401  0.0699 -0.3139
   49DOPE   O22 6215   2.713   5.042   5.779  0.4418 -0.0594 -0.0996
   49DOPE   C22 6216   2.467   5.063   5.775 -0.4943 -0.0085  0.6416
   49DOPE   H2R 6217   2.390   5.026   5.704  1.0478  1.7644 -2.1775
   49DOPE   H2S 6218   2.441   5.168   5.800  2.0556  0.4857  1.5300
   49DOPE    C3 6219   2.730   5.287   5.445  0.1906  0.5122  0.6226
   49DOPE    HX 6220   2.676   5.264   5.351  0.9521 -1.0454  0.5349
   49DOPE    HY 6221   2.834   5.303   5.409  0.6461 -2.3000  0.4962
   49DOPE   O31 6222   2.691   5.404   5.517  0.5971 -0.5835  0.1419
   49DOPE   C31 6223   2.563   5.428   5.524 -0.2002  0.1441 -0.6365
   49DOPE   O32 6224   2.473   5.360   5.476 -0.0372  0.1473  0.1880
   49DOPE   C32 6225   2.550   5.559   5.612 -0.3918 -0.5044  0.2003
   49DOPE   H2X 6226   2.575   5.652   5.556  0.7869 -0.9117  0.0259
   49DOPE   H2Y 6227   2.439   5.557   5.619 -0.4432  1.8978  0.8609
   49DOPE   C23 6228   2.466   4.972   5.900  0.6169 -0.4582  0.1512
   49DOPE   H3R 6229   2.550   4.984   5.972  0.0349 -1.4379  1.0142
   49DOPE   H3S 6230   2.466   4.868   5.862 -2.2027 -0.1747 -0.8466
   49DOPE   C24 6231   2.331   4.975   5.984 -0.2798  0.1044 -0.2241
   49DOPE   H4R 6232   2.347   4.888   6.050  0.8838  2.1035  2.3232
   49DOPE   H4S 6233   2.248   4.966   5.910 -1.1417  2.0582  0.4253
   49DOPE   C25 6234   2.312   5.097   6.070 -0.6597  0.1657  0.3552
   49DOPE   H5R 6235   2.317   5.193   6.014 -2.8118 -0.4826 -1.1041
   49DOPE   H5S 6236   2.393   5.097   6.145  0.9173 -1.5021 -1.2354
   49DOPE   C26 6237   2.181   5.101   6.139 -0.2265  0.0768 -0.4024
   49DOPE   H6R 6238   2.171   5.001   6.187 -0.7530 -0.3191 -1.3165
   49DOPE   H6S 6239   2.100   5.119   6.065  0.6831  0.2029 -1.3980
   49DOPE   C27 6240   2.158   5.211   6.254 -0.0833 -0.3326  0.3396
   49DOPE   H7R 6241   2.048   5.222   6.269  0.4147  1.5405  3.5218
   49DOPE   H7S 6242   2.194   5.310   6.219 -1.8925 -0.2563 -1.5365
   49DOPE   C28 6243   2.239   5.178   6.376  0.9321 -0.3992 -0.0398
   49DOPE   H8R 6244   2.345   5.196   6.345  0.6234 -0.1967 -0.9984
   49DOPE   H8S 6245   2.221   5.074   6.410 -0.7042 -0.2638 -0.4312
   49DOPE   C29 6246   2.206   5.282   6.484 -0.2679  0.6997  0.5683
   49DOPE   H9R 6247   2.213   5.383   6.443 -2.5085  0.0010 -1.8412
   49DOPE  C210 6248   2.174   5.255   6.610 -0.2707 -0.2194  0.5154
   49DOPE  H10R 6249   2.158   5.345   6.671  0.3098  0.8889 -0.9448
   49DOPE  C211 6250   2.151   5.118   6.670  0.7858  0.6165  0.7212
   49DOPE  H11R 6251   2.218   5.042   6.623 -0.0234  0.3909 -0.0762
   49DOPE  H11S 6252   2.050   5.077   6.651  1.1627  0.0412 -0.0794
   49DOPE  C212 6253   2.165   5.113   6.827  0.3614 -0.6516  0.4581
   49DOPE  H12R 6254   2.271   5.129   6.856 -0.4056  1.5797  2.3396
   49DOPE  H12S 6255   2.146   5.005   6.849  0.8446 -1.3289 -2.1125
   49DOPE  C213 6256   2.076   5.214   6.900 -0.3590  0.4058 -0.1535
   49DOPE  H13R 6257   1.974   5.226   6.857  0.2801 -0.8943 -2.1772
   49DOPE  H13S 6258   2.104   5.318   6.874  1.0427 -0.1250 -0.8694
   49DOPE  C214 6259   2.072   5.181   7.047  0.7056  1.1241 -0.1227
   49DOPE  H14R 6260   2.164   5.131   7.081 -0.6902 -1.3922  0.1954
   49DOPE  H14S 6261   1.991   5.105   7.057  0.9016  1.0104  0.6425
   49DOPE  C215 6262   2.042   5.293   7.147 -0.8312  0.2165  0.2538
   49DOPE  H15R 6263   1.947   5.344   7.120 -1.3879 -0.8976  0.0648
   49DOPE  H15S 6264   2.127   5.365   7.139  2.1296 -2.8188  1.6049
   49DOPE  C216 6265   2.010   5.252   7.291  0.4437  0.7682  0.4145
   49DOPE  H16R 6266   1.915   5.194   7.296  1.0755 -0.3788 -0.2112
   49DOPE  H16S 6267   1.992   5.338   7.359  0.5067  0.3261  0.9963
   49DOPE  C217 6268   2.120   5.164   7.364  0.5052 -0.8617  0.2510
   49DOPE  H17R 6269   2.212   5.224   7.377  0.4970 -0.4018 -1.4909
   49DOPE  H17S 6270   2.146   5.092   7.283  1.2791  1.6676 -1.8748
   49DOPE  C218 6271   2.087   5.105   7.500  0.0324  0.8955 -0.4132
   49DOPE  H18R 6272   2.180   5.079   7.555 -0.4984  0.7055  0.4177
   49DOPE  H18S 6273   2.024   5.017   7.475  0.1541  1.2479 -2.1198
   49DOPE  H18T 6274   2.025   5.175   7.560 -2.4362 -0.0946 -1.6921
   49DOPE   C33 6275   2.608   5.552   5.748 -0.4110  0.5823 -0.3450
   49DOPE   H3X 6276   2.599   5.654   5.792  0.1560  0.2795  0.5045
   49DOPE   H3Y 6277   2.717   5.528   5.747 -0.1399  1.7211 -1.9766
   49DOPE   C34 6278   2.525   5.450   5.829 -0.2306 -0.6631 -0.4971
   49DOPE   H4X 6279   2.418   5.479   5.828 -0.1965 -0.5604 -1.2111
   49DOPE   H4Y 6280   2.543   5.344   5.803 -2.5613 -0.9584 -1.1184
   49DOPE   C35 6281   2.567   5.455   5.978  0.5771 -0.0797  0.2628
   49DOPE   H5X 6282   2.678   5.469   5.978  0.4070  1.4145  0.4227
   49DOPE   H5Y 6283   2.546   5.362   6.034  0.2936  1.4708  2.8606
   49DOPE   C36 6284   2.504   5.576   6.046 -0.2149  0.7423 -0.2206
   49DOPE   H6X 6285   2.394   5.560   6.045 -0.1370  0.0984  0.2974
   49DOPE   H6Y 6286   2.530   5.666   5.988 -0.8575  0.6947 -0.5937
   49DOPE   C37 6287   2.551   5.597   6.193 -0.0576  0.0063 -0.5353
   49DOPE   H7X 6288   2.660   5.576   6.201  0.2504  2.0749  2.6755
   49DOPE   H7Y 6289   2.540   5.704   6.222  0.4588 -0.1910  0.4396
   49DOPE   C38 6290   2.471   5.518   6.290 -0.2032  0.4407 -0.6895
   49DOPE   H8X 6291   2.534   5.481   6.373  0.1491  1.3128 -0.5567
   49DOPE   H8Y 6292   2.424   5.427   6.246  1.3751 -1.6655  1.7256
   49DOPE   C39 6293   2.353   5.594   6.346 -0.3480 -0.6587  0.1853
   49DOPE   H9X 6294   2.275   5.606   6.269  0.5066 -2.0806 -0.9464
   49DOPE  C310 6295   2.339   5.654   6.466 -0.0570  0.0009  0.0692
   49DOPE  H10X 6296   2.239   5.686   6.501 -0.0815  0.4088 -0.3632
   49DOPE  C311 6297   2.438   5.660   6.580 -0.2725 -0.4676  0.3228
   49DOPE  H11X 6298   2.544   5.648   6.548 -0.0970  2.5045 -0.5107
   49DOPE  H11Y 6299   2.440   5.768   6.605 -0.6874 -0.1097 -1.0902
   49DOPE  C312 6300   2.411   5.582   6.707 -0.1036 -0.1681 -0.0564
   49DOPE  H12X 6301   2.491   5.591   6.783  0.2285 -2.1047 -0.1303
   49DOPE  H12Y 6302   2.412   5.478   6.669  0.7005 -0.1847  0.0009
   49DOPE  C313 6303   2.288   5.621   6.792 -0.0138 -0.2776 -0.1618
   49DOPE  H13X 6304   2.194   5.617   6.733 -0.9414  4.1623  0.6849
   49DOPE  H13Y 6305   2.282   5.543   6.871  2.1652  0.4981  0.8676
   49DOPE  C314 6306   2.286   5.755   6.864 -0.2082  0.5963  0.3428
   49DOPE  H14X 6307   2.179   5.783   6.871 -0.3360  0.7527 -1.5390
   49DOPE  H14Y 6308   2.347   5.816   6.794  1.6775 -0.2907  1.1268
   49DOPE  C315 6309   2.352   5.758   7.002 -0.6017 -0.1812  0.0028
   49DOPE  H15X 6310   2.360   5.863   7.037  0.0432  0.0713 -0.8717
   49DOPE  H15Y 6311   2.458   5.728   6.985 -1.3293 -1.0562 -3.9132
   49DOPE  C316 6312   2.283   5.668   7.102 -0.3538  0.1365  0.0047
   49DOPE  H16X 6313   2.275   5.565   7.062  0.2205 -0.6741  1.8665
   49DOPE  H16Y 6314   2.180   5.709   7.117 -1.0185 -1.4601 -0.0328
   49DOPE  C317 6315   2.356   5.636   7.234 -0.0553 -0.0287 -0.1591
   49DOPE  H17X 6316   2.465   5.631   7.211  0.1704  1.5952  0.4471
   49DOPE  H17Y 6317   2.347   5.722   7.304  1.7394 -1.5886  2.1326
   49DOPE  C318 6318   2.301   5.512   7.317 -0.4247 -0.0288  0.1713
   49DOPE  H18X 6319   2.324   5.431   7.244  0.5830 -0.4619  0.9413
   49DOPE  H18Y 6320   2.352   5.490   7.414 -0.2651  1.2291  0.3893
   49DOPE  H18Z 6321   2.192   5.523   7.334 -0.3175  1.3254  0.0793
   50DOPE     N 6322   0.401   3.858   4.726 -0.1648 -0.2195  0.0048
   50DOPE   HN1 6323   0.405   3.788   4.650 -1.3276 -0.8152  0.4614
   50DOPE   HN2 6324   0.432   3.815   4.816 -1.1233  1.1338  1.0300
   50DOPE   HN3 6325   0.307   3.902   4.723 -0.2448 -0.4138 -0.3989
   50DOPE   C12 6326   0.502   3.960   4.703  0.3836 -0.2369 -0.1726
   50DOPE  H12A 6327   0.483   4.004   4.602  0.1222  3.6406  1.3999
   50DOPE  H12B 6328   0.600   3.907   4.712  0.0544 -0.5425  2.2596
   50DOPE   C11 6329   0.498   4.072   4.806  0.4968  0.1931  0.0660
   50DOPE  H11A 6330   0.591   4.132   4.803  2.1680 -2.2679 -0.6353
   50DOPE  H11B 6331   0.497   4.023   4.906  2.5502 -2.2635 -1.0120
   50DOPE     P 6332   0.237   4.125   4.867 -0.3837 -0.0595 -0.3019
   50DOPE   O13 6333   0.196   3.987   4.830  0.4554  0.3587  0.2132
   50DOPE   O14 6334   0.144   4.242   4.845 -0.2006 -0.3898 -0.5483
   50DOPE   O11 6335   0.273   4.113   5.023 -0.2444 -0.3506 -0.0015
   50DOPE   O12 6336   0.376   4.146   4.793  0.5247  0.6684 -0.1934
   50DOPE    C1 6337   0.337   4.221   5.095  0.4665  0.1242  0.1357
   50DOPE    HA 6338   0.263   4.303   5.113 -0.4406  0.2088 -3.2645
   50DOPE    HB 6339   0.420   4.258   5.031 -0.2165 -0.7985 -1.3413
   50DOPE    C2 6340   0.379   4.168   5.229  0.5206 -0.5839 -0.3067
   50DOPE    HS 6341   0.415   4.063   5.223 -1.3690 -1.4023  1.5139
   50DOPE   O21 6342   0.268   4.185   5.319  1.3669  0.1994 -0.4407
   50DOPE   C21 6343   0.268   4.098   5.414 -0.3253 -0.3610 -0.3854
   50DOPE   O22 6344   0.339   3.997   5.429 -0.9248 -0.0310 -0.4657
   50DOPE   C22 6345   0.148   4.130   5.505 -0.1826 -0.0127  0.1528
   50DOPE   H2R 6346   0.061   4.085   5.452  1.0653 -0.3954 -1.6861
   50DOPE   H2S 6347   0.135   4.240   5.505 -1.2688 -0.1210 -0.9108
   50DOPE    C3 6348   0.488   4.259   5.285  0.4428  0.4563 -0.3897
   50DOPE    HX 6349   0.448   4.362   5.289  1.0733  0.6872  0.1779
   50DOPE    HY 6350   0.573   4.256   5.214  1.4570  0.5927  0.7878
   50DOPE   O31 6351   0.530   4.234   5.426  0.8117  0.3928  0.2837
   50DOPE   C31 6352   0.628   4.145   5.433 -0.3839  0.4836  0.7908
   50DOPE   O32 6353   0.682   4.091   5.333 -0.2278  0.6249  0.6436
   50DOPE   C32 6354   0.676   4.131   5.574 -0.4685  0.4342  0.3634
   50DOPE   H2X 6355   0.757   4.055   5.581 -1.5329 -0.5775  3.0464
   50DOPE   H2Y 6356   0.720   4.225   5.614  1.1157  0.4225 -1.2579
   50DOPE   C23 6357   0.147   4.089   5.654 -0.1796  0.3762  0.1424
   50DOPE   H3R 6358   0.060   4.130   5.710  0.8751 -0.2890  2.3581
   50DOPE   H3S 6359   0.236   4.131   5.706 -0.9748 -0.6790  2.4361
   50DOPE   C24 6360   0.146   3.935   5.673  0.3441 -0.5645  0.1381
   50DOPE   H4R 6361   0.250   3.896   5.675  1.1027  1.3818  0.0840
   50DOPE   H4S 6362   0.104   3.881   5.585 -0.5871 -0.6190  0.5999
   50DOPE   C25 6363   0.061   3.884   5.789  0.4111 -0.4414 -0.5980
   50DOPE   H5R 6364   0.055   3.774   5.784  0.8621 -0.6385  1.8461
   50DOPE   H5S 6365  -0.037   3.935   5.798  0.9603  0.5866 -0.1303
   50DOPE   C26 6366   0.129   3.911   5.926 -0.4859 -0.1538  0.1198
   50DOPE   H6R 6367   0.134   4.020   5.944 -1.2540  0.6076 -3.5263
   50DOPE   H6S 6368   0.229   3.863   5.923  0.3438  1.3085  2.2994
   50DOPE   C27 6369   0.053   3.852   6.042  0.5736  0.5882 -0.3202
   50DOPE   H7R 6370   0.056   3.742   6.026 -1.6378  0.3438  0.4850
   50DOPE   H7S 6371  -0.055   3.879   6.041  0.3394  0.0590  2.2875
   50DOPE   C28 6372   0.104   3.882   6.183 -0.3663  0.8648 -0.4532
   50DOPE   H8R 6373   0.209   3.845   6.180 -0.5652 -0.0871  2.0596
   50DOPE   H8S 6374   0.060   3.803   6.249  1.4724 -1.9439 -2.3439
   50DOPE   C29 6375   0.088   4.030   6.219  0.0471 -0.2318  0.9312
   50DOPE   H9R 6376   0.112   4.108   6.144  0.8663 -0.5318  0.8756
   50DOPE  C210 6377   0.009   4.072   6.319 -0.4102 -0.4793 -0.2746
   50DOPE  H10R 6378  -0.026   4.177   6.316  1.3349  0.1228 -0.6850
   50DOPE  C211 6379  -0.042   4.008   6.439 -0.5195 -0.5775  0.4632
   50DOPE  H11R 6380  -0.047   3.898   6.423 -1.2138 -0.4581 -0.1739
   50DOPE  H11S 6381  -0.141   4.052   6.463 -0.7436  0.6908 -2.4472
   50DOPE  C212 6382   0.059   4.035   6.548 -0.4685 -0.2127 -0.2669
   50DOPE  H12R 6383   0.033   4.137   6.585  0.8466 -0.5342  1.7194
   50DOPE  H12S 6384   0.160   4.029   6.501  0.2558 -1.5431  1.3400
   50DOPE  C213 6385   0.058   3.951   6.671 -0.3413 -0.3725 -0.2145
   50DOPE  H13R 6386   0.060   3.844   6.640 -0.3202  0.0548 -1.7975
   50DOPE  H13S 6387  -0.034   3.970   6.731 -0.7491  0.6079 -1.1206
   50DOPE  C214 6388   0.175   3.983   6.757 -0.8013  0.1426  0.7643
   50DOPE  H14R 6389   0.177   4.093   6.771 -0.2013  0.3192 -0.5305
   50DOPE  H14S 6390   0.269   3.963   6.702  0.6531  2.5071  2.2163
   50DOPE  C215 6391   0.186   3.909   6.893 -0.1161 -0.4421  0.3033
   50DOPE  H15R 6392   0.289   3.911   6.935  0.7325 -0.0400 -1.7195
   50DOPE  H15S 6393   0.167   3.802   6.869  0.7848 -0.6609  0.5526
   50DOPE  C216 6394   0.074   3.951   6.995  0.0490 -0.3565 -1.0260
   50DOPE  H16R 6395  -0.016   3.913   6.942  1.4743  1.6491 -5.3660
   50DOPE  H16S 6396   0.066   4.061   6.994 -2.8753 -0.4948 -1.4659
   50DOPE  C217 6397   0.101   3.898   7.135  0.6837 -0.1041  0.1564
   50DOPE  H17R 6398   0.202   3.928   7.171  0.7381 -0.5100  0.3419
   50DOPE  H17S 6399   0.085   3.788   7.136 -0.4337  0.0119 -1.5159
   50DOPE  C218 6400  -0.003   3.952   7.235  0.0782 -0.7884 -0.3080
   50DOPE  H18R 6401   0.004   3.909   7.338  0.4434  0.9117  0.4082
   50DOPE  H18S 6402  -0.107   3.940   7.199  0.1512 -1.2736 -0.3687
   50DOPE  H18T 6403   0.008   4.062   7.244 -2.7189 -0.5980  2.4039
   50DOPE   C33 6404   0.563   4.069   5.654 -0.1238 -0.0891 -0.3036
   50DOPE   H3X 6405   0.533   3.968   5.619 -1.0790 -0.1294  0.6092
   50DOPE   H3Y 6406   0.476   4.138   5.648  0.4295  0.7900  1.2576
   50DOPE   C34 6407   0.599   4.053   5.796 -0.2522 -0.1819 -0.5945
   50DOPE   H4X 6408   0.683   3.980   5.796 -0.7895 -0.8330 -2.0692
   50DOPE   H4Y 6409   0.636   4.154   5.825 -0.2058 -0.4482  0.2837
   50DOPE   C35 6410   0.486   4.007   5.890 -0.8566 -0.1384  0.3228
   50DOPE   H5X 6411   0.449   3.907   5.858 -0.5122 -0.6215  1.3886
   50DOPE   H5Y 6412   0.404   4.082   5.889 -1.0688 -0.3502  0.9821
   50DOPE   C36 6413   0.558   3.997   6.027  0.5198  0.2408  0.5906
   50DOPE   H6X 6414   0.571   4.099   6.069  1.3613 -0.3429  1.7953
   50DOPE   H6Y 6415   0.657   3.947   6.016  0.1918 -0.3187  0.1202
   50DOPE   C37 6416   0.466   3.917   6.125  0.1266  0.6473  0.1459
   50DOPE   H7X 6417   0.363   3.959   6.127 -1.1710 -2.2530  2.6962
   50DOPE   H7Y 6418   0.457   3.813   6.089 -0.5080  0.6600  0.2506
   50DOPE   C38 6419   0.530   3.913   6.264 -0.2094 -0.4396  0.5654
   50DOPE   H8X 6420   0.554   4.020   6.281 -0.5100 -0.3857  0.6645
   50DOPE   H8Y 6421   0.631   3.870   6.249  0.9756  2.4923 -0.6714
   50DOPE   C39 6422   0.436   3.864   6.368 -0.0605  0.1218 -0.0381
   50DOPE   H9X 6423   0.331   3.891   6.354 -0.0545  1.1820  1.6660
   50DOPE  C310 6424   0.464   3.802   6.481 -0.0757 -0.7853 -0.4334
   50DOPE  H10X 6425   0.394   3.803   6.565  0.0115  1.1156 -0.3390
   50DOPE  C311 6426   0.608   3.777   6.522 -0.6765 -0.2333  0.0203
   50DOPE  H11X 6427   0.633   3.669   6.532 -1.5456 -0.7799 -2.6479
   50DOPE  H11Y 6428   0.688   3.816   6.456 -2.2900  1.1520 -1.2112
   50DOPE  C312 6429   0.628   3.838   6.664 -0.0469 -0.4729 -0.3136
   50DOPE  H12X 6430   0.611   3.947   6.671 -1.4190 -0.7053  0.5591
   50DOPE  H12Y 6431   0.738   3.827   6.675 -0.1027 -1.0260 -0.2893
   50DOPE  C313 6432   0.564   3.756   6.782 -0.0634 -0.1846  0.7322
   50DOPE  H13X 6433   0.456   3.757   6.755  0.6230  3.2120 -2.6607
   50DOPE  H13Y 6434   0.599   3.650   6.781  0.3909 -0.0353  1.1653
   50DOPE  C314 6435   0.585   3.822   6.921 -0.2508  0.5305  0.1552
   50DOPE  H14X 6436   0.517   3.910   6.928 -0.3020  0.5248 -0.2516
   50DOPE  H14Y 6437   0.691   3.854   6.924  0.8190 -2.4392 -1.7773
   50DOPE  C315 6438   0.555   3.722   7.032  0.2839 -0.5311 -0.4875
   50DOPE  H15X 6439   0.622   3.633   7.031  1.3861  0.2847 -1.9009
   50DOPE  H15Y 6440   0.452   3.681   7.041  0.6737 -1.3099  0.7530
   50DOPE  C316 6441   0.572   3.792   7.172  0.5703 -0.2143 -0.3388
   50DOPE  H16X 6442   0.511   3.735   7.246  1.1801  0.0320  0.3783
   50DOPE  H16Y 6443   0.527   3.894   7.167 -2.2774 -1.3837 -0.2329
   50DOPE  C317 6444   0.724   3.811   7.213  0.3228 -0.1829 -0.2288
   50DOPE  H17X 6445   0.785   3.721   7.191 -0.8005 -1.3035  0.9923
   50DOPE  H17Y 6446   0.764   3.895   7.153  2.9301 -1.2209 -0.0666
   50DOPE  C318 6447   0.731   3.843   7.364 -0.1290 -0.1386  0.4906
   50DOPE  H18X 6448   0.683   3.940   7.388 -0.5410  0.1445 -1.3741
   50DOPE  H18Y 6449   0.696   3.756   7.424 -0.4153  0.7007  1.5834
   50DOPE  H18Z 6450   0.836   3.857   7.398 -0.4797 -0.4219  1.7699
   51DOPE     N 6451   3.633   6.620   5.237  0.1119  0.2235  0.3925
   51DOPE   HN1 6452   3.590   6.713   5.218 -0.5588  0.0667  1.0952
   51DOPE   HN2 6453   3.723   6.610   5.185  0.3515  0.5952  0.7260
   51DOPE   HN3 6454   3.567   6.553   5.193  1.1810 -0.3245 -0.4151
   51DOPE   C12 6455   3.644   6.598   5.385  0.1199 -0.1942  0.9756
   51DOPE  H12A 6456   3.551   6.633   5.435 -0.8589 -0.1746 -0.7555
   51DOPE  H12B 6457   3.719   6.670   5.424 -1.4091  2.0660 -0.0741
   51DOPE   C11 6458   3.668   6.445   5.427 -0.0969 -0.1388 -0.2826
   51DOPE  H11A 6459   3.694   6.441   5.535 -1.7795  1.2618  0.2229
   51DOPE  H11B 6460   3.757   6.411   5.370 -1.2227 -2.0113 -1.0062
   51DOPE     P 6461   3.561   6.205   5.413 -0.2945 -0.4580 -0.2800
   51DOPE   O13 6462   3.677   6.150   5.340 -0.0723  0.1984  0.9092
   51DOPE   O14 6463   3.423   6.154   5.376 -0.2520 -0.6120  0.3948
   51DOPE   O11 6464   3.585   6.161   5.559  0.2071 -0.2142  0.4834
   51DOPE   O12 6465   3.556   6.365   5.403 -0.4635 -0.0453 -0.0910
   51DOPE    C1 6466   3.528   6.208   5.679 -0.0895  0.0583 -0.4512
   51DOPE    HA 6467   3.481   6.115   5.718 -1.5833 -0.0701 -2.3842
   51DOPE    HB 6468   3.438   6.271   5.659  0.2187  0.0372 -2.0535
   51DOPE    C2 6469   3.627   6.277   5.772 -0.8410  0.6800  0.5671
   51DOPE    HS 6470   3.648   6.378   5.731 -0.6252 -0.0848 -1.3419
   51DOPE   O21 6471   3.738   6.190   5.790  0.3016  0.7071  0.5301
   51DOPE   C21 6472   3.852   6.235   5.835  0.7338  0.5910  0.0327
   51DOPE   O22 6473   3.888   6.349   5.825  0.2660 -0.5484 -0.4438
   51DOPE   C22 6474   3.937   6.117   5.898 -0.0261  0.7943 -0.0406
   51DOPE   H2R 6475   3.952   6.046   5.814 -1.4986 -1.0122  1.1384
   51DOPE   H2S 6476   3.860   6.068   5.961 -1.1128  0.6555 -1.4321
   51DOPE    C3 6477   3.559   6.308   5.910 -0.4240 -0.2344  0.2636
   51DOPE    HX 6478   3.623   6.382   5.963 -0.2416 -0.3766  0.2459
   51DOPE    HY 6479   3.561   6.215   5.971 -0.6088 -0.8900 -0.7102
   51DOPE   O31 6480   3.429   6.360   5.887  0.1394  0.0215  0.2073
   51DOPE   C31 6481   3.364   6.399   5.996  0.0322  0.3547 -0.1518
   51DOPE   O32 6482   3.413   6.391   6.109 -0.6182 -0.3424 -0.4452
   51DOPE   C32 6483   3.239   6.472   5.959 -0.0496 -0.6220 -0.0018
   51DOPE   H2X 6484   3.256   6.553   5.884 -0.3725 -0.8067 -0.2771
   51DOPE   H2Y 6485   3.171   6.397   5.914  0.5120 -0.6770 -0.7874
   51DOPE   C23 6486   4.058   6.169   5.982 -0.2104 -0.4034 -0.1525
   51DOPE   H3R 6487   4.101   6.254   5.926 -0.1191 -1.0577 -1.0936
   51DOPE   H3S 6488   4.135   6.093   6.008 -1.0877 -0.2953  3.2973
   51DOPE   C24 6489   4.015   6.217   6.124  0.1978 -0.7070  0.6460
   51DOPE   H4R 6490   3.999   6.124   6.184 -2.6344 -1.1547 -0.6827
   51DOPE   H4S 6491   3.923   6.278   6.125  1.1328  0.8228 -1.1613
   51DOPE   C25 6492   4.120   6.296   6.191 -1.0239  0.5192  0.3529
   51DOPE   H5R 6493   4.168   6.363   6.117  0.0839 -2.7926 -2.1616
   51DOPE   H5S 6494   4.203   6.226   6.213  0.1068  1.0044 -2.0495
   51DOPE   C26 6495   4.084   6.375   6.318  0.3336  0.1283 -0.1316
   51DOPE   H6R 6496   3.990   6.429   6.293  0.7912  0.6975 -0.6958
   51DOPE   H6S 6497   4.161   6.455   6.329 -0.7804  1.0256  1.4639
   51DOPE   C27 6498   4.069   6.284   6.445 -0.4003 -0.7845  0.1878
   51DOPE   H7R 6499   4.167   6.244   6.480 -0.0795  1.8667  2.5924
   51DOPE   H7S 6500   4.020   6.191   6.408 -1.9011 -0.8938  2.3054
   51DOPE   C28 6501   3.989   6.346   6.553  0.0912  0.3087 -0.7620
   51DOPE   H8R 6502   3.892   6.378   6.509  0.7034  1.0932 -1.5744
   51DOPE   H8S 6503   4.035   6.441   6.590  0.9194 -0.3154 -0.1533
   51DOPE   C29 6504   3.957   6.252   6.669 -1.3046 -0.5645  0.2113
   51DOPE   H9R 6505   3.913   6.157   6.635 -1.3910 -1.4459  2.5936
   51DOPE  C210 6506   4.010   6.256   6.791  0.2333  0.2019  0.2423
   51DOPE  H10R 6507   4.002   6.161   6.846 -2.2283  0.8961  1.2587
   51DOPE  C211 6508   4.089   6.372   6.855  0.2214  0.0158 -0.2187
   51DOPE  H11R 6509   4.172   6.398   6.787  0.1397 -3.3299 -1.8005
   51DOPE  H11S 6510   4.135   6.337   6.951 -1.8427 -1.4384  0.3220
   51DOPE  C212 6511   4.007   6.502   6.886  0.1390 -0.4121  0.0008
   51DOPE  H12R 6512   3.931   6.478   6.963  0.2466 -0.6215  0.0400
   51DOPE  H12S 6513   3.939   6.536   6.804  1.0090 -1.8442 -1.3651
   51DOPE  C213 6514   4.100   6.609   6.938 -0.2534 -0.3526 -0.7097
   51DOPE  H13R 6515   4.156   6.659   6.857 -1.3676  0.5118 -0.9773
   51DOPE  H13S 6516   4.167   6.551   7.004  0.8932  1.3613 -0.3032
   51DOPE  C214 6517   4.034   6.715   7.027 -0.4383  0.4404 -0.4087
   51DOPE  H14R 6518   3.956   6.667   7.090  1.3103  0.5559  2.0031
   51DOPE  H14S 6519   3.982   6.784   6.958 -0.7385  0.5152 -0.1101
   51DOPE  C215 6520   4.126   6.791   7.116 -0.3080  0.0292 -0.5311
   51DOPE  H15R 6521   4.212   6.810   7.049  0.0077  2.4674  0.4552
   51DOPE  H15S 6522   4.164   6.731   7.202  1.6487  1.7000 -0.1450
   51DOPE  C216 6523   4.069   6.932   7.165  0.2427  0.1895 -0.4984
   51DOPE  H16R 6524   4.003   6.971   7.084 -0.1392  0.3290 -0.1233
   51DOPE  H16S 6525   4.156   6.998   7.180 -0.8361  2.1026 -2.1756
   51DOPE  C217 6526   3.988   6.909   7.295 -0.3897 -0.1250  0.1913
   51DOPE  H17R 6527   4.057   6.909   7.382  2.8231 -2.3522 -2.1200
   51DOPE  H17S 6528   3.945   6.806   7.298  3.3639 -1.8564  0.9271
   51DOPE  C218 6529   3.862   7.001   7.294  0.6615 -0.7954  0.0511
   51DOPE  H18R 6530   3.796   6.967   7.376  0.3862 -0.3661  0.0104
   51DOPE  H18S 6531   3.791   6.993   7.208  1.4644  0.2921 -0.7463
   51DOPE  H18T 6532   3.890   7.107   7.311  0.1527 -0.2212 -2.2763
   51DOPE   C33 6533   3.164   6.530   6.087 -0.2878  0.1475 -0.0907
   51DOPE   H3X 6534   3.154   6.449   6.163 -0.2557  0.1531 -0.0808
   51DOPE   H3Y 6535   3.061   6.562   6.064 -0.2276  0.1177 -0.4131
   51DOPE   C34 6536   3.241   6.660   6.130  0.4283  0.5035  0.3105
   51DOPE   H4X 6537   3.351   6.641   6.138  0.2719 -1.8475 -1.7437
   51DOPE   H4Y 6538   3.249   6.740   6.053  2.6740 -1.2108 -1.4103
   51DOPE   C35 6539   3.194   6.716   6.267 -0.3399  0.4573 -0.6266
   51DOPE   H5X 6540   3.087   6.747   6.260 -0.7017 -0.3116  0.9304
   51DOPE   H5Y 6541   3.256   6.803   6.295 -0.0603 -0.4958  1.9928
   51DOPE   C36 6542   3.209   6.613   6.380 -0.3125 -0.3575 -0.1838
   51DOPE   H6X 6543   3.304   6.558   6.363  0.1105 -0.5131  2.2664
   51DOPE   H6Y 6544   3.127   6.541   6.394  0.5514 -1.2113  0.6638
   51DOPE   C37 6545   3.238   6.681   6.516  0.1377 -0.5343  0.7559
   51DOPE   H7X 6546   3.333   6.738   6.510  0.3574 -0.9900 -0.2424
   51DOPE   H7Y 6547   3.163   6.762   6.532  0.8185  0.1272  0.6408
   51DOPE   C38 6548   3.241   6.588   6.636  0.0677  0.0121  0.0199
   51DOPE   H8X 6549   3.277   6.649   6.722  2.9197 -1.8164  0.2451
   51DOPE   H8Y 6550   3.324   6.515   6.640  0.2348  0.2335  2.8102
   51DOPE   C39 6551   3.113   6.529   6.677  0.5393  0.2115  0.4840
   51DOPE   H9X 6552   3.076   6.458   6.602 -1.1960  0.7266  0.7909
   51DOPE  C310 6553   3.031   6.557   6.775  1.0059 -0.4418 -0.2357
   51DOPE  H10X 6554   2.936   6.502   6.783  1.3183 -0.8123  1.2330
   51DOPE  C311 6555   3.057   6.654   6.891 -0.0820 -0.0408 -0.1836
   51DOPE  H11X 6556   3.159   6.697   6.893 -0.3719  0.9482  4.3573
   51DOPE  H11Y 6557   2.990   6.742   6.878  2.4523  1.6974 -2.3836
   51DOPE  C312 6558   3.040   6.593   7.034 -0.5055 -0.1563  0.2769
   51DOPE  H12X 6559   2.936   6.553   7.034  0.5178 -3.2823 -2.0782
   51DOPE  H12Y 6560   3.043   6.681   7.100  0.5000  0.8658 -1.0786
   51DOPE  C313 6561   3.139   6.480   7.076 -0.5021  0.0722 -1.1959
   51DOPE  H13X 6562   3.170   6.415   6.991  1.8004  1.1139 -1.2298
   51DOPE  H13Y 6563   3.227   6.532   7.119 -0.5517 -0.8376  0.0694
   51DOPE  C314 6564   3.069   6.410   7.198  0.0151  0.0549 -0.2910
   51DOPE  H14X 6565   2.964   6.380   7.177  0.1875 -1.1160  0.4397
   51DOPE  H14Y 6566   3.053   6.485   7.278 -0.3882 -0.2631 -0.0700
   51DOPE  C315 6567   3.146   6.290   7.241 -0.0940 -0.3900  0.1126
   51DOPE  H15X 6568   3.248   6.319   7.274 -0.6908 -1.0479  2.7676
   51DOPE  H15Y 6569   3.156   6.208   7.168  1.6342 -2.0047  2.0269
   51DOPE  C316 6570   3.075   6.222   7.361  0.6402 -0.6443  1.2672
   51DOPE  H16X 6571   2.967   6.213   7.335  0.2354  3.0313  1.2042
   51DOPE  H16Y 6572   3.078   6.296   7.443 -0.5282  3.0823 -1.7835
   51DOPE  C317 6573   3.138   6.094   7.403 -0.2401 -0.8217 -0.6761
   51DOPE  H17X 6574   3.136   6.014   7.326 -1.8081 -0.7809 -0.7024
   51DOPE  H17Y 6575   3.244   6.123   7.415 -0.7406  1.1742 -0.7984
   51DOPE  C318 6576   3.067   6.050   7.532 -0.2613  0.2320  0.0570
   51DOPE  H18X 6577   2.958   6.065   7.521 -0.4224 -0.6206  0.3364
   51DOPE  H18Y 6578   3.074   5.940   7.549 -1.8147  0.0564 -0.3212
   51DOPE  H18Z 6579   3.098   6.113   7.618  0.7976  2.4142 -1.8444
   52DOPE     N 6580   6.506   5.034   4.752 -0.3306 -0.1223 -0.0670
   52DOPE   HN1 6581   6.419   4.991   4.714 -0.3900 -1.2430  1.2402
   52DOPE   HN2 6582   6.551   4.961   4.812  0.2535 -0.3605 -0.7872
   52DOPE   HN3 6583   6.475   5.112   4.813  0.6084 -1.4317  2.2344
   52DOPE   C12 6584   6.609   5.077   4.650  0.2478  0.0419  0.2304
   52DOPE  H12A 6585   6.591   5.183   4.622  0.5243 -0.1308 -0.6404
   52DOPE  H12B 6586   6.590   5.006   4.566  0.2524 -1.4138  1.4103
   52DOPE   C11 6587   6.749   5.047   4.713 -0.6464  0.0059 -1.1767
   52DOPE  H11A 6588   6.770   5.116   4.798 -1.2224 -0.0880 -0.9591
   52DOPE  H11B 6589   6.822   5.085   4.638  1.6390  1.1082  1.4397
   52DOPE     P 6590   6.909   4.847   4.774  0.3608  0.2215  0.2833
   52DOPE   O13 6591   7.015   4.936   4.730 -0.0894 -0.2210  0.6628
   52DOPE   O14 6592   6.916   4.707   4.725 -0.1440 -0.5000 -0.6533
   52DOPE   O11 6593   6.918   4.846   4.932 -0.1306 -0.5317  0.0624
   52DOPE   O12 6594   6.766   4.908   4.743 -0.5823 -0.6618  0.2555
   52DOPE    C1 6595   6.793   4.822   5.004  0.1401  0.7368 -0.1666
   52DOPE    HA 6596   6.738   4.733   4.964  2.4768 -1.2002  0.6927
   52DOPE    HB 6597   6.725   4.910   4.997 -1.4342 -0.4972 -1.2735
   52DOPE    C2 6598   6.803   4.798   5.157  0.0956 -0.1307  0.1278
   52DOPE    HS 6599   6.844   4.890   5.204  0.6681 -1.5949  2.6685
   52DOPE   O21 6600   6.898   4.690   5.179 -0.5734  0.1646 -0.0245
   52DOPE   C21 6601   6.970   4.704   5.292  0.3621  0.5351 -0.7304
   52DOPE   O22 6602   6.967   4.805   5.362  0.3362 -0.3219  0.7117
   52DOPE   C22 6603   7.067   4.581   5.308  0.0611 -1.1073 -0.0502
   52DOPE   H2R 6604   7.168   4.623   5.327 -0.0796 -0.6684 -0.2565
   52DOPE   H2S 6605   7.060   4.517   5.218 -0.5642 -3.0132  1.2970
   52DOPE    C3 6606   6.667   4.765   5.225  0.0506 -0.8838  0.7946
   52DOPE    HX 6607   6.621   4.679   5.172 -0.4837  0.1394 -0.4671
   52DOPE    HY 6608   6.605   4.854   5.198 -0.5637 -0.9813  1.8266
   52DOPE   O31 6609   6.678   4.742   5.369  0.2439 -0.5316  0.5055
   52DOPE   C31 6610   6.562   4.711   5.416  0.1877 -0.2633 -0.6371
   52DOPE   O32 6611   6.451   4.730   5.370  0.5816  0.0484  0.2559
   52DOPE   C32 6612   6.595   4.653   5.561 -0.2688 -0.5760  0.6653
   52DOPE   H2X 6613   6.624   4.549   5.534  0.2418  0.1945 -2.1407
   52DOPE   H2Y 6614   6.687   4.693   5.608 -0.3982  0.5826 -0.0116
   52DOPE   C23 6615   7.024   4.493   5.434  0.5283  0.6251 -0.4445
   52DOPE   H3R 6616   7.088   4.402   5.426  1.2015  1.0096  0.4723
   52DOPE   H3S 6617   6.920   4.456   5.421 -0.0272  1.9611 -0.0079
   52DOPE   C24 6618   7.027   4.562   5.568 -0.3498 -0.2318  0.0406
   52DOPE   H4R 6619   6.952   4.644   5.575 -0.9963 -0.5438 -2.3852
   52DOPE   H4S 6620   7.123   4.614   5.589  0.0640 -1.3496  1.0428
   52DOPE   C25 6621   6.991   4.457   5.674 -0.7130 -0.0230 -0.2122
   52DOPE   H5R 6622   7.048   4.362   5.671 -2.2785 -1.0135  0.3371
   52DOPE   H5S 6623   6.887   4.424   5.655 -0.7744 -1.4115  2.1395
   52DOPE   C26 6624   7.007   4.495   5.821  0.0231 -0.3890 -0.9752
   52DOPE   H6R 6625   6.943   4.585   5.829  0.2150 -0.2176 -1.3817
   52DOPE   H6S 6626   7.111   4.503   5.860 -0.4351 -1.4976  0.6042
   52DOPE   C27 6627   6.947   4.384   5.916 -0.0311 -0.1070  0.4232
   52DOPE   H7R 6628   6.956   4.437   6.013 -2.9644  1.6557 -0.1490
   52DOPE   H7S 6629   7.016   4.298   5.925  2.2377  1.4620 -1.0353
   52DOPE   C28 6630   6.808   4.334   5.883  0.3011 -0.4060 -0.3738
   52DOPE   H8R 6631   6.776   4.253   5.953  0.1421  0.4956  0.6353
   52DOPE   H8S 6632   6.812   4.283   5.785 -0.8648 -3.0216  0.8333
   52DOPE   C29 6633   6.695   4.438   5.887 -0.7389 -0.3182  0.4654
   52DOPE   H9R 6634   6.672   4.498   5.798 -3.2272 -0.7424  0.7407
   52DOPE  C210 6635   6.637   4.475   5.998 -0.0132  0.5705  0.4219
   52DOPE  H10R 6636   6.548   4.537   5.986  0.8173  1.3240 -2.6589
   52DOPE  C211 6637   6.678   4.447   6.148  0.3268 -0.2689  0.6011
   52DOPE  H11R 6638   6.760   4.373   6.139  1.8839  1.3364  1.0767
   52DOPE  H11S 6639   6.591   4.406   6.204 -1.8209  0.6226 -1.8634
   52DOPE  C212 6640   6.741   4.562   6.232 -0.2019 -0.0220  0.2292
   52DOPE  H12R 6641   6.664   4.641   6.250 -0.2664 -0.0462  0.0559
   52DOPE  H12S 6642   6.827   4.607   6.179  0.6091  0.3828  1.8314
   52DOPE  C213 6643   6.779   4.507   6.374  0.3986  0.0467 -0.6701
   52DOPE  H13R 6644   6.831   4.592   6.423  2.2727  0.2492 -2.8480
   52DOPE  H13S 6645   6.835   4.412   6.363  3.1254  1.2638  1.5539
   52DOPE  C214 6646   6.651   4.461   6.452  0.3562  0.0617  0.2732
   52DOPE  H14R 6647   6.623   4.360   6.417 -0.3355  1.3336 -3.2540
   52DOPE  H14S 6648   6.560   4.522   6.429  0.1036  0.2621  1.7491
   52DOPE  C215 6649   6.674   4.464   6.598 -0.1024  0.1318 -0.9380
   52DOPE  H15R 6650   6.686   4.568   6.635 -1.5934 -0.0060  0.0074
   52DOPE  H15S 6651   6.767   4.404   6.613 -1.3058 -1.4932  0.4479
   52DOPE  C216 6652   6.565   4.407   6.689  0.3476  0.3736  0.1557
   52DOPE  H16R 6653   6.545   4.298   6.675 -0.2002  0.5316 -0.3268
   52DOPE  H16S 6654   6.464   4.452   6.674  0.2269 -0.6383 -2.6900
   52DOPE  C217 6655   6.590   4.439   6.836  0.3178 -0.3984 -0.6388
   52DOPE  H17R 6656   6.600   4.550   6.827  3.5992 -0.7029 -2.1749
   52DOPE  H17S 6657   6.685   4.396   6.874  1.3478 -0.8939 -3.5800
   52DOPE  C218 6658   6.474   4.393   6.922  0.1641  0.8039 -0.4786
   52DOPE  H18R 6659   6.374   4.386   6.875  0.6956 -1.9119 -1.4123
   52DOPE  H18S 6660   6.515   4.294   6.954  0.2242  1.0206  0.1417
   52DOPE  H18T 6661   6.480   4.463   7.008  1.7545  2.0393 -1.5342
   52DOPE   C33 6662   6.471   4.653   5.656  0.4064  0.9074  0.0556
   52DOPE   H3X 6663   6.491   4.585   5.742 -1.8505 -1.0396 -0.8563
   52DOPE   H3Y 6664   6.382   4.615   5.601  0.7544  0.8138 -0.4479
   52DOPE   C34 6665   6.452   4.788   5.715 -0.3285 -0.0615  0.0198
   52DOPE   H4X 6666   6.551   4.838   5.717  0.4725 -1.5064 -1.6482
   52DOPE   H4Y 6667   6.390   4.848   5.645 -1.0780 -0.6653  0.1532
   52DOPE   C35 6668   6.399   4.786   5.858  0.7214  0.0513  0.0269
   52DOPE   H5X 6669   6.449   4.710   5.922  1.3797 -1.1801 -1.8706
   52DOPE   H5Y 6670   6.291   4.760   5.855  1.0860 -1.9515  1.5061
   52DOPE   C36 6671   6.411   4.925   5.918 -0.0532  0.1873  0.6605
   52DOPE   H6X 6672   6.338   4.982   5.857 -0.2945 -0.8197 -0.0003
   52DOPE   H6Y 6673   6.509   4.978   5.918  0.1509 -0.1169  2.3801
   52DOPE   C37 6674   6.370   4.935   6.068  0.0761 -0.2502 -0.7388
   52DOPE   H7X 6675   6.351   5.039   6.100 -1.6243 -0.1864 -1.8136
   52DOPE   H7Y 6676   6.283   4.866   6.082 -0.4921 -0.0186 -2.7716
   52DOPE   C38 6677   6.479   4.873   6.159 -0.1410  0.4234  0.0991
   52DOPE   H8X 6678   6.519   4.782   6.109 -0.6656 -0.4987  1.3217
   52DOPE   H8Y 6679   6.440   4.842   6.257  1.6001 -0.7984  0.4511
   52DOPE   C39 6680   6.588   4.970   6.194  0.0044  0.0956  0.1685
   52DOPE   H9X 6681   6.594   5.062   6.135  0.2333 -0.0022  0.0390
   52DOPE  C310 6682   6.671   4.962   6.299 -0.3885 -0.0284 -0.1564
   52DOPE  H10X 6683   6.758   5.028   6.314 -0.5290 -0.2817  2.2554
   52DOPE  C311 6684   6.658   4.861   6.411 -0.7953  0.5880  0.6397
   52DOPE  H11X 6685   6.576   4.787   6.396  1.6913 -2.2418  0.0090
   52DOPE  H11Y 6686   6.752   4.802   6.403  0.3786  2.4907 -0.2142
   52DOPE  C312 6687   6.641   4.906   6.556  0.9803  0.0940  0.8185
   52DOPE  H12X 6688   6.615   4.825   6.627 -1.2224 -0.4876 -0.5710
   52DOPE  H12Y 6689   6.547   4.965   6.556  0.9961  0.1941 -1.0884
   52DOPE  C313 6690   6.759   4.980   6.615  0.7135 -0.0296  0.2576
   52DOPE  H13X 6691   6.845   4.910   6.607  0.9587  0.4585 -2.2168
   52DOPE  H13Y 6692   6.787   5.074   6.562 -0.4001 -0.8847 -1.9936
   52DOPE  C314 6693   6.709   5.031   6.748  0.2637  0.6476 -0.3015
   52DOPE  H14X 6694   6.650   4.949   6.796 -0.2524  1.4261  0.4144
   52DOPE  H14Y 6695   6.641   5.117   6.731 -0.6678  0.0208  0.1589
   52DOPE  C315 6696   6.819   5.067   6.849  0.3104 -0.2653  0.4930
   52DOPE  H15X 6697   6.847   5.174   6.838  1.8805 -0.6466  0.4789
   52DOPE  H15Y 6698   6.905   5.000   6.824  0.0142 -0.8911  1.1392
   52DOPE  C316 6699   6.783   5.031   6.995 -0.2139  0.3340 -0.4560
   52DOPE  H16X 6700   6.878   5.035   7.052 -0.4697  0.1881 -0.0194
   52DOPE  H16Y 6701   6.740   4.930   7.007 -1.2463  0.7387 -0.6196
   52DOPE  C317 6702   6.689   5.134   7.060  0.1766  0.7918 -0.5157
   52DOPE  H17X 6703   6.733   5.233   7.081 -0.5917  1.1057 -0.3236
   52DOPE  H17Y 6704   6.607   5.166   6.993 -0.7339  1.5505  0.8933
   52DOPE  C318 6705   6.626   5.064   7.178 -0.2681  0.3178  0.4094
   52DOPE  H18X 6706   6.543   4.993   7.158 -1.3897  1.3535  1.1862
   52DOPE  H18Y 6707   6.711   5.012   7.227  2.0299  1.4452 -2.1807
   52DOPE  H18Z 6708   6.584   5.133   7.255 -2.5765  0.0974 -0.5664
   53DOPE     N 6709   4.990   5.973   5.189  0.1263 -0.0999  0.3357
   53DOPE   HN1 6710   4.913   6.015   5.132  0.9981 -1.5047 -2.0085
   53DOPE   HN2 6711   5.071   5.947   5.130  0.6992  0.8642  0.6706
   53DOPE   HN3 6712   4.939   5.899   5.240 -0.8674 -0.4992 -1.1826
   53DOPE   C12 6713   5.043   6.080   5.280 -0.3898  0.5836  0.2269
   53DOPE  H12A 6714   4.963   6.139   5.328  0.7856  1.9164  0.6281
   53DOPE  H12B 6715   5.111   6.151   5.229  0.9987 -0.3234  0.7322
   53DOPE   C11 6716   5.131   6.015   5.387 -0.1451 -0.5980  0.3310
   53DOPE  H11A 6717   5.064   5.953   5.450 -2.8373  0.7470 -1.0487
   53DOPE  H11B 6718   5.168   6.093   5.458 -1.9291  0.4846  0.1307
   53DOPE     P 6719   5.379   5.986   5.308  0.0499  0.0067  0.1223
   53DOPE   O13 6720   5.362   6.117   5.244 -0.8308  0.3134  0.0679
   53DOPE   O14 6721   5.469   5.898   5.237 -0.4026 -0.3350 -0.6183
   53DOPE   O11 6722   5.431   6.013   5.456  0.1314  0.9790  0.3429
   53DOPE   O12 6723   5.232   5.928   5.338 -0.0488  0.3648  0.3464
   53DOPE    C1 6724   5.556   6.089   5.473 -0.0793 -0.2484  0.2911
   53DOPE    HA 6725   5.532   6.196   5.453 -1.5901 -0.1856  2.0590
   53DOPE    HB 6726   5.645   6.058   5.416 -0.1459  0.3102 -0.1226
   53DOPE    C2 6727   5.594   6.087   5.627  0.2310 -0.1656 -0.4959
   53DOPE    HS 6728   5.704   6.073   5.617  0.2392  1.3418 -3.3045
   53DOPE   O21 6729   5.539   5.977   5.703  0.3133  0.2411 -0.6127
   53DOPE   C21 6730   5.588   5.855   5.694  0.6557  0.5103  0.1708
   53DOPE   O22 6731   5.669   5.819   5.617 -0.2728  0.2278 -0.8125
   53DOPE   C22 6732   5.536   5.773   5.820 -0.0434 -0.2904  0.8825
   53DOPE   H2R 6733   5.617   5.700   5.843  2.1228  1.7836  0.1828
   53DOPE   H2S 6734   5.461   5.706   5.772  1.7547 -2.3308  0.7648
   53DOPE    C3 6735   5.555   6.219   5.703  0.1847  0.4471 -0.1741
   53DOPE    HX 6736   5.446   6.218   5.684  0.2547  0.6784 -0.6012
   53DOPE    HY 6737   5.604   6.300   5.645  0.1436 -0.8070 -2.0520
   53DOPE   O31 6738   5.582   6.226   5.850  0.1903  0.1920  0.3778
   53DOPE   C31 6739   5.713   6.210   5.886  0.1827 -0.6212 -0.5265
   53DOPE   O32 6740   5.804   6.181   5.814  0.3100  0.1237  0.3621
   53DOPE   C32 6741   5.727   6.240   6.037 -0.3067 -0.2269 -0.0955
   53DOPE   H2X 6742   5.825   6.203   6.071  0.2618 -0.2997 -1.7153
   53DOPE   H2Y 6743   5.718   6.349   6.055 -0.0746 -0.2344  0.0597
   53DOPE   C23 6744   5.469   5.849   5.932  0.0278 -0.4335 -0.3154
   53DOPE   H3R 6745   5.361   5.865   5.909  0.5264  1.1270 -1.7688
   53DOPE   H3S 6746   5.513   5.951   5.937 -0.9574 -0.0119 -0.0542
   53DOPE   C24 6747   5.475   5.784   6.072 -0.0510  0.5022 -0.1278
   53DOPE   H4R 6748   5.432   5.861   6.139 -2.7018 -0.4135 -0.6527
   53DOPE   H4S 6749   5.579   5.756   6.100  0.0464 -1.9553 -2.4979
   53DOPE   C25 6750   5.386   5.665   6.082 -0.8393  0.5261  0.6095
   53DOPE   H5R 6751   5.439   5.578   6.037 -1.3309  0.5654 -0.0586
   53DOPE   H5S 6752   5.288   5.679   6.032 -0.7229 -1.0842 -0.1344
   53DOPE   C26 6753   5.372   5.628   6.232  0.2103 -0.6328  0.3468
   53DOPE   H6R 6754   5.319   5.712   6.281 -0.4077 -0.7255 -0.1397
   53DOPE   H6S 6755   5.472   5.627   6.280 -0.8487 -1.0060  2.6890
   53DOPE   C27 6756   5.310   5.492   6.247 -0.2562  0.4487  0.0868
   53DOPE   H7R 6757   5.379   5.416   6.203  0.5136  1.3835 -0.3388
   53DOPE   H7S 6758   5.213   5.482   6.194 -0.5957 -0.6610  0.8837
   53DOPE   C28 6759   5.293   5.441   6.398  0.1435  0.1345  0.3694
   53DOPE   H8R 6760   5.371   5.483   6.465 -0.1115 -0.8209  1.3026
   53DOPE   H8S 6761   5.324   5.335   6.402  1.2806  0.1360 -3.7508
   53DOPE   C29 6762   5.155   5.466   6.455  0.1760 -0.1628  0.1118
   53DOPE   H9R 6763   5.091   5.524   6.387  1.6169  1.2008 -0.1470
   53DOPE  C210 6764   5.105   5.390   6.554  0.2648 -0.3056 -0.1083
   53DOPE  H10R 6765   5.008   5.413   6.599  0.6131 -1.0512  1.0562
   53DOPE  C211 6766   5.183   5.303   6.640 -0.4106 -0.1974  0.5807
   53DOPE  H11R 6767   5.292   5.307   6.618 -0.8469 -0.1004 -1.7455
   53DOPE  H11S 6768   5.157   5.197   6.622 -0.2695 -0.0060 -0.8171
   53DOPE  C212 6769   5.166   5.327   6.793 -0.4305 -0.2888 -0.1247
   53DOPE  H12R 6770   5.194   5.238   6.855 -0.2903  0.8716  1.5469
   53DOPE  H12S 6771   5.058   5.344   6.812 -1.4170 -0.3754 -4.5239
   53DOPE  C213 6772   5.243   5.452   6.842  0.1343 -0.6245 -0.4062
   53DOPE  H13R 6773   5.210   5.545   6.791  0.0735  0.1495  0.9855
   53DOPE  H13S 6774   5.351   5.434   6.822  1.0205  1.4006  2.0343
   53DOPE  C214 6775   5.231   5.468   6.998 -0.0614 -0.7163  0.2787
   53DOPE  H14R 6776   5.261   5.574   7.016  1.7816 -0.4325 -3.5824
   53DOPE  H14S 6777   5.315   5.418   7.050 -0.1261 -2.1493 -0.9399
   53DOPE  C215 6778   5.095   5.442   7.056 -0.2677 -0.0288 -0.6015
   53DOPE  H15R 6779   5.062   5.340   7.027 -2.7667  0.7164 -0.5830
   53DOPE  H15S 6780   5.024   5.513   7.009 -1.0632 -0.9169 -0.7654
   53DOPE  C216 6781   5.104   5.456   7.206  0.4091 -0.4747 -0.5480
   53DOPE  H16R 6782   4.997   5.474   7.229  1.4066  3.8060  1.6565
   53DOPE  H16S 6783   5.173   5.539   7.232 -0.3645 -0.0376  0.1777
   53DOPE  C217 6784   5.149   5.335   7.284 -0.0116  0.8550 -0.0221
   53DOPE  H17R 6785   5.252   5.320   7.246 -0.0816  2.0745 -0.7483
   53DOPE  H17S 6786   5.089   5.245   7.260 -0.1954  1.3423 -1.4951
   53DOPE  C218 6787   5.147   5.356   7.435 -0.1397  0.2549  0.4906
   53DOPE  H18R 6788   5.041   5.376   7.459  0.2200 -0.0723  2.6103
   53DOPE  H18S 6789   5.205   5.449   7.454 -0.1454  0.3281  0.1570
   53DOPE  H18T 6790   5.181   5.264   7.487  0.9516  0.6182  0.4620
   53DOPE   C33 6791   5.620   6.175   6.125  0.5488 -0.1234  0.6194
   53DOPE   H3X 6792   5.606   6.066   6.109  1.6880 -0.0246 -1.3172
   53DOPE   H3Y 6793   5.519   6.214   6.100  0.8133 -0.6963 -1.4941
   53DOPE   C34 6794   5.658   6.203   6.269  0.3593 -0.6253 -0.3373
   53DOPE   H4X 6795   5.767   6.198   6.291  0.2069 -0.9222  0.3832
   53DOPE   H4Y 6796   5.634   6.304   6.306  0.9426 -1.1440  1.5674
   53DOPE   C35 6797   5.589   6.099   6.368  0.3706 -0.3918  1.2992
   53DOPE   H5X 6798   5.653   6.009   6.357  3.0756  1.4472  0.8899
   53DOPE   H5Y 6799   5.494   6.077   6.316 -0.4164  1.3130  1.9405
   53DOPE   C36 6800   5.576   6.156   6.506  0.1588 -0.1905  0.8584
   53DOPE   H6X 6801   5.488   6.223   6.501 -0.8099 -1.4214  0.8919
   53DOPE   H6Y 6802   5.669   6.204   6.543 -1.3429  0.7895  3.6061
   53DOPE   C37 6803   5.532   6.054   6.615 -0.3468  0.4999 -0.0587
   53DOPE   H7X 6804   5.607   5.972   6.610 -0.9199  0.0129 -0.8989
   53DOPE   H7Y 6805   5.530   6.104   6.714  1.4946 -2.7430  1.8064
   53DOPE   C38 6806   5.393   5.990   6.589  0.1500  0.1546 -0.0544
   53DOPE   H8X 6807   5.395   5.947   6.487 -0.9918  2.2453 -1.0167
   53DOPE   H8Y 6808   5.313   6.067   6.589 -0.3676 -0.3780 -0.4922
   53DOPE   C39 6809   5.360   5.881   6.692  0.1540  0.4086 -0.4767
   53DOPE   H9X 6810   5.379   5.783   6.646 -1.4967 -0.1948  0.0500
   53DOPE  C310 6811   5.312   5.898   6.817  0.0371  0.1342 -0.3196
   53DOPE  H10X 6812   5.288   5.805   6.870 -1.4841  0.1452 -0.9475
   53DOPE  C311 6813   5.298   6.015   6.906  0.8142 -0.4257  0.1102
   53DOPE  H11X 6814   5.315   6.098   6.834 -1.1524 -1.7352 -2.0222
   53DOPE  H11Y 6815   5.194   6.038   6.939  0.2186 -0.0686 -1.8888
   53DOPE  C312 6816   5.387   6.008   7.024  0.2370 -0.3113  0.0504
   53DOPE  H12X 6817   5.386   6.092   7.097 -0.1152 -2.6126  2.8813
   53DOPE  H12Y 6818   5.492   6.018   6.987  0.8177  0.8266  1.8675
   53DOPE  C313 6819   5.384   5.876   7.105  0.5655 -0.3851  0.3566
   53DOPE  H13X 6820   5.275   5.860   7.116  0.4135  0.3923  0.0531
   53DOPE  H13Y 6821   5.420   5.796   7.037  0.7094  0.7647 -0.9883
   53DOPE  C314 6822   5.444   5.882   7.247 -0.5535 -0.2457  0.6680
   53DOPE  H14X 6823   5.385   5.799   7.291 -0.0553 -0.5807  0.7080
   53DOPE  H14Y 6824   5.426   5.982   7.292 -0.1336  0.3925 -0.5212
   53DOPE  C315 6825   5.594   5.856   7.264  0.1681 -0.1410  0.4703
   53DOPE  H15X 6826   5.640   5.943   7.212  0.9545  0.6072  2.3384
   53DOPE  H15Y 6827   5.620   5.768   7.201  0.5042  0.0811  0.2939
   53DOPE  C316 6828   5.634   5.836   7.415  1.1592 -0.0146  0.1038
   53DOPE  H16X 6829   5.595   5.737   7.447 -0.0129  0.4725  0.1986
   53DOPE  H16Y 6830   5.579   5.916   7.469 -0.1091 -1.7034  1.4200
   53DOPE  C317 6831   5.781   5.828   7.450 -0.3865 -0.1509 -0.7150
   53DOPE  H17X 6832   5.831   5.775   7.367  0.4873  0.4823 -0.6058
   53DOPE  H17Y 6833   5.817   5.932   7.439  2.6746 -1.0093  0.3557
   53DOPE  C318 6834   5.813   5.793   7.596 -0.6812  0.0476  0.4942
   53DOPE  H18X 6835   5.914   5.756   7.623 -0.9683  0.4316  2.2165
   53DOPE  H18Y 6836   5.792   5.879   7.663 -0.7247 -0.8130  1.6027
   53DOPE  H18Z 6837   5.746   5.708   7.622  1.7331 -2.4057 -0.8298
   54DOPE     N 6838   5.840   3.715   4.923  0.1768  0.5508  0.1682
   54DOPE   HN1 6839   5.786   3.802   4.901 -0.6827 -0.2174 -0.8779
   54DOPE   HN2 6840   5.831   3.696   5.024 -2.8486 -2.8118 -0.5458
   54DOPE   HN3 6841   5.943   3.727   4.911  0.3760  0.2377  1.4207
   54DOPE   C12 6842   5.788   3.595   4.846 -0.0024 -0.2548  0.3154
   54DOPE  H12A 6843   5.819   3.614   4.741  0.7771 -2.3547  0.1022
   54DOPE  H12B 6844   5.677   3.590   4.855  0.0111 -2.7496 -0.1212
   54DOPE   C11 6845   5.860   3.456   4.885  0.6229 -0.4633  0.2473
   54DOPE  H11A 6846   5.854   3.378   4.805  0.8614 -0.6816  0.4396
   54DOPE  H11B 6847   5.802   3.406   4.965 -0.7756 -1.8747 -1.5585
   54DOPE     P 6848   6.069   3.364   5.003 -0.4330  0.2552 -0.4462
   54DOPE   O13 6849   6.132   3.272   4.906 -0.1013  0.3611 -0.4385
   54DOPE   O14 6850   5.979   3.294   5.098  0.5051  0.8474  0.3942
   54DOPE   O11 6851   6.168   3.456   5.090  0.1735  0.1739  0.8142
   54DOPE   O12 6852   5.998   3.476   4.921 -0.6145 -0.0862 -0.0285
   54DOPE    C1 6853   6.128   3.583   5.138  0.0323 -0.1697  0.6115
   54DOPE    HA 6854   6.037   3.630   5.097  2.1258  4.1706  0.3782
   54DOPE    HB 6855   6.202   3.662   5.110 -1.3496  1.1473  0.5842
   54DOPE    C2 6856   6.110   3.585   5.299  0.1128 -0.6362  0.0903
   54DOPE    HS 6857   6.065   3.683   5.326 -1.2205 -1.0013 -0.6906
   54DOPE   O21 6858   6.234   3.566   5.373  0.1064 -0.0426 -0.1729
   54DOPE   C21 6859   6.317   3.665   5.361  0.0790 -0.2674 -0.4578
   54DOPE   O22 6860   6.303   3.777   5.322  0.1769  0.2289 -0.2172
   54DOPE   C22 6861   6.443   3.626   5.441 -0.3368  0.1543  0.8826
   54DOPE   H2R 6862   6.516   3.582   5.369  0.4562  1.8061  0.6478
   54DOPE   H2S 6863   6.405   3.549   5.512 -0.0524 -0.8333  0.0047
   54DOPE    C3 6864   6.011   3.479   5.349  0.5968  0.1645  0.3284
   54DOPE    HX 6865   6.063   3.387   5.317 -1.6532 -1.1260  0.2186
   54DOPE    HY 6866   5.916   3.486   5.292  1.4036 -1.1898 -1.2566
   54DOPE   O31 6867   5.986   3.491   5.492 -0.2853  0.5402  0.3510
   54DOPE   C31 6868   6.033   3.386   5.567  0.3312 -0.2180 -0.3426
   54DOPE   O32 6869   6.097   3.292   5.522  0.3709 -0.7238  0.1031
   54DOPE   C32 6870   5.986   3.405   5.707 -0.5038 -0.1039 -0.2990
   54DOPE   H2X 6871   6.055   3.462   5.774 -1.3526 -0.7714  1.1873
   54DOPE   H2Y 6872   5.891   3.461   5.692 -0.9192 -0.9185 -0.7149
   54DOPE   C23 6873   6.510   3.742   5.508 -0.3249  0.1412 -0.8368
   54DOPE   H3R 6874   6.514   3.831   5.441  0.3267  0.3629 -0.5155
   54DOPE   H3S 6875   6.613   3.705   5.530 -0.2107  1.0799  0.3338
   54DOPE   C24 6876   6.445   3.769   5.646 -0.0306 -0.3341  0.1465
   54DOPE   H4R 6877   6.424   3.670   5.692  0.4234 -0.8552 -0.7271
   54DOPE   H4S 6878   6.340   3.804   5.635 -0.1305  0.0149  1.9883
   54DOPE   C25 6879   6.533   3.847   5.740 -0.0357 -0.3701  0.1678
   54DOPE   H5R 6880   6.541   3.951   5.704  2.3557 -0.3972  0.4399
   54DOPE   H5S 6881   6.631   3.796   5.752 -0.1511 -0.2569  1.8135
   54DOPE   C26 6882   6.471   3.851   5.880  0.0443  0.2632 -0.0227
   54DOPE   H6R 6883   6.360   3.857   5.879  0.0332  0.1376  0.3654
   54DOPE   H6S 6884   6.497   3.942   5.938 -1.5510  0.3798  0.5471
   54DOPE   C27 6885   6.525   3.729   5.961 -0.7267 -0.2605  0.4086
   54DOPE   H7R 6886   6.636   3.722   5.965 -0.6130  1.4219  0.7638
   54DOPE   H7S 6887   6.482   3.637   5.914  0.1842 -0.6296  0.2708
   54DOPE   C28 6888   6.478   3.728   6.101  0.3709  0.0015  0.0987
   54DOPE   H8R 6889   6.368   3.749   6.104  0.2550 -0.5557 -0.1319
   54DOPE   H8S 6890   6.524   3.813   6.156 -0.6320 -0.3949  1.6168
   54DOPE   C29 6891   6.507   3.602   6.176  0.5219 -0.7909 -0.1084
   54DOPE   H9R 6892   6.507   3.505   6.123  0.0693 -0.5177 -0.6158
   54DOPE  C210 6893   6.530   3.591   6.310  0.0795 -0.4571 -0.6048
   54DOPE  H10R 6894   6.566   3.498   6.357 -0.2060 -0.2052  0.1367
   54DOPE  C211 6895   6.530   3.720   6.404  0.3769  0.6836  0.2018
   54DOPE  H11R 6896   6.459   3.799   6.373 -0.3594  0.8246  2.0758
   54DOPE  H11S 6897   6.630   3.768   6.404  0.3861  0.6674 -0.6816
   54DOPE  C212 6898   6.494   3.668   6.543  0.3497 -0.4952 -0.2108
   54DOPE  H12R 6899   6.573   3.596   6.573 -0.2686 -0.4695  1.5682
   54DOPE  H12S 6900   6.394   3.620   6.541 -0.1916  0.5780  0.1422
   54DOPE  C213 6901   6.494   3.793   6.641 -0.2607 -0.4635 -0.6597
   54DOPE  H13R 6902   6.452   3.887   6.598 -1.0873  0.2324  1.4984
   54DOPE  H13S 6903   6.603   3.814   6.654 -0.5775 -0.4919  3.3052
   54DOPE  C214 6904   6.444   3.781   6.791 -0.3268  0.1804  0.9010
   54DOPE  H14R 6905   6.494   3.694   6.840 -0.0996  1.1679  2.4809
   54DOPE  H14S 6906   6.334   3.766   6.783 -0.5724  2.8505 -2.6458
   54DOPE  C215 6907   6.468   3.909   6.874 -1.0540 -0.3046 -0.1250
   54DOPE  H15R 6908   6.403   3.986   6.828 -0.8213 -0.8719 -1.4465
   54DOPE  H15S 6909   6.578   3.924   6.864 -0.8367  1.1413  3.0097
   54DOPE  C216 6910   6.434   3.901   7.019 -0.5529  0.2107  1.1806
   54DOPE  H16R 6911   6.494   3.822   7.070  0.3130 -0.8425 -1.3272
   54DOPE  H16S 6912   6.327   3.874   7.027 -0.4416  0.1025  2.5104
   54DOPE  C217 6913   6.452   4.031   7.107 -0.2029  0.2591 -0.4309
   54DOPE  H17R 6914   6.375   4.100   7.066 -2.1151 -2.0185 -0.8600
   54DOPE  H17S 6915   6.554   4.074   7.090  1.4576 -2.6014  1.5721
   54DOPE  C218 6916   6.429   4.001   7.255 -0.0025 -0.2658 -0.8134
   54DOPE  H18R 6917   6.514   3.940   7.293  0.4785  0.3371 -0.9071
   54DOPE  H18S 6918   6.336   3.941   7.269 -0.3550  0.3878 -0.3321
   54DOPE  H18T 6919   6.421   4.097   7.310 -0.9885  0.8991 -2.8519
   54DOPE   C33 6920   5.968   3.274   5.783 -0.1618  0.1606 -0.5343
   54DOPE   H3X 6921   6.065   3.220   5.789 -1.1800 -1.6684  0.3736
   54DOPE   H3Y 6922   5.900   3.212   5.721 -0.2459 -0.5144  0.2176
   54DOPE   C34 6923   5.914   3.291   5.934  0.1483 -0.0209 -0.1725
   54DOPE   H4X 6924   5.837   3.372   5.933  0.9394  0.8719  2.4067
   54DOPE   H4Y 6925   5.865   3.191   5.937 -0.1073  0.1336  1.2722
   54DOPE   C35 6926   6.019   3.313   6.040  0.5037 -0.7122  0.2094
   54DOPE   H5X 6927   6.081   3.394   5.997 -4.1809  3.5097  0.4504
   54DOPE   H5Y 6928   6.089   3.227   6.040  0.0033 -1.1584 -1.2372
   54DOPE   C36 6929   5.969   3.342   6.181  0.1463 -0.6357  0.2309
   54DOPE   H6X 6930   5.918   3.254   6.225 -1.4216 -0.2343 -0.7260
   54DOPE   H6Y 6931   5.895   3.424   6.176  0.2840 -0.5703 -3.4733
   54DOPE   C37 6932   6.085   3.378   6.270 -0.6483 -0.1324  0.6619
   54DOPE   H7X 6933   6.179   3.331   6.234 -1.5549 -1.4531 -0.0645
   54DOPE   H7Y 6934   6.100   3.487   6.259  0.6350 -0.3920 -0.4486
   54DOPE   C38 6935   6.048   3.339   6.412 -0.0381 -0.2812  0.6074
   54DOPE   H8X 6936   6.027   3.231   6.426 -4.2023  0.5285  2.0900
   54DOPE   H8Y 6937   5.947   3.381   6.429 -0.2757 -0.8145  0.5201
   54DOPE   C39 6938   6.149   3.398   6.503 -0.4676 -0.3875 -0.0025
   54DOPE   H9X 6939   6.206   3.484   6.466  0.4371 -0.9942 -0.0587
   54DOPE  C310 6940   6.183   3.361   6.627 -0.6576  0.3379 -0.0343
   54DOPE  H10X 6941   6.262   3.409   6.687 -0.7431  0.4372 -0.0013
   54DOPE  C311 6942   6.095   3.257   6.695 -0.0010 -0.5081 -0.1406
   54DOPE  H11X 6943   5.990   3.267   6.662 -0.3141  0.2168  0.9871
   54DOPE  H11Y 6944   6.134   3.157   6.669  0.1931 -0.1801 -1.1293
   54DOPE  C312 6945   6.099   3.290   6.844  0.1082  0.3736 -0.0821
   54DOPE  H12X 6946   6.029   3.369   6.877  0.1595  1.5483 -2.5729
   54DOPE  H12Y 6947   6.200   3.313   6.882  0.7906 -2.3322 -0.0637
   54DOPE  C313 6948   6.059   3.157   6.915  0.0329  0.4729 -0.0930
   54DOPE  H13X 6949   5.971   3.115   6.862  0.8832 -1.8112  0.1808
   54DOPE  H13Y 6950   6.143   3.084   6.907  1.1317  1.8539 -2.4630
   54DOPE  C314 6951   6.022   3.179   7.059  0.2670  0.4384 -0.5285
   54DOPE  H14X 6952   5.926   3.127   7.083 -0.7607  2.8828  1.1611
   54DOPE  H14Y 6953   5.997   3.287   7.066 -2.0335  0.0034 -1.1126
   54DOPE  C315 6954   6.124   3.134   7.165 -0.3349  0.3518  0.0715
   54DOPE  H15X 6955   6.214   3.198   7.173  0.5980 -0.4759 -2.6375
   54DOPE  H15Y 6956   6.178   3.038   7.148  1.6073  1.5037 -0.6186
   54DOPE  C316 6957   6.058   3.128   7.302  0.1049  0.1146 -0.6290
   54DOPE  H16X 6958   5.980   3.050   7.308  1.0515 -0.8313 -0.1833
   54DOPE  H16Y 6959   6.003   3.219   7.332  1.0967  0.8540 -0.9816
   54DOPE  C317 6960   6.157   3.110   7.424  0.3013 -1.1370  0.0183
   54DOPE  H17X 6961   6.092   3.141   7.508  1.1780 -1.6443  0.8988
   54DOPE  H17Y 6962   6.177   3.000   7.428 -1.8813 -1.6616 -1.5626
   54DOPE  C318 6963   6.285   3.197   7.414 -0.1704  0.1360 -0.3645
   54DOPE  H18X 6964   6.348   3.169   7.327  1.6650  1.2551  0.5400
   54DOPE  H18Y 6965   6.260   3.302   7.387  0.1791  0.4477  0.4890
   54DOPE  H18Z 6966   6.354   3.192   7.501  0.6809  2.3245 -0.8499
   55DOPE     N 6967   1.303   5.452   5.221  0.5105  0.5031 -0.0644
   55DOPE   HN1 6968   1.307   5.382   5.144  0.6925 -0.9710  1.2214
   55DOPE   HN2 6969   1.204   5.478   5.234  0.1296 -0.8817 -0.0227
   55DOPE   HN3 6970   1.353   5.538   5.193  1.8653 -0.5445 -1.0160
   55DOPE   C12 6971   1.365   5.393   5.346  0.0632 -0.2432 -0.0965
   55DOPE  H12A 6972   1.351   5.468   5.427  0.5800 -1.0670  0.7920
   55DOPE  H12B 6973   1.476   5.392   5.332  0.2840  4.7592 -0.3513
   55DOPE   C11 6974   1.294   5.259   5.387 -0.4386  0.1847 -0.3710
   55DOPE  H11A 6975   1.185   5.275   5.389 -0.3681  0.6150  0.2158
   55DOPE  H11B 6976   1.322   5.244   5.494  1.4567 -0.2528 -0.8822
   55DOPE     P 6977   1.464   5.059   5.349  0.1912  0.0709  0.8765
   55DOPE   O13 6978   1.580   5.139   5.319  0.3353 -0.1874  0.4156
   55DOPE   O14 6979   1.465   4.930   5.277 -0.2037 -0.1746 -0.9561
   55DOPE   O11 6980   1.458   5.033   5.503 -0.3112 -0.4813 -0.0930
   55DOPE   O12 6981   1.328   5.145   5.308  0.1377 -0.3633 -0.5327
   55DOPE    C1 6982   1.373   4.934   5.562  0.5678  0.0843  0.0434
   55DOPE    HA 6983   1.438   4.852   5.601  1.4256 -0.0193 -1.5232
   55DOPE    HB 6984   1.320   4.872   5.487 -1.0951 -0.4584  1.5923
   55DOPE    C2 6985   1.273   4.989   5.670  0.2516  0.7810  0.7388
   55DOPE    HS 6986   1.208   5.065   5.622 -0.0807  1.8002  2.6996
   55DOPE   O21 6987   1.353   5.047   5.771  0.4448 -0.0922  0.1427
   55DOPE   C21 6988   1.282   5.123   5.855  0.5696 -0.4778 -0.3931
   55DOPE   O22 6989   1.164   5.144   5.853  0.0480 -0.6603  0.5675
   55DOPE   C22 6990   1.383   5.188   5.964  0.5981  0.4082 -0.9617
   55DOPE   H2R 6991   1.418   5.288   5.929  2.4978  0.3296  0.5712
   55DOPE   H2S 6992   1.466   5.119   5.989 -0.8549 -1.1995 -0.3516
   55DOPE    C3 6993   1.184   4.875   5.720  0.4660  0.3732 -0.2621
   55DOPE    HX 6994   1.126   4.841   5.631  2.3484 -2.0012 -0.7004
   55DOPE    HY 6995   1.108   4.911   5.794 -1.3909  0.8150 -2.2728
   55DOPE   O31 6996   1.262   4.767   5.762 -0.6392  0.3762 -0.0203
   55DOPE   C31 6997   1.201   4.659   5.816  0.3118  0.4086  0.4208
   55DOPE   O32 6998   1.084   4.630   5.808 -0.1090  0.3982 -0.3877
   55DOPE   C32 6999   1.312   4.580   5.886 -0.0410 -0.3232 -0.1689
   55DOPE   H2X 7000   1.274   4.477   5.900  0.1601 -0.7569 -2.3707
   55DOPE   H2Y 7001   1.400   4.572   5.818 -0.6245 -0.4109 -0.9161
   55DOPE   C23 7002   1.311   5.221   6.103  0.2449  0.6233  0.4721
   55DOPE   H3R 7003   1.234   5.296   6.079  1.6350  1.8165 -0.4456
   55DOPE   H3S 7004   1.369   5.276   6.180 -1.0133  1.8268  0.5888
   55DOPE   C24 7005   1.253   5.100   6.173  0.2472  0.0888 -0.1293
   55DOPE   H4R 7006   1.329   5.020   6.186  0.7741  0.0319 -2.8403
   55DOPE   H4S 7007   1.175   5.059   6.105 -0.6074  0.5692  0.5511
   55DOPE   C25 7008   1.186   5.130   6.303 -0.4877  0.2153  0.3864
   55DOPE   H5R 7009   1.275   5.156   6.364  1.6031 -2.5685 -1.2594
   55DOPE   H5S 7010   1.138   5.042   6.351  0.2507  0.1406  1.0102
   55DOPE   C26 7011   1.098   5.256   6.302 -0.2988 -0.1824 -0.1204
   55DOPE   H6R 7012   1.033   5.254   6.212  0.8373 -1.7499 -0.9508
   55DOPE   H6S 7013   1.172   5.338   6.288 -0.2163 -0.2938 -0.3483
   55DOPE   C27 7014   1.024   5.282   6.432  0.3842 -0.1056 -0.0933
   55DOPE   H7R 7015   0.978   5.383   6.435 -2.8447 -1.4802  0.7625
   55DOPE   H7S 7016   1.106   5.286   6.507  1.4062  2.7546 -1.2444
   55DOPE   C28 7017   0.908   5.183   6.471 -0.5282 -0.1600 -1.2388
   55DOPE   H8R 7018   0.954   5.083   6.485  1.5128  0.7310 -1.2914
   55DOPE   H8S 7019   0.837   5.182   6.385 -0.1673  1.7974 -1.5929
   55DOPE   C29 7020   0.835   5.219   6.603  0.6233 -0.6525  0.5697
   55DOPE   H9R 7021   0.756   5.295   6.595  1.9396  0.7211  0.1002
   55DOPE  C210 7022   0.857   5.172   6.728  0.0792  0.1041 -0.2815
   55DOPE  H10R 7023   0.772   5.189   6.796  1.4624  1.9976  1.0796
   55DOPE  C211 7024   0.947   5.050   6.755  0.1015 -0.0272 -0.3953
   55DOPE  H11R 7025   1.055   5.061   6.734  0.4829 -0.6166  1.1355
   55DOPE  H11S 7026   0.918   4.966   6.687  0.0050 -0.3191  0.0034
   55DOPE  C212 7027   0.947   4.997   6.903  0.1736  0.0590  0.7236
   55DOPE  H12R 7028   1.011   4.906   6.904  2.2980  1.4772  1.0388
   55DOPE  H12S 7029   0.846   4.954   6.917 -0.7459  1.8915  0.0044
   55DOPE  C213 7030   0.985   5.094   7.020  0.6477  0.3634  0.4925
   55DOPE  H13R 7031   1.029   5.190   6.986 -2.3316  2.3001  1.6982
   55DOPE  H13S 7032   1.072   5.054   7.076  1.5203  1.1496 -0.2612
   55DOPE  C214 7033   0.867   5.113   7.114  0.1718 -0.2808 -0.6111
   55DOPE  H14R 7034   0.832   5.016   7.155  1.7698 -0.1361  1.2094
   55DOPE  H14S 7035   0.782   5.161   7.059  0.3076 -0.9892 -1.4562
   55DOPE  C215 7036   0.911   5.205   7.232 -0.4076  0.3034  0.5218
   55DOPE  H15R 7037   0.930   5.305   7.187  1.6346  0.3715  1.4426
   55DOPE  H15S 7038   1.004   5.167   7.278  0.0284  1.9178  1.0735
   55DOPE  C216 7039   0.798   5.207   7.333  0.2720 -0.6516  0.2693
   55DOPE  H16R 7040   0.779   5.112   7.386 -1.4670 -0.8122 -0.5841
   55DOPE  H16S 7041   0.706   5.237   7.280 -0.1550  0.3111  1.4882
   55DOPE  C217 7042   0.825   5.308   7.444 -0.5555 -0.6551 -0.1984
   55DOPE  H17R 7043   0.854   5.409   7.409 -0.1594  0.1823  2.3241
   55DOPE  H17S 7044   0.913   5.276   7.503 -1.9870  0.1196  2.5644
   55DOPE  C218 7045   0.711   5.303   7.543 -0.0531  0.1616 -0.5533
   55DOPE  H18R 7046   0.694   5.204   7.590 -0.3191  0.4883  0.0421
   55DOPE  H18S 7047   0.618   5.325   7.486  0.9186 -1.7036 -3.0767
   55DOPE  H18T 7048   0.727   5.380   7.620  2.0219  0.0299 -0.7792
   55DOPE   C33 7049   1.352   4.649   6.016 -0.4828  0.2195  0.6959
   55DOPE   H3X 7050   1.360   4.758   5.998  2.3002 -0.2659 -1.8893
   55DOPE   H3Y 7051   1.457   4.619   6.040 -0.2295  1.1744  0.8236
   55DOPE   C34 7052   1.268   4.596   6.126 -0.2114 -0.2465 -0.5907
   55DOPE   H4X 7053   1.160   4.621   6.114 -0.3760 -0.1933  0.8786
   55DOPE   H4Y 7054   1.290   4.487   6.130  2.9784  0.2167 -2.0569
   55DOPE   C35 7055   1.314   4.670   6.256  0.1850  0.4863 -0.5594
   55DOPE   H5X 7056   1.310   4.776   6.223  0.8453  0.2526 -1.4247
   55DOPE   H5Y 7057   1.421   4.648   6.274  1.2761  5.4679  0.4216
   55DOPE   C36 7058   1.235   4.651   6.384  0.6584 -0.3920  0.0068
   55DOPE   H6X 7059   1.212   4.546   6.410 -0.7280  0.2445  1.4867
   55DOPE   H6Y 7060   1.144   4.714   6.373  1.8471  0.9542 -3.3115
   55DOPE   C37 7061   1.308   4.727   6.496 -0.0236  0.2645 -0.5810
   55DOPE   H7X 7062   1.390   4.661   6.534 -0.7624 -0.9764 -1.0677
   55DOPE   H7Y 7063   1.355   4.820   6.457  1.7447 -0.2034  0.3295
   55DOPE   C38 7064   1.210   4.764   6.607  0.9432  0.0581  0.1040
   55DOPE   H8X 7065   1.161   4.671   6.644 -0.7916  1.4884  1.6003
   55DOPE   H8Y 7066   1.137   4.815   6.542  0.4989 -1.9199 -1.0392
   55DOPE   C39 7067   1.269   4.835   6.722  0.3275 -0.1467  0.0754
   55DOPE   H9X 7068   1.275   4.944   6.710  3.2349 -0.2825 -0.5565
   55DOPE  C310 7069   1.319   4.781   6.834  0.8696 -0.4113  0.6656
   55DOPE  H10X 7070   1.357   4.850   6.911  2.2448 -0.0616 -0.2987
   55DOPE  C311 7071   1.319   4.634   6.862 -0.0969  0.3868  0.2825
   55DOPE  H11X 7072   1.287   4.573   6.775  1.9453  1.3765 -1.2670
   55DOPE  H11Y 7073   1.423   4.600   6.882  0.5754  2.1281 -0.0998
   55DOPE  C312 7074   1.244   4.610   6.995  0.0635  0.1629  0.4713
   55DOPE  H12X 7075   1.136   4.619   6.974  0.0307 -2.4241 -0.8963
   55DOPE  H12Y 7076   1.289   4.679   7.070  1.3390 -0.5502  0.3878
   55DOPE  C313 7077   1.269   4.466   7.038  0.1187 -0.6520 -0.5192
   55DOPE  H13X 7078   1.182   4.411   7.078 -1.1981  0.8979 -1.0992
   55DOPE  H13Y 7079   1.319   4.410   6.956  2.1863 -0.2367  0.3952
   55DOPE  C314 7080   1.375   4.462   7.153  0.3247 -0.1497 -0.1765
   55DOPE  H14X 7081   1.445   4.548   7.148 -0.2861  0.3278 -0.5837
   55DOPE  H14Y 7082   1.417   4.360   7.145 -0.8381 -0.7146  0.6392
   55DOPE  C315 7083   1.303   4.467   7.288  0.7052 -0.8728  0.9015
   55DOPE  H15X 7084   1.217   4.396   7.288  0.0855 -0.1298  1.2396
   55DOPE  H15Y 7085   1.268   4.572   7.298  1.5927 -0.5547  0.7371
   55DOPE  C316 7086   1.403   4.430   7.400 -0.0398  0.5626  0.0897
   55DOPE  H16X 7087   1.489   4.500   7.399  0.2807  0.1773 -1.9223
   55DOPE  H16Y 7088   1.439   4.327   7.380  0.6638  0.3328  2.2640
   55DOPE  C317 7089   1.338   4.420   7.540 -0.3361 -0.1485 -0.6517
   55DOPE  H17X 7090   1.294   4.516   7.572 -1.8741 -0.2878 -2.2072
   55DOPE  H17Y 7091   1.258   4.343   7.537 -0.4115 -0.0411 -2.6327
   55DOPE  C318 7092   1.448   4.373   7.644  0.1459 -0.9134  0.1880
   55DOPE  H18X 7093   1.496   4.280   7.608  0.3255 -0.1874 -1.5467
   55DOPE  H18Y 7094   1.533   4.444   7.648 -1.2552  0.7953  0.8942
   55DOPE  H18Z 7095   1.406   4.360   7.746  1.1052 -1.9867  0.4647
   56DOPE     N 7096   1.232   6.089   4.946 -0.2177  0.5231 -0.6186
   56DOPE   HN1 7097   1.236   6.003   5.005 -0.3138  1.1586  0.3369
   56DOPE   HN2 7098   1.224   6.173   5.006  0.0264  0.3591 -0.3562
   56DOPE   HN3 7099   1.140   6.087   4.896 -0.9238 -0.2613  0.6619
   56DOPE   C12 7100   1.346   6.119   4.862  0.6682  0.5210  0.4023
   56DOPE  H12A 7101   1.337   6.224   4.827  0.7602  0.6952  0.8935
   56DOPE  H12B 7102   1.350   6.042   4.781  1.9776 -0.5277  1.4246
   56DOPE   C11 7103   1.470   6.099   4.949 -0.0037 -0.2740 -0.0721
   56DOPE  H11A 7104   1.558   6.101   4.881 -0.1746  0.2574 -0.2888
   56DOPE  H11B 7105   1.478   6.004   5.006 -2.1283 -0.3373  0.1891
   56DOPE     P 7106   1.591   6.267   5.110  0.7297  0.0606 -0.5262
   56DOPE   O13 7107   1.604   6.405   5.056  0.9062 -0.0206 -0.5045
   56DOPE   O14 7108   1.699   6.172   5.098 -0.2772  0.1347  0.2582
   56DOPE   O11 7109   1.563   6.264   5.265 -0.3126 -0.0639 -0.1563
   56DOPE   O12 7110   1.465   6.193   5.054 -0.1429 -0.1744  0.3017
   56DOPE    C1 7111   1.445   6.260   5.337  0.5586 -0.1436  0.0473
   56DOPE    HA 7112   1.471   6.239   5.442  0.1104  1.0343  0.4152
   56DOPE    HB 7113   1.376   6.177   5.309  0.2095 -0.8525  2.7455
   56DOPE    C2 7114   1.358   6.393   5.338 -0.3812  0.0597 -0.3768
   56DOPE    HS 7115   1.315   6.405   5.236  0.3900  4.2483 -0.3824
   56DOPE   O21 7116   1.439   6.509   5.377 -0.7030 -0.5410  0.1052
   56DOPE   C21 7117   1.383   6.627   5.343  0.0181 -0.3672  0.5802
   56DOPE   O22 7118   1.285   6.637   5.270  0.3966 -0.5728 -0.2334
   56DOPE   C22 7119   1.460   6.747   5.392  0.0865  0.1300  0.5110
   56DOPE   H2R 7120   1.514   6.771   5.298 -1.1154 -1.8465 -0.7780
   56DOPE   H2S 7121   1.544   6.718   5.458  0.4781  1.2618  0.5192
   56DOPE    C3 7122   1.225   6.382   5.430  1.5630  0.1399 -0.3934
   56DOPE    HX 7123   1.159   6.302   5.391 -1.9127  2.1068  0.8994
   56DOPE    HY 7124   1.162   6.474   5.430  0.7882 -0.3524  1.1440
   56DOPE   O31 7125   1.248   6.348   5.567  0.2840  0.2934 -0.3253
   56DOPE   C31 7126   1.290   6.454   5.642  0.0070  0.4705  0.2870
   56DOPE   O32 7127   1.283   6.570   5.609 -0.0449  0.1793  0.6338
   56DOPE   C32 7128   1.346   6.391   5.773 -0.6030  0.4102  0.9802
   56DOPE   H2X 7129   1.253   6.356   5.824 -0.6644  0.4824  0.9203
   56DOPE   H2Y 7130   1.407   6.302   5.750  0.5501  1.1920  0.9051
   56DOPE   C23 7131   1.388   6.866   5.445  0.7187  0.0286 -0.3159
   56DOPE   H3R 7132   1.278   6.872   5.429  0.5707  0.9691  0.9426
   56DOPE   H3S 7133   1.429   6.954   5.389 -0.6911  0.5730 -0.5263
   56DOPE   C24 7134   1.413   6.891   5.599  0.0422  0.0411  0.6743
   56DOPE   H4R 7135   1.521   6.915   5.601 -0.0724  0.6253  0.3343
   56DOPE   H4S 7136   1.392   6.796   5.652  0.4261  0.3359  1.3689
   56DOPE   C25 7137   1.336   7.004   5.657  0.3540 -0.8690  0.4941
   56DOPE   H5R 7138   1.232   7.003   5.616  0.2028  0.4132  0.7803
   56DOPE   H5S 7139   1.385   7.097   5.621  1.0602 -2.0922 -1.9137
   56DOPE   C26 7140   1.329   7.003   5.811 -0.2708  1.0550  0.7179
   56DOPE   H6R 7141   1.312   7.112   5.828  2.5898  2.1181 -2.3387
   56DOPE   H6S 7142   1.425   6.985   5.863 -0.3097  0.2959  0.5276
   56DOPE   C27 7143   1.218   6.917   5.872  1.1549 -0.0505 -0.2097
   56DOPE   H7R 7144   1.233   6.817   5.827 -1.1047 -1.4301  1.8747
   56DOPE   H7S 7145   1.120   6.953   5.833  0.9341 -1.1801 -0.7153
   56DOPE   C28 7146   1.220   6.902   6.021  0.8951 -0.3409 -0.0568
   56DOPE   H8R 7147   1.321   6.856   6.031  1.1134 -0.2284 -1.5224
   56DOPE   H8S 7148   1.138   6.838   6.061  0.4463  0.9159  1.1125
   56DOPE   C29 7149   1.212   7.036   6.092  0.3662  0.4159 -0.2415
   56DOPE   H9R 7150   1.194   7.125   6.030  0.8400  0.9636  0.3827
   56DOPE  C210 7151   1.218   7.048   6.227  0.3608  0.7193 -1.5167
   56DOPE  H10R 7152   1.235   7.150   6.266  1.4949 -0.2875  0.7993
   56DOPE  C211 7153   1.216   6.937   6.331 -0.4327  0.5179  0.0721
   56DOPE  H11R 7154   1.313   6.934   6.385 -0.5437 -0.6250  0.2212
   56DOPE  H11S 7155   1.185   6.839   6.289  0.6560  0.0151  0.3924
   56DOPE  C212 7156   1.111   6.962   6.444  0.0797 -0.1609  0.2294
   56DOPE  H12R 7157   1.016   6.950   6.388  1.5127 -1.1503 -2.1317
   56DOPE  H12S 7158   1.129   7.061   6.491 -0.5728 -0.2531  0.6909
   56DOPE  C213 7159   1.115   6.856   6.555 -0.7233 -0.5404  0.2744
   56DOPE  H13R 7160   1.204   6.881   6.617 -1.6245 -0.4851  1.5672
   56DOPE  H13S 7161   1.125   6.752   6.517 -4.0849 -0.8206 -0.1243
   56DOPE  C214 7162   0.995   6.859   6.654 -0.5783 -0.2814  0.4151
   56DOPE  H14R 7163   0.907   6.830   6.593 -0.5473 -0.8083  0.6175
   56DOPE  H14S 7164   0.969   6.956   6.701  0.5559  0.5617 -0.5961
   56DOPE  C215 7165   1.033   6.776   6.770  0.1668  0.2669  0.2201
   56DOPE  H15R 7166   1.117   6.820   6.828  0.1123  0.1580  0.3855
   56DOPE  H15S 7167   1.053   6.669   6.749 -1.5748 -0.3089  1.2291
   56DOPE  C216 7168   0.909   6.763   6.859  0.4001 -0.0649 -0.8169
   56DOPE  H16R 7169   0.823   6.721   6.802  1.7161 -0.7065 -2.4173
   56DOPE  H16S 7170   0.882   6.869   6.879  0.5801 -0.2081  0.2212
   56DOPE  C217 7171   0.919   6.678   6.981 -0.3183  0.2169  0.2505
   56DOPE  H17R 7172   1.005   6.697   7.048 -0.6530 -1.2192  1.1232
   56DOPE  H17S 7173   0.933   6.571   6.952 -1.5013  0.8001 -2.9581
   56DOPE  C218 7174   0.795   6.688   7.064  0.0386 -0.2041  0.0376
   56DOPE  H18R 7175   0.710   6.635   7.016  0.6779 -0.4769 -0.8354
   56DOPE  H18S 7176   0.768   6.795   7.071  0.5683  0.1309 -2.1105
   56DOPE  H18T 7177   0.799   6.650   7.168 -0.5875  1.3607  0.6581
   56DOPE   C33 7178   1.412   6.494   5.860  0.0271 -0.1543 -0.4469
   56DOPE   H3X 7179   1.347   6.580   5.886  0.3799 -0.7228  2.6131
   56DOPE   H3Y 7180   1.504   6.533   5.810  0.1815 -0.4836 -0.4287
   56DOPE   C34 7181   1.475   6.439   5.993 -0.2568  0.2821 -0.3046
   56DOPE   H4X 7182   1.513   6.527   6.049 -0.1501 -1.2763  2.2553
   56DOPE   H4Y 7183   1.403   6.382   6.056  1.5309 -1.6055  0.1511
   56DOPE   C35 7184   1.593   6.345   5.959 -0.3234  0.1960  0.0644
   56DOPE   H5X 7185   1.657   6.398   5.886 -0.8176 -0.1871 -0.6510
   56DOPE   H5Y 7186   1.555   6.253   5.910  0.8415 -0.4276  0.2912
   56DOPE   C36 7187   1.683   6.312   6.077 -0.3908 -0.5414 -0.5923
   56DOPE   H6X 7188   1.695   6.406   6.134 -1.1234  0.5766 -2.1990
   56DOPE   H6Y 7189   1.783   6.276   6.043  0.0676 -1.6626  1.7519
   56DOPE   C37 7190   1.629   6.205   6.172  0.8639  0.4570  0.4412
   56DOPE   H7X 7191   1.522   6.230   6.190  0.4475 -1.2733  0.5341
   56DOPE   H7Y 7192   1.632   6.108   6.118  1.4890  0.6379  0.1323
   56DOPE   C38 7193   1.702   6.191   6.305  0.0273 -0.1487  0.2753
   56DOPE   H8X 7194   1.812   6.183   6.290  0.0647 -0.3853  0.6705
   56DOPE   H8Y 7195   1.670   6.103   6.364 -0.4410  0.7712  1.4299
   56DOPE   C39 7196   1.679   6.312   6.397  0.3381  0.1273  0.4829
   56DOPE   H9X 7197   1.715   6.406   6.353 -1.3600 -0.0942 -1.4907
   56DOPE  C310 7198   1.602   6.319   6.508 -0.1353  0.0442  0.0380
   56DOPE  H10X 7199   1.609   6.417   6.557 -0.4861  1.1192 -1.9385
   56DOPE  C311 7200   1.521   6.214   6.577  0.3025  0.7060 -0.0280
   56DOPE  H11X 7201   1.416   6.251   6.577  1.0827  3.1116  1.4338
   56DOPE  H11Y 7202   1.513   6.121   6.517 -0.2336  1.6728 -1.5034
   56DOPE  C312 7203   1.577   6.167   6.708  0.2889  0.2596 -0.4763
   56DOPE  H12X 7204   1.678   6.123   6.693  0.8442  1.3804 -0.1292
   56DOPE  H12Y 7205   1.498   6.094   6.734  1.2389  0.2230  2.7323
   56DOPE  C313 7206   1.570   6.258   6.833  0.2925  0.2855  0.2314
   56DOPE  H13X 7207   1.614   6.353   6.795 -1.0861  0.3105 -1.4290
   56DOPE  H13Y 7208   1.462   6.277   6.850 -0.0072 -0.6989 -0.4982
   56DOPE  C314 7209   1.617   6.210   6.962 -0.0113  0.6178  0.4609
   56DOPE  H14X 7210   1.727   6.201   6.978  0.5773  0.5072 -2.9347
   56DOPE  H14Y 7211   1.565   6.117   6.990  3.4388 -1.6619 -0.0964
   56DOPE  C315 7212   1.577   6.302   7.081  0.0043 -0.2255  0.4695
   56DOPE  H15X 7213   1.467   6.317   7.088  0.4495  2.9130  2.9841
   56DOPE  H15Y 7214   1.610   6.404   7.052 -0.7663  0.2439  1.2058
   56DOPE  C316 7215   1.629   6.263   7.217  0.1045 -0.1078 -0.0986
   56DOPE  H16X 7216   1.740   6.258   7.224 -0.0126 -1.4352  1.4099
   56DOPE  H16Y 7217   1.602   6.158   7.243  1.3486 -0.5643 -0.5708
   56DOPE  C317 7218   1.559   6.354   7.325 -0.1341 -0.2055  0.6886
   56DOPE  H17X 7219   1.597   6.451   7.287  1.5857 -0.3535  1.8763
   56DOPE  H17Y 7220   1.448   6.354   7.319 -0.0816 -1.6343 -1.5329
   56DOPE  C318 7221   1.605   6.316   7.469 -0.0295 -0.3734  0.1214
   56DOPE  H18X 7222   1.715   6.319   7.486  0.0250 -1.5790  0.0597
   56DOPE  H18Y 7223   1.574   6.385   7.551  1.6125  1.1166 -0.4430
   56DOPE  H18Z 7224   1.563   6.215   7.487  0.1096 -0.5969 -0.7739
   57DOPE     N 7225   6.279   2.423   4.679 -0.0302  0.5362  0.6167
   57DOPE   HN1 7226   6.275   2.490   4.599  0.1067  0.0866  0.2288
   57DOPE   HN2 7227   6.355   2.352   4.683 -0.2619  0.1709 -0.8468
   57DOPE   HN3 7228   6.187   2.376   4.671 -0.7506  2.1030 -0.7687
   57DOPE   C12 7229   6.284   2.508   4.803 -0.0025 -0.7186  0.5370
   57DOPE  H12A 7230   6.203   2.582   4.786  0.6426 -0.4090 -1.4897
   57DOPE  H12B 7231   6.378   2.567   4.793 -0.9439  0.5028 -2.1334
   57DOPE   C11 7232   6.287   2.432   4.933  0.0072 -0.0590 -0.2064
   57DOPE  H11A 7233   6.192   2.375   4.945 -0.4789  0.7670 -0.0317
   57DOPE  H11B 7234   6.291   2.509   5.013  0.7137 -2.4617  2.2261
   57DOPE     P 7235   6.539   2.383   4.995 -0.4561  0.3631  0.1134
   57DOPE   O13 7236   6.587   2.494   4.913  0.0490 -0.0783  0.2337
   57DOPE   O14 7237   6.637   2.268   5.006  0.6667  0.2121  0.8501
   57DOPE   O11 7238   6.522   2.437   5.144  0.7700  0.0234  0.2580
   57DOPE   O12 7239   6.397   2.341   4.942  0.4449 -0.3231  0.7572
   57DOPE    C1 7240   6.463   2.347   5.246 -0.0159 -0.0031 -0.6259
   57DOPE    HA 7241   6.399   2.269   5.198 -0.7669  0.9435 -1.2092
   57DOPE    HB 7242   6.395   2.402   5.315  0.7045  0.2291 -0.0992
   57DOPE    C2 7243   6.580   2.287   5.337 -0.0663  0.2813  0.3116
   57DOPE    HS 7244   6.639   2.225   5.266 -0.2568 -2.4282  2.3876
   57DOPE   O21 7245   6.511   2.198   5.425  0.2746  0.2588  0.2404
   57DOPE   C21 7246   6.580   2.089   5.463  0.1838  0.4411  0.1479
   57DOPE   O22 7247   6.684   2.043   5.420  0.0048 -0.6109  0.0925
   57DOPE   C22 7248   6.512   2.044   5.596  0.4807  0.3248  0.1252
   57DOPE   H2R 7249   6.406   2.027   5.568  0.4683 -0.2014  0.4798
   57DOPE   H2S 7250   6.521   2.120   5.677 -0.2625  1.5679 -0.9110
   57DOPE    C3 7251   6.660   2.389   5.418  0.3921 -0.4612  0.3612
   57DOPE    HX 7252   6.584   2.458   5.461  0.2594 -1.5212  1.9252
   57DOPE    HY 7253   6.728   2.453   5.359 -0.9926 -0.0345 -0.8305
   57DOPE   O31 7254   6.738   2.330   5.524 -0.3620  0.2588  0.1792
   57DOPE   C31 7255   6.864   2.297   5.497 -0.7354 -0.2839 -0.8421
   57DOPE   O32 7256   6.925   2.325   5.395  0.5482  0.5591 -0.0623
   57DOPE   C32 7257   6.926   2.222   5.613 -0.3215  0.0035 -0.2605
   57DOPE   H2X 7258   6.925   2.115   5.584  1.0722 -0.4088  1.0597
   57DOPE   H2Y 7259   7.027   2.268   5.619 -0.5355  0.4758 -0.2293
   57DOPE   C23 7260   6.565   1.912   5.659 -0.6413  0.0335  0.5972
   57DOPE   H3R 7261   6.665   1.929   5.704 -0.1193 -2.2308  0.4343
   57DOPE   H3S 7262   6.580   1.836   5.579  0.4292  1.2212 -0.3484
   57DOPE   C24 7263   6.480   1.851   5.771 -0.5620  0.3424 -0.0728
   57DOPE   H4R 7264   6.476   1.740   5.770 -2.8531  0.3750  0.2763
   57DOPE   H4S 7265   6.375   1.876   5.743 -0.9663 -0.7290  0.4522
   57DOPE   C25 7266   6.502   1.912   5.908  0.0669  0.1519  0.1109
   57DOPE   H5R 7267   6.500   2.022   5.889 -0.8467 -0.2430 -2.4641
   57DOPE   H5S 7268   6.603   1.881   5.943 -1.5791 -4.6791  1.3584
   57DOPE   C26 7269   6.403   1.863   6.014  0.1751 -0.7318  0.5128
   57DOPE   H6R 7270   6.317   1.815   5.963  0.8783 -0.4944 -0.9558
   57DOPE   H6S 7271   6.355   1.953   6.057 -0.7993 -0.5237 -0.9559
   57DOPE   C27 7272   6.461   1.774   6.124  0.8001  0.6577  0.0511
   57DOPE   H7R 7273   6.549   1.821   6.172  1.4284  2.4160 -2.6018
   57DOPE   H7S 7274   6.498   1.684   6.071  0.2163  0.3027  0.2273
   57DOPE   C28 7275   6.354   1.741   6.232 -0.2312  0.0853  0.0097
   57DOPE   H8R 7276   6.265   1.691   6.189  1.3307 -2.1802 -0.7500
   57DOPE   H8S 7277   6.344   1.837   6.287  1.7459 -0.7288  1.9756
   57DOPE   C29 7278   6.407   1.642   6.338  0.6054  0.1297  0.3613
   57DOPE   H9R 7279   6.437   1.545   6.298 -1.3822  0.0363 -1.0809
   57DOPE  C210 7280   6.446   1.673   6.459  0.0150 -0.2938 -0.8271
   57DOPE  H10R 7281   6.482   1.593   6.525  0.7734  1.8342  1.4592
   57DOPE  C211 7282   6.453   1.807   6.533 -0.0573 -0.5774  0.4816
   57DOPE  H11R 7283   6.438   1.890   6.460 -1.6564  0.9811  2.4698
   57DOPE  H11S 7284   6.559   1.817   6.565 -0.3782  0.3056  1.3139
   57DOPE  C212 7285   6.369   1.829   6.658  0.5500 -0.1989  0.0034
   57DOPE  H12R 7286   6.260   1.847   6.648  0.5520  0.4075  0.9609
   57DOPE  H12S 7287   6.400   1.923   6.709  1.0910  0.1888 -1.0158
   57DOPE  C213 7288   6.375   1.713   6.763  0.1583 -1.1431 -0.4547
   57DOPE  H13R 7289   6.332   1.625   6.710 -1.2045 -0.3222 -0.7711
   57DOPE  H13S 7290   6.304   1.730   6.846  1.4960  0.9731  0.3411
   57DOPE  C214 7291   6.517   1.701   6.821  0.9142 -0.5445 -0.3392
   57DOPE  H14R 7292   6.575   1.696   6.727  0.7801 -1.7707 -0.3784
   57DOPE  H14S 7293   6.529   1.608   6.882 -0.2958 -2.1791 -2.4247
   57DOPE  C215 7294   6.565   1.832   6.887  0.0321 -0.1108 -0.0062
   57DOPE  H15R 7295   6.497   1.870   6.967  1.2388  0.5980  0.7011
   57DOPE  H15S 7296   6.575   1.916   6.816 -0.7809  1.8144  2.0261
   57DOPE  C216 7297   6.694   1.822   6.968 -0.1798 -0.2473 -0.0959
   57DOPE  H16R 7298   6.718   1.919   7.016 -1.0894 -0.1206  0.1110
   57DOPE  H16S 7299   6.778   1.798   6.899 -0.3375 -0.8637 -0.0805
   57DOPE  C217 7300   6.682   1.721   7.080  0.0832  0.4960 -0.0180
   57DOPE  H17R 7301   6.734   1.626   7.055 -1.4905 -1.1144  2.3819
   57DOPE  H17S 7302   6.577   1.699   7.107 -0.3011  1.1674 -0.8978
   57DOPE  C218 7303   6.747   1.766   7.215  0.5021  0.9404  0.1213
   57DOPE  H18R 7304   6.841   1.818   7.189 -0.3579  1.9225 -1.0852
   57DOPE  H18S 7305   6.769   1.677   7.279 -4.7206 -0.5976  0.2884
   57DOPE  H18T 7306   6.685   1.828   7.283 -0.6150  0.0623 -0.0602
   57DOPE   C33 7307   6.853   2.232   5.749  1.1909 -0.0375  0.2682
   57DOPE   H3X 7308   6.755   2.181   5.740  2.4112 -2.5665  0.3245
   57DOPE   H3Y 7309   6.825   2.336   5.776  0.0758  0.1735 -1.5182
   57DOPE   C34 7310   6.932   2.161   5.855  0.1835 -0.0033  0.2285
   57DOPE   H4X 7311   6.952   2.057   5.821 -2.1887 -0.8841  1.3447
   57DOPE   H4Y 7312   7.026   2.214   5.882  0.5761 -0.4285 -0.2985
   57DOPE   C35 7313   6.849   2.145   5.983  0.1538 -0.2890 -0.3462
   57DOPE   H5X 7314   6.754   2.088   5.974 -0.7619  0.7344  1.9841
   57DOPE   H5Y 7315   6.820   2.242   6.028 -2.1238 -1.8237  1.8120
   57DOPE   C36 7316   6.930   2.081   6.102 -0.2553  0.3959  0.7853
   57DOPE   H6X 7317   7.017   2.141   6.136  1.0416 -0.8973 -0.1210
   57DOPE   H6Y 7318   6.978   1.984   6.075  0.9844  0.9114  1.0725
   57DOPE   C37 7319   6.841   2.063   6.227  0.1335  0.2068  0.6529
   57DOPE   H7X 7320   6.816   2.161   6.274 -0.4535  0.7621 -0.7753
   57DOPE   H7Y 7321   6.746   2.016   6.194  0.6354  0.7915 -1.8191
   57DOPE   C38 7322   6.916   1.970   6.332 -0.3722 -0.3570 -0.5457
   57DOPE   H8X 7323   6.952   1.875   6.287  2.2179 -0.3622  1.3230
   57DOPE   H8Y 7324   6.840   1.941   6.407  2.2711 -2.2084  1.5951
   57DOPE   C39 7325   7.039   2.033   6.395  0.9463  0.0442 -0.0351
   57DOPE   H9X 7326   7.128   2.028   6.331  0.8022  0.9071 -0.3071
   57DOPE  C310 7327   7.062   2.072   6.522 -0.6694  0.5857 -0.0351
   57DOPE  H10X 7328   7.165   2.104   6.540 -0.3008  1.5363 -3.2277
   57DOPE  C311 7329   6.964   2.082   6.636 -0.1244 -0.6438 -0.1372
   57DOPE  H11X 7330   6.924   2.184   6.654  2.3788 -0.0219  2.7390
   57DOPE  H11Y 7331   6.876   2.022   6.604 -0.5892  1.5909 -3.6024
   57DOPE  C312 7332   7.034   2.039   6.763 -0.3176 -0.2355  0.3780
   57DOPE  H12X 7333   7.135   2.083   6.777 -0.6200  0.5235  0.2157
   57DOPE  H12Y 7334   7.054   1.930   6.761 -1.6535 -0.4837 -0.7926
   57DOPE  C313 7335   6.948   2.069   6.881 -0.0918  0.3086 -0.6125
   57DOPE  H13X 7336   6.951   2.180   6.884  2.9408  0.2780  1.4180
   57DOPE  H13Y 7337   6.845   2.028   6.875  0.2645 -0.5518 -0.9307
   57DOPE  C314 7338   7.009   2.031   7.012  0.0468  0.6255  0.1246
   57DOPE  H14X 7339   7.011   1.921   7.026  0.4130  0.0979 -3.1491
   57DOPE  H14Y 7340   6.929   2.054   7.085 -0.4912 -0.0118 -0.2564
   57DOPE  C315 7341   7.144   2.087   7.049 -0.8580 -0.7972  0.3160
   57DOPE  H15X 7342   7.161   2.187   7.002  0.4555 -0.8189  0.7077
   57DOPE  H15Y 7343   7.232   2.024   7.024  0.2554  1.2924 -1.4130
   57DOPE  C316 7344   7.138   2.107   7.195 -0.1479  0.5394  0.3035
   57DOPE  H16X 7345   7.123   2.005   7.236  0.7038  0.1365 -0.3384
   57DOPE  H16Y 7346   7.049   2.167   7.222 -2.1569 -1.7782 -0.7544
   57DOPE  C317 7347   7.260   2.161   7.265 -0.1770  0.5086  0.0608
   57DOPE  H17X 7348   7.335   2.079   7.268 -0.6937  0.0046  3.6379
   57DOPE  H17Y 7349   7.290   2.241   7.194 -0.2918 -0.8172 -1.5552
   57DOPE  C318 7350   7.237   2.214   7.407 -0.6764 -0.0882  0.5946
   57DOPE  H18X 7351   7.210   2.128   7.472  0.9076 -0.4807  0.7782
   57DOPE  H18Y 7352   7.330   2.255   7.453  0.3143 -0.2138 -1.2179
   57DOPE  H18Z 7353   7.158   2.292   7.410 -1.7918 -1.1881  0.3418
   58DOPE     N 7354   0.977   5.335   4.853 -0.1912  0.0514  0.1945
   58DOPE   HN1 7355   1.045   5.283   4.911  0.5470 -0.5544 -1.1567
   58DOPE   HN2 7356   0.995   5.313   4.753  0.8412  0.9097  0.1769
   58DOPE   HN3 7357   0.986   5.438   4.863  2.3337  0.0476 -1.1556
   58DOPE   C12 7358   0.843   5.300   4.903 -0.1450  0.8649  0.2541
   58DOPE  H12A 7359   0.814   5.205   4.854  0.4945  1.3451 -1.1058
   58DOPE  H12B 7360   0.778   5.382   4.864  1.7100  2.2378 -0.1003
   58DOPE   C11 7361   0.857   5.304   5.049 -0.3408  0.0555  0.0080
   58DOPE  H11A 7362   0.910   5.217   5.094 -0.6057  0.8153  1.8730
   58DOPE  H11B 7363   0.756   5.306   5.096  0.9639  0.7072  3.0336
   58DOPE     P 7364   0.924   5.465   5.247  0.2251  0.1079  0.0283
   58DOPE   O13 7365   0.800   5.540   5.282  0.0811 -0.0345 -0.2970
   58DOPE   O14 7366   1.052   5.528   5.275  0.1066 -0.5340 -0.4471
   58DOPE   O11 7367   0.925   5.318   5.305  0.0065  0.1353  0.1767
   58DOPE   O12 7368   0.914   5.431   5.092 -0.0405  0.1260 -0.1578
   58DOPE    C1 7369   0.811   5.259   5.358  0.2635 -0.3703  0.5439
   58DOPE    HA 7370   0.805   5.149   5.338  0.4454 -0.1590 -0.7773
   58DOPE    HB 7371   0.718   5.306   5.320  0.2641 -0.3041  0.6254
   58DOPE    C2 7372   0.804   5.270   5.510 -0.0328  0.3153  0.6104
   58DOPE    HS 7373   0.710   5.222   5.543 -1.4123  0.8476 -2.2728
   58DOPE   O21 7374   0.821   5.405   5.549  0.6410 -0.3404 -0.3498
   58DOPE   C21 7375   0.713   5.481   5.550 -0.9245 -0.0614  0.0822
   58DOPE   O22 7376   0.597   5.443   5.531  0.0715  1.1126  0.0930
   58DOPE   C22 7377   0.738   5.622   5.599 -0.6572  0.5149  0.0121
   58DOPE   H2R 7378   0.780   5.677   5.512  0.3577 -2.4135 -1.4668
   58DOPE   H2S 7379   0.810   5.623   5.683 -0.3949 -0.3552 -0.1993
   58DOPE    C3 7380   0.928   5.198   5.571 -0.2616 -0.4249  0.0475
   58DOPE    HX 7381   1.017   5.264   5.555 -0.5744 -0.3253 -1.3588
   58DOPE    HY 7382   0.942   5.102   5.516  2.3824 -1.3979  2.1402
   58DOPE   O31 7383   0.904   5.169   5.710 -0.2891  0.2369 -0.2842
   58DOPE   C31 7384   0.838   5.056   5.726  0.4957  0.5222 -0.7972
   58DOPE   O32 7385   0.797   4.979   5.642 -0.5124  0.1824  0.1201
   58DOPE   C32 7386   0.819   5.046   5.874 -0.2135  0.0441  0.3969
   58DOPE   H2X 7387   0.918   5.033   5.923 -0.7783 -0.0774  1.5371
   58DOPE   H2Y 7388   0.783   5.143   5.914  2.5470  1.8169 -1.0641
   58DOPE   C23 7389   0.611   5.705   5.632  0.0019 -0.3167 -0.0219
   58DOPE   H3R 7390   0.551   5.655   5.711 -3.0146  1.4540 -1.0011
   58DOPE   H3S 7391   0.538   5.721   5.550 -0.5396 -0.7101  0.3709
   58DOPE   C24 7392   0.647   5.841   5.690  0.2612 -0.3068 -0.4611
   58DOPE   H4R 7393   0.702   5.891   5.608  0.3851  0.6037  0.1645
   58DOPE   H4S 7394   0.716   5.830   5.776 -0.5396 -0.1660  0.2199
   58DOPE   C25 7395   0.524   5.921   5.734 -0.5735  0.0660 -0.0292
   58DOPE   H5R 7396   0.463   5.938   5.643  1.3803  0.7530 -1.2806
   58DOPE   H5S 7397   0.548   6.024   5.769 -1.6785  1.3769 -2.8138
   58DOPE   C26 7398   0.426   5.858   5.830  0.5215  0.7396  0.2933
   58DOPE   H6R 7399   0.371   5.770   5.791  1.4981  0.1815  0.1265
   58DOPE   H6S 7400   0.336   5.923   5.835  1.0080  1.4618 -0.1162
   58DOPE   C27 7401   0.487   5.823   5.973 -0.5638 -0.4572  0.4972
   58DOPE   H7R 7402   0.512   5.923   6.014 -1.2860  1.2105 -2.7583
   58DOPE   H7S 7403   0.578   5.762   5.959 -1.4980 -1.6191 -0.7639
   58DOPE   C28 7404   0.389   5.751   6.064  0.1960  0.6616  0.3925
   58DOPE   H8R 7405   0.298   5.810   6.085 -0.3123  0.4379 -1.0076
   58DOPE   H8S 7406   0.441   5.730   6.159 -0.2427 -0.1615  0.4626
   58DOPE   C29 7407   0.346   5.621   5.994 -0.0500 -0.2531 -0.0440
   58DOPE   H9R 7408   0.417   5.594   5.914  0.0975  3.3368 -1.2676
   58DOPE  C210 7409   0.230   5.559   6.022 -0.9814  0.3125 -0.1671
   58DOPE  H10R 7410   0.216   5.458   5.982  0.6249 -0.1557  0.3940
   58DOPE  C211 7411   0.109   5.606   6.092  0.3068 -0.3609 -0.5533
   58DOPE  H11R 7412   0.020   5.596   6.026 -0.6282 -0.5333  0.6960
   58DOPE  H11S 7413   0.116   5.714   6.117  3.1820 -0.1950 -1.7197
   58DOPE  C212 7414   0.083   5.529   6.220  0.3422 -0.3391 -0.4077
   58DOPE  H12R 7415   0.145   5.581   6.297 -1.7064  1.2204  0.2990
   58DOPE  H12S 7416   0.096   5.419   6.214 -1.1023 -0.4640 -1.6794
   58DOPE  C213 7417  -0.067   5.538   6.257  0.0686  0.1681 -0.2356
   58DOPE  H13R 7418  -0.128   5.499   6.173 -0.6046 -0.0146  0.3359
   58DOPE  H13S 7419  -0.105   5.641   6.274 -3.1732 -0.4324 -2.7832
   58DOPE  C214 7420  -0.104   5.451   6.379  0.1459 -0.2110 -0.2148
   58DOPE  H14R 7421  -0.080   5.345   6.356  0.5496 -0.0590 -0.5049
   58DOPE  H14S 7422  -0.213   5.464   6.394 -0.0088  0.6744 -1.8546
   58DOPE  C215 7423  -0.036   5.504   6.508  0.1429  0.2908  0.2392
   58DOPE  H15R 7424  -0.025   5.614   6.505  0.6540  0.2343 -0.2167
   58DOPE  H15S 7425   0.065   5.458   6.508 -0.4301 -1.1524 -1.9781
   58DOPE  C216 7426  -0.120   5.463   6.624 -0.1502  0.1502 -0.1330
   58DOPE  H16R 7427  -0.144   5.356   6.607  2.7014 -0.9627  2.0468
   58DOPE  H16S 7428  -0.211   5.526   6.633  0.5437  1.0153  1.3959
   58DOPE  C217 7429  -0.037   5.482   6.749 -0.6654  0.5589  0.6241
   58DOPE  H17R 7430   0.012   5.581   6.762 -0.8728  0.8211 -0.5035
   58DOPE  H17S 7431   0.050   5.412   6.742 -0.1446  1.1928  0.6502
   58DOPE  C218 7432  -0.116   5.447   6.881  0.3742  0.2157 -0.2857
   58DOPE  H18R 7433  -0.196   5.524   6.886 -1.8263 -1.9860  0.2968
   58DOPE  H18S 7434  -0.040   5.440   6.961  1.6924 -0.4210 -1.5401
   58DOPE  H18T 7435  -0.155   5.345   6.858  1.4820 -0.1357 -0.6882
   58DOPE   C33 7436   0.739   4.918   5.918 -0.8750  0.3318  0.2370
   58DOPE   H3X 7437   0.785   4.832   5.865  0.2256 -0.1564  1.8950
   58DOPE   H3Y 7438   0.637   4.922   5.875  0.0490 -0.1419 -2.1930
   58DOPE   C34 7439   0.741   4.899   6.065  0.6754 -0.3351 -0.4602
   58DOPE   H4X 7440   0.684   4.985   6.103  1.3947  0.0890 -0.3239
   58DOPE   H4Y 7441   0.684   4.807   6.089 -1.1094  0.0813 -2.7019
   58DOPE   C35 7442   0.877   4.888   6.140 -0.1104 -0.2814  0.3205
   58DOPE   H5X 7443   0.941   4.978   6.129  0.6698 -0.9299 -0.5669
   58DOPE   H5Y 7444   0.935   4.809   6.088 -2.5767 -0.8092 -1.8297
   58DOPE   C36 7445   0.866   4.864   6.294  0.1637 -0.0483  0.8358
   58DOPE   H6X 7446   0.795   4.946   6.321 -0.1513  0.6250 -1.8032
   58DOPE   H6Y 7447   0.967   4.886   6.336  0.6351  1.6962 -1.0719
   58DOPE   C37 7448   0.804   4.734   6.344  0.3852  0.4618  0.4069
   58DOPE   H7X 7449   0.714   4.699   6.289  0.0434  1.5362  0.2567
   58DOPE   H7Y 7450   0.882   4.656   6.333  0.9702  1.0926 -0.0825
   58DOPE   C38 7451   0.769   4.743   6.496  0.0165  0.2433  0.5289
   58DOPE   H8X 7452   0.701   4.830   6.511  1.0233  0.7558  2.5469
   58DOPE   H8Y 7453   0.870   4.766   6.538 -0.5487  1.1557  1.4625
   58DOPE   C39 7454   0.711   4.617   6.553  0.0769  0.0914  0.1441
   58DOPE   H9X 7455   0.714   4.521   6.499 -1.8647  1.0017 -1.7664
   58DOPE  C310 7456   0.660   4.618   6.674  0.9401  0.0797 -0.1279
   58DOPE  H10X 7457   0.644   4.519   6.719 -1.8595  0.2789 -0.4989
   58DOPE  C311 7458   0.634   4.746   6.758 -0.3324  0.4432  0.4102
   58DOPE  H11X 7459   0.730   4.801   6.757 -0.1738  0.1898 -1.8012
   58DOPE  H11Y 7460   0.555   4.808   6.712 -2.9718 -0.8525  2.8840
   58DOPE  C312 7461   0.591   4.703   6.902  0.5945 -0.1404 -0.2637
   58DOPE  H12X 7462   0.677   4.661   6.958 -0.0685 -1.7032 -0.3544
   58DOPE  H12Y 7463   0.510   4.626   6.906 -1.4913  1.8505 -1.7088
   58DOPE  C313 7464   0.523   4.809   6.990 -0.0249  0.3740  0.1389
   58DOPE  H13X 7465   0.588   4.899   6.997  1.7984 -1.0272  2.1949
   58DOPE  H13Y 7466   0.425   4.837   6.945 -0.7720  0.6924  1.8796
   58DOPE  C314 7467   0.477   4.764   7.125 -0.0964 -0.1085 -0.2428
   58DOPE  H14X 7468   0.555   4.731   7.197  0.0650 -0.7502 -0.6968
   58DOPE  H14Y 7469   0.416   4.673   7.109  2.0706 -0.9870 -5.5506
   58DOPE  C315 7470   0.396   4.878   7.199 -0.2540  0.5898 -0.2803
   58DOPE  H15X 7471   0.339   4.830   7.281 -2.9117  1.3309 -1.5683
   58DOPE  H15Y 7472   0.317   4.924   7.134 -0.3334  0.7258 -0.0887
   58DOPE  C316 7473   0.489   4.986   7.258  0.0473  0.0346 -0.3716
   58DOPE  H16X 7474   0.502   5.065   7.181 -2.4076  0.8489 -0.0281
   58DOPE  H16Y 7475   0.589   4.941   7.278 -0.9371 -2.1545 -0.0551
   58DOPE  C317 7476   0.428   5.052   7.387 -0.3809 -0.4035  0.7023
   58DOPE  H17X 7477   0.415   4.968   7.459 -1.2827 -1.8083 -1.0155
   58DOPE  H17Y 7478   0.489   5.127   7.441 -0.4208  0.1201  0.0379
   58DOPE  C318 7479   0.289   5.104   7.375 -0.0353 -0.2046 -0.3879
   58DOPE  H18X 7480   0.218   5.039   7.320  0.9698 -0.9074 -0.8892
   58DOPE  H18Y 7481   0.250   5.107   7.479  2.7497  0.3382  0.7331
   58DOPE  H18Z 7482   0.297   5.201   7.322  2.4308  0.3871  0.8979
   59DOPE     N 7483   6.442   1.070   4.912  0.1138  0.1618 -0.5842
   59DOPE   HN1 7484   6.460   1.159   4.860  2.1532  0.6513  0.8411
   59DOPE   HN2 7485   6.387   1.013   4.844  2.4578 -1.3545 -1.3166
   59DOPE   HN3 7486   6.377   1.091   4.991  0.0822  0.1651 -0.6106
   59DOPE   C12 7487   6.566   1.001   4.943  0.2898  0.8544  0.6029
   59DOPE  H12A 7488   6.633   1.063   5.006  1.2259  1.1500 -0.6577
   59DOPE  H12B 7489   6.620   0.972   4.850 -1.0667  0.6645 -0.1545
   59DOPE   C11 7490   6.549   0.868   5.024  0.6686 -0.4523  0.1314
   59DOPE  H11A 7491   6.480   0.893   5.108  2.4519  0.2274  1.4569
   59DOPE  H11B 7492   6.636   0.841   5.087 -0.1901 -3.8957 -0.0020
   59DOPE     P 7493   6.595   0.647   4.884  0.2018 -0.2764 -0.2468
   59DOPE   O13 7494   6.696   0.720   4.802 -0.3476  0.0192 -0.6316
   59DOPE   O14 7495   6.516   0.541   4.821  0.0159 -0.3171  0.0997
   59DOPE   O11 7496   6.680   0.583   4.998 -0.7059  0.0765  0.7991
   59DOPE   O12 7497   6.503   0.755   4.952 -0.3193  0.0259  0.0562
   59DOPE    C1 7498   6.614   0.509   5.106 -0.0996  0.5263  0.3540
   59DOPE    HA 7499   6.644   0.402   5.109  0.8117  0.7391 -0.6451
   59DOPE    HB 7500   6.504   0.507   5.089 -0.0793 -0.7583  0.2556
   59DOPE    C2 7501   6.659   0.556   5.247 -0.7033 -0.1680 -0.2254
   59DOPE    HS 7502   6.612   0.657   5.257  1.4285  0.8522 -0.0275
   59DOPE   O21 7503   6.799   0.554   5.258  0.1371 -0.6046  0.9193
   59DOPE   C21 7504   6.869   0.659   5.227 -0.7297 -0.1143 -0.2213
   59DOPE   O22 7505   6.827   0.771   5.209 -0.2365 -0.4631  0.2452
   59DOPE   C22 7506   7.020   0.610   5.220  0.3020 -0.3304 -0.0173
   59DOPE   H2R 7507   7.039   0.597   5.112  2.3280  1.9067 -0.0241
   59DOPE   H2S 7508   7.018   0.504   5.251 -0.1501  0.2508  2.0949
   59DOPE    C3 7509   6.602   0.467   5.360  0.1190  0.0502 -0.6446
   59DOPE    HX 7510   6.635   0.365   5.329  1.3196  0.0594  0.5113
   59DOPE    HY 7511   6.491   0.468   5.360  0.1173  0.0353 -0.9612
   59DOPE   O31 7512   6.672   0.488   5.485  0.4868  0.4057  0.0814
   59DOPE   C31 7513   6.609   0.581   5.561 -0.0893  0.3608 -0.1348
   59DOPE   O32 7514   6.523   0.659   5.519 -0.0602 -0.1442 -0.2546
   59DOPE   C32 7515   6.664   0.591   5.701  0.1063 -0.4972  0.1304
   59DOPE   H2X 7516   6.704   0.491   5.730  3.2513  0.8659  0.9004
   59DOPE   H2Y 7517   6.754   0.656   5.692  2.1349 -3.2445 -1.1369
   59DOPE   C23 7518   7.108   0.702   5.304 -0.1021  0.2768  0.6659
   59DOPE   H3R 7519   7.101   0.809   5.273  2.4873 -0.3595 -2.6559
   59DOPE   H3S 7520   7.212   0.681   5.273 -0.6855  1.3452 -2.4060
   59DOPE   C24 7521   7.079   0.696   5.456  0.3331 -0.0568 -0.2505
   59DOPE   H4R 7522   7.086   0.590   5.488  2.0011  0.3679  0.8725
   59DOPE   H4S 7523   6.977   0.735   5.477  1.5865  3.2936  0.3203
   59DOPE   C25 7524   7.174   0.784   5.542 -0.0597 -0.5027 -0.1975
   59DOPE   H5R 7525   7.279   0.754   5.522 -0.0758 -1.0801  0.5224
   59DOPE   H5S 7526   7.161   0.784   5.652  1.7700  0.0098  0.0580
   59DOPE   C26 7527   7.161   0.938   5.515  0.2450  0.0236 -0.7278
   59DOPE   H6R 7528   7.053   0.966   5.516  0.1029 -0.4815 -1.1829
   59DOPE   H6S 7529   7.201   0.972   5.417  0.0335 -1.1141 -1.2241
   59DOPE   C27 7530   7.249   1.014   5.613 -0.3524  0.4940  0.2072
   59DOPE   H7R 7531   7.357   1.011   5.589 -0.8198 -2.3179 -2.1373
   59DOPE   H7S 7532   7.231   0.977   5.716  0.0379  0.3930  0.2395
   59DOPE   C28 7533   7.198   1.157   5.603  0.3883  0.7015 -0.2721
   59DOPE   H8R 7534   7.113   1.162   5.675  0.2668 -0.1676 -0.3413
   59DOPE   H8S 7535   7.158   1.171   5.500  1.1291 -1.1088 -0.8595
   59DOPE   C29 7536   7.299   1.269   5.633 -0.5616 -0.1172 -0.6198
   59DOPE   H9R 7537   7.364   1.305   5.552  2.4259 -0.3085  1.5511
   59DOPE  C210 7538   7.308   1.333   5.747 -0.0750 -0.3173  1.0243
   59DOPE  H10R 7539   7.378   1.418   5.752  0.6706 -0.9548  1.7363
   59DOPE  C211 7540   7.222   1.300   5.868  0.2976 -0.2798  0.1671
   59DOPE  H11R 7541   7.155   1.211   5.871 -1.1334  0.7633  2.7317
   59DOPE  H11S 7542   7.160   1.390   5.889  0.0535 -0.5182  0.4955
   59DOPE  C212 7543   7.303   1.305   6.005  0.3309  0.6679  0.3958
   59DOPE  H12R 7544   7.396   1.365   5.994 -0.1597  1.2818 -0.4978
   59DOPE  H12S 7545   7.345   1.203   6.023 -0.9948  0.1109  0.4265
   59DOPE  C213 7546   7.222   1.355   6.121  0.1075  0.2077  0.8842
   59DOPE  H13R 7547   7.123   1.305   6.126 -0.9352  2.1486  0.5339
   59DOPE  H13S 7548   7.196   1.462   6.108  0.1779  0.2459  1.0557
   59DOPE  C214 7549   7.285   1.316   6.252 -0.8233  0.7579 -0.0475
   59DOPE  H14R 7550   7.388   1.352   6.276 -0.7738  1.1383 -0.8032
   59DOPE  H14S 7551   7.296   1.205   6.256 -3.2496  0.4442 -0.4346
   59DOPE  C215 7552   7.194   1.343   6.372 -0.6178  0.5147 -0.0321
   59DOPE  H15R 7553   7.106   1.278   6.350 -1.0518 -0.0844  3.0417
   59DOPE  H15S 7554   7.174   1.452   6.377  2.3353  1.1268 -0.1840
   59DOPE  C216 7555   7.257   1.281   6.495 -0.7774 -0.3546  0.2540
   59DOPE  H16R 7556   7.288   1.175   6.479  2.3892  0.6431 -1.0468
   59DOPE  H16S 7557   7.187   1.270   6.580  0.2436  0.4139  1.2173
   59DOPE  C217 7558   7.359   1.380   6.549 -0.1974 -0.1628  0.1177
   59DOPE  H17R 7559   7.318   1.483   6.552  2.0243  0.7983 -0.5896
   59DOPE  H17S 7560   7.445   1.395   6.480 -2.3970 -0.6554 -2.9651
   59DOPE  C218 7561   7.401   1.347   6.694 -1.1672 -0.0630  0.5537
   59DOPE  H18R 7562   7.474   1.263   6.693  0.7595  1.5193  0.1426
   59DOPE  H18S 7563   7.314   1.329   6.760 -2.6066  1.1021 -0.9540
   59DOPE  H18T 7564   7.455   1.430   6.746 -0.9047 -0.8980  1.6425
   59DOPE   C33 7565   6.566   0.636   5.808 -0.3887 -1.2734 -1.1815
   59DOPE   H3X 7566   6.479   0.568   5.796 -1.0837 -0.5057 -0.6252
   59DOPE   H3Y 7567   6.537   0.742   5.800  1.0187 -0.6109  1.3068
   59DOPE   C34 7568   6.615   0.613   5.958 -0.0751  0.2868  0.1641
   59DOPE   H4X 7569   6.581   0.510   5.981  0.0324  0.3702  0.7048
   59DOPE   H4Y 7570   6.725   0.624   5.965  0.0819 -1.3321  0.5294
   59DOPE   C35 7571   6.550   0.712   6.050  0.6407 -0.1548 -0.0027
   59DOPE   H5X 7572   6.446   0.732   6.016 -0.0066 -0.8675  1.4776
   59DOPE   H5Y 7573   6.606   0.807   6.036  0.9446 -0.6258 -2.4281
   59DOPE   C36 7574   6.551   0.663   6.194 -0.3846  0.2446  0.0488
   59DOPE   H6X 7575   6.652   0.663   6.240 -0.3085  0.1644 -0.1191
   59DOPE   H6Y 7576   6.522   0.556   6.189  1.1300 -0.1556 -0.6024
   59DOPE   C37 7577   6.453   0.742   6.289 -0.2144 -0.3592  0.2310
   59DOPE   H7X 7578   6.492   0.846   6.301 -2.4824  0.2739  3.3957
   59DOPE   H7Y 7579   6.354   0.745   6.240  0.3493 -0.0713 -0.9263
   59DOPE   C38 7580   6.443   0.695   6.435  0.4379 -0.8386 -0.4155
   59DOPE   H8X 7581   6.418   0.588   6.416  0.3889 -0.6288 -1.6287
   59DOPE   H8Y 7582   6.346   0.733   6.472  0.0401 -1.3069 -0.9522
   59DOPE   C39 7583   6.559   0.738   6.525 -0.3415 -0.5796  0.5372
   59DOPE   H9X 7584   6.655   0.760   6.476  0.7467  0.1696  2.8857
   59DOPE  C310 7585   6.553   0.781   6.651  0.4262 -0.2351  0.1658
   59DOPE  H10X 7586   6.650   0.788   6.702 -0.8629  3.4204  2.5400
   59DOPE  C311 7587   6.429   0.779   6.734 -0.6522  0.4028 -0.8456
   59DOPE  H11X 7588   6.343   0.825   6.680 -1.1019  0.1694 -0.3266
   59DOPE  H11Y 7589   6.403   0.674   6.756  2.0811 -0.7221 -2.4851
   59DOPE  C312 7590   6.456   0.849   6.861  0.1332 -0.1920 -1.0073
   59DOPE  H12X 7591   6.481   0.955   6.837 -0.1546  0.4135  1.1669
   59DOPE  H12Y 7592   6.543   0.797   6.905 -0.6095 -1.0105 -0.4604
   59DOPE  C313 7593   6.335   0.859   6.957 -1.7564  0.5599  0.2181
   59DOPE  H13X 7594   6.260   0.925   6.909 -1.9197  1.6724  1.9215
   59DOPE  H13Y 7595   6.304   0.754   6.976  0.3077  0.0011  0.7656
   59DOPE  C314 7596   6.370   0.925   7.092 -0.1141  0.1329  0.1912
   59DOPE  H14X 7597   6.418   1.023   7.071  0.6700 -0.0280  1.1803
   59DOPE  H14Y 7598   6.433   0.846   7.139 -0.6474 -0.5326 -0.1957
   59DOPE  C315 7599   6.242   0.957   7.169  0.8883  0.3116 -0.4250
   59DOPE  H15X 7600   6.178   0.868   7.183 -0.1262  0.8981 -1.1186
   59DOPE  H15Y 7601   6.185   1.045   7.130  0.1135  0.0031 -0.0028
   59DOPE  C316 7602   6.279   1.016   7.309  1.1452  0.5713 -0.0032
   59DOPE  H16X 7603   6.182   1.028   7.363 -0.1273 -0.5310 -1.9014
   59DOPE  H16Y 7604   6.331   1.110   7.283  1.5060 -0.3010 -2.8697
   59DOPE  C317 7605   6.358   0.931   7.408 -0.6772 -0.2334 -0.4131
   59DOPE  H17X 7606   6.459   0.925   7.364 -0.7687 -0.5006 -0.5821
   59DOPE  H17Y 7607   6.368   0.991   7.502  0.3468  2.5295 -2.1565
   59DOPE  C318 7608   6.311   0.793   7.438 -0.5840  0.0586 -0.9007
   59DOPE  H18X 7609   6.398   0.737   7.480 -1.5900 -1.1212 -0.3135
   59DOPE  H18Y 7610   6.231   0.802   7.514  0.8297  2.3409  0.4379
   59DOPE  H18Z 7611   6.262   0.742   7.353  0.3160 -2.1559 -0.1759
   60DOPE     N 7612   1.742   5.991   5.300  0.1016  0.2102  0.0715
   60DOPE   HN1 7613   1.700   6.072   5.249  0.2652 -1.1522 -2.4067
   60DOPE   HN2 7614   1.835   6.013   5.343  0.1828 -0.0582  0.0346
   60DOPE   HN3 7615   1.764   5.912   5.236  0.3560  1.6612 -1.7474
   60DOPE   C12 7616   1.647   5.956   5.412 -0.0626 -0.2164 -0.1659
   60DOPE  H12A 7617   1.609   6.044   5.468 -0.2181 -0.8129  0.6820
   60DOPE  H12B 7618   1.715   5.909   5.485  1.2265  1.6177 -0.1230
   60DOPE   C11 7619   1.548   5.851   5.360 -0.7383 -0.3624 -0.2396
   60DOPE  H11A 7620   1.496   5.797   5.442 -0.6448  0.1765  0.1774
   60DOPE  H11B 7621   1.610   5.770   5.315 -1.8025 -1.8238  0.8490
   60DOPE     P 7622   1.354   5.808   5.203 -0.0686  0.4596  0.2515
   60DOPE   O13 7623   1.417   5.685   5.147  0.4681  0.1840  1.2161
   60DOPE   O14 7624   1.264   5.880   5.115 -0.3670 -0.6483  0.2476
   60DOPE   O11 7625   1.272   5.760   5.324  0.5663 -0.9116 -0.1434
   60DOPE   O12 7626   1.463   5.904   5.260  0.1299 -0.8798 -0.1104
   60DOPE    C1 7627   1.223   5.860   5.411  1.1994 -0.5100  0.0685
   60DOPE    HA 7628   1.177   5.945   5.356  1.2985 -0.4079  0.1423
   60DOPE    HB 7629   1.310   5.909   5.460  2.2436 -0.8148 -1.4085
   60DOPE    C2 7630   1.122   5.809   5.518  0.2956  0.6137  0.0721
   60DOPE    HS 7631   1.025   5.778   5.474  0.3159 -0.1923  0.5781
   60DOPE   O21 7632   1.111   5.903   5.625 -0.2773  0.4151  0.2080
   60DOPE   C21 7633   1.035   6.007   5.612  0.1042  0.5982 -0.2531
   60DOPE   O22 7634   0.950   6.023   5.524  0.1220 -0.0717  0.4093
   60DOPE   C22 7635   1.047   6.090   5.738 -0.3415 -0.7919  0.0932
   60DOPE   H2R 7636   0.990   6.184   5.721 -1.0911 -1.2482  0.0776
   60DOPE   H2S 7637   1.151   6.128   5.753 -0.5363  0.6835 -1.8036
   60DOPE    C3 7638   1.187   5.682   5.569 -0.2618  0.3846 -0.2264
   60DOPE    HX 7639   1.292   5.703   5.598 -0.9898  1.8657  1.6161
   60DOPE    HY 7640   1.206   5.610   5.487  1.5972  2.2662 -1.5249
   60DOPE   O31 7641   1.104   5.635   5.683 -0.7378  0.3173  0.0777
   60DOPE   C31 7642   1.117   5.505   5.711  0.2307 -0.1288  0.8017
   60DOPE   O32 7643   1.197   5.429   5.657 -0.2065 -0.0069 -0.3568
   60DOPE   C32 7644   1.030   5.460   5.830 -0.5185 -0.0024 -0.8168
   60DOPE   H2X 7645   0.931   5.424   5.795 -0.4997 -1.1077  0.2030
   60DOPE   H2Y 7646   1.083   5.379   5.884  1.7520  1.0399 -1.3696
   60DOPE   C23 7647   0.985   6.020   5.857 -0.3780  0.1030 -0.2136
   60DOPE   H3R 7648   1.046   5.935   5.894 -0.0006  0.1828 -0.6476
   60DOPE   H3S 7649   0.886   5.988   5.819  0.5822 -3.2574 -0.1988
   60DOPE   C24 7650   0.957   6.117   5.973 -0.2965  0.1077 -0.2800
   60DOPE   H4R 7651   0.884   6.194   5.940  0.2077  0.2134 -1.1727
   60DOPE   H4S 7652   1.055   6.158   6.004  0.4484 -0.5300 -1.6623
   60DOPE   C25 7653   0.887   6.044   6.090 -0.3248 -0.1134 -0.3323
   60DOPE   H5R 7654   0.955   5.963   6.124  0.7266  1.5646  1.8811
   60DOPE   H5S 7655   0.788   6.001   6.064  0.4218 -3.7110  1.9799
   60DOPE   C26 7656   0.868   6.128   6.224 -0.1794 -0.6927  0.3828
   60DOPE   H6R 7657   0.824   6.225   6.194 -0.1151  0.1359  2.7455
   60DOPE   H6S 7658   0.962   6.139   6.282 -0.6021  1.0892  0.8031
   60DOPE   C27 7659   0.774   6.056   6.317  0.0968 -0.6720  0.2207
   60DOPE   H7R 7660   0.798   5.948   6.314 -0.9332 -1.0575  2.9206
   60DOPE   H7S 7661   0.675   6.056   6.266  1.1770  0.1501 -2.0173
   60DOPE   C28 7662   0.770   6.102   6.467  0.2386 -0.2005  0.1544
   60DOPE   H8R 7663   0.758   6.211   6.457 -1.4874 -0.5485 -2.5557
   60DOPE   H8S 7664   0.861   6.077   6.526  0.3189 -0.6119 -0.1302
   60DOPE   C29 7665   0.660   6.039   6.541  0.0425 -0.0812 -0.4592
   60DOPE   H9R 7666   0.597   5.963   6.493 -1.2357  1.4035 -1.2187
   60DOPE  C210 7667   0.622   6.083   6.662 -0.1098 -0.4327 -0.7559
   60DOPE  H10R 7668   0.531   6.044   6.710 -0.1295 -0.3596 -0.7337
   60DOPE  C211 7669   0.693   6.184   6.748  0.4937  0.9007  0.2622
   60DOPE  H11R 7670   0.618   6.244   6.803  1.1004 -0.1547  2.3671
   60DOPE  H11S 7671   0.749   6.257   6.684 -0.2085  0.1300 -1.2886
   60DOPE  C212 7672   0.785   6.114   6.843  0.0809  0.3853 -0.3375
   60DOPE  H12R 7673   0.867   6.061   6.791  0.5436  1.4940 -0.7673
   60DOPE  H12S 7674   0.728   6.041   6.904  0.1530  1.7603  1.4776
   60DOPE  C213 7675   0.840   6.207   6.958 -0.2774  0.7725  0.6573
   60DOPE  H13R 7676   0.757   6.252   7.016 -0.5737 -1.3620  1.9826
   60DOPE  H13S 7677   0.893   6.287   6.902  1.0141 -1.1424 -1.0399
   60DOPE  C214 7678   0.937   6.134   7.048 -0.3265 -0.4876 -1.3879
   60DOPE  H14R 7679   1.022   6.103   6.982 -0.1778  2.2737 -2.6271
   60DOPE  H14S 7680   0.889   6.048   7.099 -2.0450  0.8453 -0.6513
   60DOPE  C215 7681   1.006   6.223   7.150 -0.7081  0.1612 -0.8772
   60DOPE  H15R 7682   0.934   6.280   7.211 -2.0088 -0.3287 -1.9134
   60DOPE  H15S 7683   1.077   6.295   7.104 -0.1518  0.3486  0.2226
   60DOPE  C216 7684   1.095   6.142   7.249 -0.3113  0.1035 -0.0831
   60DOPE  H16R 7685   1.148   6.066   7.188 -0.7457  2.5502 -3.8601
   60DOPE  H16S 7686   1.031   6.092   7.324  0.6130 -2.6779 -1.0407
   60DOPE  C217 7687   1.205   6.224   7.319 -0.0957 -0.0613 -0.1553
   60DOPE  H17R 7688   1.137   6.283   7.384 -1.7975 -1.4526 -0.5953
   60DOPE  H17S 7689   1.259   6.291   7.248 -0.6777  1.8385  1.1551
   60DOPE  C218 7690   1.306   6.139   7.402  0.8895  0.3239  1.0203
   60DOPE  H18R 7691   1.252   6.058   7.455  0.5750 -0.3144 -0.2334
   60DOPE  H18S 7692   1.343   6.217   7.471  0.3375  1.3647  0.1808
   60DOPE  H18T 7693   1.383   6.104   7.330  0.3380 -0.1034  0.6267
   60DOPE   C33 7694   0.994   5.576   5.931 -0.2549 -0.3881  0.0849
   60DOPE   H3X 7695   0.936   5.655   5.878 -0.3972  0.2750  1.2011
   60DOPE   H3Y 7696   1.081   5.632   5.970 -1.9504  2.2858  0.2599
   60DOPE   C34 7697   0.910   5.526   6.048 -0.2625  0.1570  0.2992
   60DOPE   H4X 7698   0.823   5.474   6.002  0.7527 -0.8455 -0.5853
   60DOPE   H4Y 7699   0.974   5.450   6.099 -0.8804 -0.1319  0.6589
   60DOPE   C35 7700   0.865   5.639   6.138  0.0551 -0.1975  0.1934
   60DOPE   H5X 7701   0.809   5.718   6.083 -1.2772 -1.3088 -0.0990
   60DOPE   H5Y 7702   0.962   5.671   6.182  0.1087 -0.7111  0.4572
   60DOPE   C36 7703   0.777   5.581   6.245 -0.2689  0.0953 -0.2516
   60DOPE   H6X 7704   0.796   5.473   6.259 -0.4743  0.3974  3.1098
   60DOPE   H6Y 7705   0.670   5.584   6.214 -0.0451  3.0972 -1.0826
   60DOPE   C37 7706   0.789   5.635   6.386  0.4304 -0.0025  0.1630
   60DOPE   H7X 7707   0.894   5.623   6.419  0.9896 -1.2507 -1.8976
   60DOPE   H7Y 7708   0.772   5.745   6.385  0.1132 -0.0288  1.3200
   60DOPE   C38 7709   0.691   5.569   6.492 -0.3580  0.1110 -0.0109
   60DOPE   H8X 7710   0.730   5.584   6.595  0.0942 -1.7060  0.1077
   60DOPE   H8Y 7711   0.690   5.459   6.484 -2.3316 -0.2829  3.5747
   60DOPE   C39 7712   0.563   5.639   6.479  0.9194  0.3330 -0.2073
   60DOPE   H9X 7713   0.547   5.688   6.382  1.0420  2.9817  1.0105
   60DOPE  C310 7714   0.453   5.641   6.561  1.0331 -0.1535 -0.3890
   60DOPE  H10X 7715   0.372   5.714   6.544  1.8467  1.7380  2.9572
   60DOPE  C311 7716   0.431   5.569   6.691 -0.3535 -0.0186  0.2732
   60DOPE  H11X 7717   0.328   5.530   6.702 -0.5314 -0.6779 -2.7514
   60DOPE  H11Y 7718   0.499   5.482   6.702 -2.4624 -1.5531  1.8347
   60DOPE  C312 7719   0.456   5.673   6.806 -0.2983  0.1554  0.5731
   60DOPE  H12X 7720   0.560   5.709   6.790 -0.1921 -0.6597 -0.7488
   60DOPE  H12Y 7721   0.454   5.634   6.910  0.3661  2.7222  1.6280
   60DOPE  C313 7722   0.342   5.776   6.807  0.0553 -0.7018 -0.1687
   60DOPE  H13X 7723   0.365   5.854   6.731 -1.2870 -0.9310 -0.8456
   60DOPE  H13Y 7724   0.248   5.728   6.773  0.5434 -1.3312 -0.6387
   60DOPE  C314 7725   0.307   5.838   6.945  0.3375 -1.2524 -0.0873
   60DOPE  H14X 7726   0.275   5.762   7.019 -1.0099 -0.3487  0.2971
   60DOPE  H14Y 7727   0.229   5.917   6.934  0.5248 -1.1828 -1.0503
   60DOPE  C315 7728   0.432   5.891   7.009  0.1287  0.7681 -0.6271
   60DOPE  H15X 7729   0.474   5.957   6.930 -1.3266  1.5132 -0.8210
   60DOPE  H15Y 7730   0.507   5.812   7.028 -1.5542 -0.5464  0.9078
   60DOPE  C316 7731   0.406   5.962   7.144 -0.1621  0.6297  0.6058
   60DOPE  H16X 7732   0.373   5.892   7.224  2.2025  0.9692  1.9664
   60DOPE  H16Y 7733   0.332   6.045   7.137 -0.2618  0.7430  2.5403
   60DOPE  C317 7734   0.527   6.023   7.203  0.1918 -0.0650  0.2285
   60DOPE  H17X 7735   0.602   5.943   7.219 -0.4075 -0.9522 -1.1305
   60DOPE  H17Y 7736   0.578   6.097   7.137 -0.1580 -0.1813 -0.1860
   60DOPE  C318 7737   0.488   6.094   7.333 -0.2311 -0.6288 -0.3207
   60DOPE  H18X 7738   0.569   6.158   7.375  0.0044 -0.9635 -0.2604
   60DOPE  H18Y 7739   0.402   6.162   7.316 -0.8705 -1.7790 -1.8985
   60DOPE  H18Z 7740   0.455   6.016   7.405 -0.3893 -0.5269 -0.2851
   6123SM     N 7741   2.574   4.042  10.390  0.2231  0.2404  0.3115
   6123SM   C15 7742   2.525   3.900  10.405  0.1327 -1.1488  0.7374
   6123SM  H15A 7743   2.606   3.855  10.460 -0.4933 -0.5464  2.1944
   6123SM  H15B 7744   2.502   3.848  10.312  1.7923 -2.2651  0.9203
   6123SM  H15C 7745   2.436   3.898  10.466 -0.6731  0.3089 -0.3145
   6123SM   C14 7746   2.464   4.128  10.336 -0.0375 -0.0491  0.0454
   6123SM  H14A 7747   2.497   4.231  10.336 -0.5264  0.1124  0.1971
   6123SM  H14B 7748   2.376   4.133  10.399  1.0024  2.1872  1.4741
   6123SM  H14C 7749   2.431   4.094  10.240 -0.5772 -1.2067  0.6222
   6123SM   C13 7750   2.626   4.087  10.524  1.0792 -0.1270 -0.0371
   6123SM  H13A 7751   2.635   4.194  10.513 -0.5203  0.1041  0.6176
   6123SM  H13B 7752   2.715   4.037  10.559  2.5285  2.7536  0.6860
   6123SM  H13C 7753   2.553   4.071  10.602 -0.9458  2.1365 -1.3568
   6123SM   C12 7754   2.687   4.040  10.288  0.1349  0.3695  0.1937
   6123SM  H12A 7755   2.758   3.977  10.340  0.3839  1.6862  1.5161
   6123SM  H12B 7756   2.733   4.138  10.283 -1.2949  1.0122 -1.6708
   6123SM   C11 7757   2.642   4.003  10.147 -0.1045 -0.1238 -0.3429
   6123SM  H11A 7758   2.635   4.098  10.090 -2.5356 -0.0228  0.0287
   6123SM  H11B 7759   2.543   3.954  10.138 -0.3192  0.0200  1.0128
   6123SM     P 7760   2.754   3.774  10.099  0.3203 -0.3236 -0.0681
   6123SM   O13 7761   2.893   3.747  10.120  0.1115 -0.6466  0.7489
   6123SM   O14 7762   2.667   3.718  10.201 -0.8681 -0.7454 -0.1099
   6123SM   O11 7763   2.718   3.718   9.959  0.5466 -0.3827 -0.0183
   6123SM   O12 7764   2.740   3.930  10.080 -0.0150 -0.1505  0.1709
   6123SM   C1S 7765   2.606   3.759   9.881 -0.7088  0.8579 -0.8133
   6123SM   H1S 7766   2.620   3.867   9.862  0.5550  1.0698  1.0719
   6123SM   H1T 7767   2.516   3.736   9.943  0.2024 -0.2802  0.1258
   6123SM    NF 7768   2.513   3.749   9.657 -0.1791  0.1077 -0.1003
   6123SM   HNF 7769   2.420   3.711   9.655 -0.1090 -0.0781  0.0958
   6123SM   C2S 7770   2.605   3.685   9.747 -0.2948 -0.6114 -0.3744
   6123SM   H2S 7771   2.708   3.685   9.706 -0.4424 -1.9539 -0.8027
   6123SM   C3S 7772   2.573   3.534   9.770 -0.0443  0.1366 -0.3542
   6123SM   H3S 7773   2.485   3.516   9.834 -0.0012 -0.6174 -0.4952
   6123SM    O3 7774   2.670   3.464   9.852 -0.1810 -0.1778 -0.0464
   6123SM   HO3 7775   2.719   3.533   9.897 -0.7125 -0.7353  1.4323
   6123SM   C4S 7776   2.549   3.477   9.631  0.2230 -0.2510  0.4765
   6123SM   H4S 7777   2.447   3.482   9.589  0.0579  3.3574  0.9312
   6123SM   C5S 7778   2.645   3.418   9.555 -0.1248  0.1683 -0.8246
   6123SM   H5S 7779   2.747   3.410   9.595  0.3994  0.4000 -2.0663
   6123SM   C6S 7780   2.625   3.357   9.414 -0.0578 -0.1583 -0.7348
   6123SM   H6S 7781   2.642   3.247   9.417  0.2625 -0.1336  2.7040
   6123SM   H6T 7782   2.707   3.388   9.347  0.4188 -0.5079 -0.3250
   6123SM   C7S 7783   2.491   3.388   9.344  0.0308 -0.8431  0.3842
   6123SM   H7S 7784   2.474   3.498   9.351  0.2563 -0.6147 -1.9115
   6123SM   H7T 7785   2.402   3.334   9.383 -0.1980  0.3437  1.5744
   6123SM   C8S 7786   2.497   3.336   9.194  0.1960 -0.3053 -0.4193
   6123SM   H8S 7787   2.503   3.225   9.200 -0.9548 -0.3010  1.4019
   6123SM   H8T 7788   2.582   3.380   9.137 -0.7276  0.8110 -0.9905
   6123SM   C9S 7789   2.370   3.362   9.117 -0.5869 -0.0042 -0.6932
   6123SM   H9S 7790   2.343   3.470   9.115  0.9243  0.4237  0.3089
   6123SM   H9T 7791   2.289   3.314   9.176  0.0472 -0.3806 -0.1095
   6123SM  C10S 7792   2.381   3.305   8.974 -0.3477  0.0969  0.0209
   6123SM  H10S 7793   2.277   3.306   8.937 -0.1611  1.9228 -0.5031
   6123SM  H10T 7794   2.417   3.200   8.981  0.3363  0.0795 -2.6792
   6123SM  C11S 7795   2.465   3.383   8.873  0.6641 -0.1861 -0.3756
   6123SM  H11S 7796   2.571   3.364   8.899  0.6997 -0.2522 -0.5650
   6123SM  H11T 7797   2.455   3.494   8.874  0.8438 -0.1722  0.3200
   6123SM  C12S 7798   2.449   3.340   8.730  0.0633 -0.1209 -0.6342
   6123SM  H12S 7799   2.340   3.332   8.707  0.3604  1.3762 -2.9536
   6123SM  H12T 7800   2.503   3.245   8.711  0.8701  0.1560  0.2027
   6123SM  C13S 7801   2.510   3.445   8.635 -0.3581 -0.1445  0.7665
   6123SM  H13S 7802   2.620   3.437   8.650 -0.2471 -1.2464 -0.4372
   6123SM  H13T 7803   2.474   3.548   8.655  0.9767  0.4117  0.4337
   6123SM  C14S 7804   2.478   3.412   8.487  0.5652  0.2670 -0.5476
   6123SM  H14S 7805   2.376   3.368   8.475 -0.0859  1.5440  0.0999
   6123SM  H14T 7806   2.526   3.320   8.450 -1.9130 -1.2352 -0.2770
   6123SM  C15S 7807   2.507   3.526   8.391 -0.0792 -0.3094  0.1765
   6123SM  H15S 7808   2.617   3.542   8.391  0.2185 -1.0589 -4.3190
   6123SM  H15T 7809   2.453   3.617   8.424  0.0657 -0.0791 -0.2144
   6123SM  C16S 7810   2.462   3.479   8.245 -0.7087 -0.4180  0.5770
   6123SM  H16S 7811   2.351   3.477   8.253 -0.7707  2.7982  1.8436
   6123SM  H16T 7812   2.495   3.378   8.212  0.2401  0.3012 -0.7614
   6123SM  C17S 7813   2.491   3.583   8.139 -0.7145  0.0486 -0.1818
   6123SM  H17S 7814   2.499   3.683   8.186 -1.3232  0.4579 -0.9258
   6123SM  H17T 7815   2.416   3.567   8.059 -0.4296  1.6008 -0.7907
   6123SM  C18S 7816   2.622   3.547   8.076 -0.3366  0.0826 -0.0523
   6123SM  H18S 7817   2.703   3.561   8.150 -1.6570  2.6488  1.0491
   6123SM  H18T 7818   2.649   3.631   8.009  2.3531 -0.6844 -0.0479
   6123SM  H18U 7819   2.625   3.444   8.033  0.3170  0.1693 -0.2152
   6123SM   C1F 7820   2.538   3.863   9.585 -0.0144  0.8734 -1.0512
   6123SM    OF 7821   2.653   3.909   9.576 -0.2610  0.4231  0.2484
   6123SM   C2F 7822   2.416   3.931   9.534  0.8503  0.0854 -0.9825
   6123SM   H2F 7823   2.400   4.027   9.588 -0.2284 -1.7520  2.1998
   6123SM   H2G 7824   2.322   3.883   9.568 -0.3092  2.5016 -0.5840
   6123SM   C3F 7825   2.418   3.938   9.382 -0.2334 -0.0450  0.1974
   6123SM   H3F 7826   2.510   3.981   9.337  0.3659 -1.0054  0.4804
   6123SM   H3G 7827   2.336   4.011   9.365 -0.1207  0.2005  0.7034
   6123SM   C4F 7828   2.387   3.801   9.312  0.6114  0.7200 -0.0248
   6123SM   H4F 7829   2.299   3.757   9.364  0.1019  1.3014 -0.3846
   6123SM   H4G 7830   2.467   3.724   9.317  0.6615  0.8640  1.6934
   6123SM   C5F 7831   2.347   3.816   9.162 -0.7603  0.1072 -0.2786
   6123SM   H5F 7832   2.303   3.915   9.137  1.7316  1.0056 -1.4969
   6123SM   H5G 7833   2.286   3.730   9.128  0.6546 -0.3306 -1.8252
   6123SM   C6F 7834   2.475   3.817   9.074 -0.5638 -0.2736 -0.5496
   6123SM   H6F 7835   2.529   3.722   9.091 -1.2220 -0.7351 -0.9807
   6123SM   H6G 7836   2.535   3.906   9.101 -1.5826  0.7495 -1.5275
   6123SM   C7F 7837   2.441   3.832   8.925  0.2140 -0.1135  0.5268
   6123SM   H7F 7838   2.421   3.941   8.915 -1.8510 -0.2601  2.2974
   6123SM   H7G 7839   2.348   3.782   8.891  0.3589  0.9543 -1.5668
   6123SM   C8F 7840   2.556   3.811   8.823 -0.3967  0.4396 -0.0630
   6123SM   H8F 7841   2.571   3.702   8.806 -4.0837 -0.2012 -0.0660
   6123SM   H8G 7842   2.647   3.856   8.868 -0.0851 -1.0309  0.8642
   6123SM   C9F 7843   2.522   3.874   8.686  0.2553  0.0398 -0.7332
   6123SM   H9F 7844   2.527   3.985   8.692 -0.8473  0.1100 -0.9636
   6123SM   H9G 7845   2.418   3.854   8.655 -0.0039  0.4312 -0.1414
   6123SM  C10F 7846   2.624   3.833   8.581  0.7919  0.1881  0.3677
   6123SM  H10F 7847   2.634   3.724   8.565  1.1409  0.4539 -1.4821
   6123SM  H10G 7848   2.716   3.878   8.624  0.3918  0.6655  0.7411
   6123SM  C11F 7849   2.602   3.900   8.444  0.6636 -0.3933 -0.2520
   6123SM  H11F 7850   2.589   4.008   8.463 -0.5184 -0.5591  0.0129
   6123SM  H11G 7851   2.512   3.853   8.399  0.0501  0.4023  0.1132
   6123SM  C12F 7852   2.714   3.874   8.351 -0.4518 -0.0843  0.3768
   6123SM  H12F 7853   2.721   3.764   8.335 -2.8772  0.0186 -2.0066
   6123SM  H12G 7854   2.807   3.912   8.400 -1.7208 -1.0533  3.8154
   6123SM  C13F 7855   2.679   3.934   8.211  0.2822  0.8985 -0.1231
   6123SM  H13F 7856   2.637   4.036   8.225 -0.5323  0.3427  1.7045
   6123SM  H13G 7857   2.607   3.858   8.174  1.4545 -0.4638  0.2753
   6123SM  C14F 7858   2.800   3.931   8.120 -0.1518  0.2871 -0.6406
   6123SM  H14F 7859   2.861   3.845   8.156 -1.2112  0.2998  1.2874
   6123SM  H14G 7860   2.858   4.022   8.144 -0.4799 -0.2392  2.5528
   6123SM  C15F 7861   2.757   3.939   7.973 -0.2415 -0.2811  0.4802
   6123SM  H15F 7862   2.710   4.037   7.949  0.1405 -0.5060 -1.3519
   6123SM  H15G 7863   2.685   3.857   7.951 -1.0973  1.0335 -2.0564
   6123SM  C16F 7864   2.882   3.906   7.888  0.2727  0.5448  0.4783
   6123SM  H16F 7865   2.925   3.809   7.921  0.4418 -0.0736 -1.4006
   6123SM  H16G 7866   2.958   3.984   7.912  0.1281  0.9870 -0.4352
   6123SM  C17F 7867   2.841   3.886   7.742  0.4338  0.8547  0.3510
   6123SM  H17F 7868   2.786   3.973   7.701  0.5183  0.9865  0.5209
   6123SM  H17G 7869   2.772   3.801   7.723  1.3659  0.0785  0.2983
   6123SM  C18F 7870   2.964   3.884   7.642  0.1454 -0.2822 -0.6126
   6123SM  H18F 7871   2.935   3.833   7.547  0.2366  2.1360 -2.0199
   6123SM  H18G 7872   3.042   3.824   7.693  2.7271  1.0564 -2.6850
   6123SM  C19F 7873   3.018   4.025   7.600 -0.0024  0.1419  0.6125
   6123SM  H19F 7874   3.112   4.047   7.655  0.8824  1.1694 -1.2033
   6123SM  H19G 7875   2.948   4.109   7.623 -0.7405 -0.1331 -0.5428
   6123SM  C20F 7876   3.058   4.023   7.449 -0.3697 -0.8609 -0.0367
   6123SM  H20F 7877   2.979   3.984   7.381  1.3369 -1.4657 -1.7477
   6123SM  H20G 7878   3.142   3.953   7.433 -0.8118 -1.6395  0.8992
   6123SM  C21F 7879   3.096   4.167   7.398  0.2164 -0.1473  0.2293
   6123SM  H21F 7880   3.165   4.216   7.469  0.7340 -0.3982 -0.0934
   6123SM  H21G 7881   2.996   4.216   7.395 -0.4374 -1.4148  0.2241
   6123SM  C22F 7882   3.174   4.162   7.267  0.4232 -0.2874 -0.3490
   6123SM  H22F 7883   3.111   4.101   7.200 -1.8613  0.5296  0.9526
   6123SM  H22G 7884   3.273   4.114   7.282  0.7242  0.6088  0.7197
   6123SM  C23F 7885   3.197   4.300   7.195  0.4455  0.2889 -0.5529
   6123SM  H23F 7886   3.214   4.283   7.086 -0.2897  0.8185 -0.7621
   6123SM  H23G 7887   3.288   4.349   7.234 -0.7177  2.4984 -0.4330
   6123SM  H23H 7888   3.111   4.367   7.219  0.4362 -0.4825  1.8067
   6223SM     N 7889   1.830   2.970  10.210 -0.7260 -0.0352 -0.2176
   6223SM   C15 7890   1.702   2.903  10.245 -0.6161 -0.0027 -0.0155
   6223SM  H15A 7891   1.635   2.923  10.162 -0.7811  0.1412  0.1508
   6223SM  H15B 7892   1.654   2.946  10.331  0.3329  3.5998 -1.0990
   6223SM  H15C 7893   1.717   2.797  10.256 -0.9026 -0.1181 -0.6643
   6223SM   C14 7894   1.801   3.120  10.203  0.2656  0.1917 -0.3773
   6223SM  H14A 7895   1.759   3.147  10.107  3.9961  0.3286 -2.1245
   6223SM  H14B 7896   1.892   3.172  10.227  1.6342 -1.7314 -1.1453
   6223SM  H14C 7897   1.738   3.154  10.284 -0.7044  0.5597 -1.2580
   6223SM   C13 7898   1.924   2.944  10.326 -0.4613 -0.3353 -0.4955
   6223SM  H13A 7899   2.023   2.986  10.328 -0.3703 -0.4499  2.7631
   6223SM  H13B 7900   1.948   2.839  10.334 -0.6439 -0.3640 -0.2814
   6223SM  H13C 7901   1.880   2.973  10.421  0.5785  0.7361 -0.3221
   6223SM   C12 7902   1.878   2.907  10.087  0.6006 -0.2481  0.5438
   6223SM  H12A 7903   1.800   2.894  10.013 -0.2126  0.2493  1.2845
   6223SM  H12B 7904   1.909   2.809  10.121 -1.2284 -1.2113 -0.4009
   6223SM   C11 7905   2.010   2.969  10.022  0.5407  0.9136  0.3540
   6223SM  H11A 7906   2.017   3.079  10.010  0.2705  0.7933 -1.0546
   6223SM  H11B 7907   2.012   2.938   9.915  1.0425  2.1440 -0.0043
   6223SM     P 7908   2.197   2.795  10.101 -0.5474 -0.1143  0.1218
   6223SM   O13 7909   2.330   2.821  10.172  0.2929 -0.2386  0.0943
   6223SM   O14 7910   2.111   2.684  10.151  0.4322 -0.1944 -0.6045
   6223SM   O11 7911   2.225   2.769   9.946  0.3731  0.4432  0.5155
   6223SM   O12 7912   2.120   2.933  10.101  0.6357  0.6707  0.4767
   6223SM   C1S 7913   2.296   2.870   9.876 -0.2686  0.3545  0.3659
   6223SM   H1S 7914   2.383   2.897   9.940 -0.2223 -1.2941  1.0407
   6223SM   H1T 7915   2.238   2.960   9.846  0.9431  0.6308 -1.3187
   6223SM    NF 7916   2.449   2.913   9.691 -0.5172 -0.6818  0.2567
   6223SM   HNF 7917   2.428   2.968   9.610  0.3943  0.2238  0.6257
   6223SM   C2S 7918   2.352   2.813   9.741 -0.0929 -0.1865  0.3413
   6223SM   H2S 7919   2.403   2.719   9.774  0.6369 -0.8322 -2.4066
   6223SM   C3S 7920   2.240   2.776   9.647  0.3686  0.5048 -0.0141
   6223SM   H3S 7921   2.189   2.871   9.620  1.3301  0.9686 -0.2417
   6223SM    O3 7922   2.135   2.694   9.706  0.0431  0.4132  0.0036
   6223SM   HO3 7923   2.150   2.716   9.798  0.6533  4.7562 -0.9213
   6223SM   C4S 7924   2.300   2.714   9.522 -0.3030  0.1636  0.3762
   6223SM   H4S 7925   2.390   2.653   9.542 -0.2522  0.0567 -0.1485
   6223SM   C5S 7926   2.267   2.750   9.398  0.1077 -0.6252 -0.9836
   6223SM   H5S 7927   2.188   2.825   9.389 -0.2433 -0.7031  1.0498
   6223SM   C6S 7928   2.333   2.703   9.268  0.1710 -0.2569 -0.1130
   6223SM   H6S 7929   2.262   2.625   9.230  0.0494  0.6639 -1.8724
   6223SM   H6T 7930   2.429   2.651   9.287  1.3573  1.9960  0.3642
   6223SM   C7S 7931   2.366   2.814   9.167  0.0805 -0.7689 -0.8574
   6223SM   H7S 7932   2.452   2.881   9.193  0.2384 -0.3717 -2.2940
   6223SM   H7T 7933   2.285   2.889   9.157  1.1874  0.3401 -1.8048
   6223SM   C8S 7934   2.393   2.770   9.028 -0.0299 -0.2235  0.2820
   6223SM   H8S 7935   2.296   2.733   8.988  0.6959 -1.4011 -0.4616
   6223SM   H8T 7936   2.452   2.678   9.046 -0.3728 -0.8814 -1.7054
   6223SM   C9S 7937   2.466   2.872   8.940  0.1432 -0.1144 -0.8354
   6223SM   H9S 7938   2.571   2.890   8.971 -0.8585  0.0475  2.9964
   6223SM   H9T 7939   2.409   2.967   8.954 -0.8384 -0.6544 -1.0452
   6223SM  C10S 7940   2.474   2.831   8.797 -0.0057  0.9907 -0.0252
   6223SM  H10S 7941   2.375   2.806   8.754  0.4002  0.1372 -0.4885
   6223SM  H10T 7942   2.526   2.733   8.801  0.8140  1.4330  0.5896
   6223SM  C11S 7943   2.569   2.923   8.713 -0.2147 -0.2323 -0.5714
   6223SM  H11S 7944   2.655   2.952   8.777  0.1129  0.0500 -1.1347
   6223SM  H11T 7945   2.514   3.017   8.689  1.7110  0.7121 -1.4947
   6223SM  C12S 7946   2.613   2.857   8.585 -0.0980  0.5432 -0.3811
   6223SM  H12S 7947   2.526   2.803   8.541  1.2471 -1.1991 -1.0201
   6223SM  H12T 7948   2.682   2.777   8.621  2.2409  1.4920 -2.4972
   6223SM  C13S 7949   2.692   2.948   8.484  0.2399  0.5008 -0.2446
   6223SM  H13S 7950   2.794   2.953   8.526 -0.4674  3.7148  1.4542
   6223SM  H13T 7951   2.663   3.056   8.486  0.5988  0.5858  0.9693
   6223SM  C14S 7952   2.679   2.896   8.339  0.1042  0.4901 -0.5894
   6223SM  H14S 7953   2.574   2.902   8.300 -1.0090  0.7302  2.2427
   6223SM  H14T 7954   2.713   2.791   8.331 -0.5089  0.2471 -0.0877
   6223SM  C15S 7955   2.763   2.972   8.230 -0.3023  0.8549  0.1999
   6223SM  H15S 7956   2.777   2.921   8.132  2.1692 -0.1717  1.0102
   6223SM  H15T 7957   2.864   2.976   8.277 -0.6203  0.7330  0.9090
   6223SM  C16S 7958   2.721   3.115   8.192 -0.4639 -0.2723  0.4548
   6223SM  H16S 7959   2.709   3.175   8.285  0.3624  0.3156  0.1855
   6223SM  H16T 7960   2.617   3.119   8.152 -0.3423 -2.2167 -0.1766
   6223SM  C17S 7961   2.803   3.172   8.078 -0.3690 -0.2628  0.1533
   6223SM  H17S 7962   2.911   3.146   8.078 -0.2119  0.1076 -2.6571
   6223SM  H17T 7963   2.793   3.282   8.088 -3.3329 -0.2268 -1.9189
   6223SM  C18S 7964   2.739   3.135   7.944 -0.6212 -0.0021  0.0749
   6223SM  H18S 7965   2.773   3.198   7.859 -1.7754  0.8841  0.2457
   6223SM  H18T 7966   2.629   3.148   7.947 -0.5080  1.2067 -0.4142
   6223SM  H18U 7967   2.756   3.030   7.911  0.3634  0.2105 -0.1272
   6223SM   C1F 7968   2.575   2.934   9.739  0.7111  0.2113  0.4133
   6223SM    OF 7969   2.620   2.863   9.823  0.4306 -0.8063 -0.1871
   6223SM   C2F 7970   2.662   3.042   9.682  0.0918  0.1658  0.2199
   6223SM   H2F 7971   2.637   3.134   9.740 -1.0353 -0.6470  1.0800
   6223SM   H2G 7972   2.641   3.054   9.574  0.5839 -0.1100  0.0879
   6223SM   C3F 7973   2.813   3.012   9.690  0.1838 -0.1859  0.3944
   6223SM   H3F 7974   2.829   2.907   9.659  0.7005 -0.0389  0.1520
   6223SM   H3G 7975   2.838   3.020   9.798 -0.4469  1.0288  0.4673
   6223SM   C4F 7976   2.908   3.101   9.604 -0.7733  0.4165 -0.9181
   6223SM   H4F 7977   3.009   3.062   9.629  0.9987  4.0133 -1.8198
   6223SM   H4G 7978   2.905   3.208   9.634  1.0462  1.1166 -2.9732
   6223SM   C5F 7979   2.907   3.084   9.455 -0.0422  0.5466  0.0146
   6223SM   H5F 7980   2.801   3.066   9.426  0.4625 -1.9240 -0.5800
   6223SM   H5G 7981   2.971   2.997   9.428  0.5667  1.0695 -0.2525
   6223SM   C6F 7982   2.966   3.198   9.376  0.0340  0.8309  0.2405
   6223SM   H6F 7983   3.071   3.210   9.410  0.4010 -2.8287  0.7402
   6223SM   H6G 7984   2.905   3.287   9.400 -0.2501  0.4799  0.8370
   6223SM   C7F 7985   2.974   3.165   9.223  0.5257 -0.1939  0.0692
   6223SM   H7F 7986   3.031   3.070   9.215  0.3493 -0.2597 -0.4074
   6223SM   H7G 7987   3.023   3.251   9.173 -0.5610  0.0225 -0.6547
   6223SM   C8F 7988   2.836   3.134   9.147 -0.7846 -0.1761 -0.2341
   6223SM   H8F 7989   2.770   3.223   9.156 -0.7344  0.2436 -3.0394
   6223SM   H8G 7990   2.786   3.051   9.201  1.4652 -2.1117 -0.9407
   6223SM   C9F 7991   2.865   3.090   9.007  0.7902 -0.2763  0.8198
   6223SM   H9F 7992   2.770   3.055   8.961  0.7738 -0.3363  0.8996
   6223SM   H9G 7993   2.943   3.010   8.998  1.3814  0.3961 -0.4440
   6223SM  C10F 7994   2.922   3.205   8.918  0.2957 -0.5773 -0.5367
   6223SM  H10F 7995   3.019   3.237   8.962 -0.5324 -0.7621  1.5520
   6223SM  H10G 7996   2.865   3.300   8.934  2.5288  0.7959 -0.2899
   6223SM  C11F 7997   2.923   3.184   8.771  0.1418 -0.0407 -0.2977
   6223SM  H11F 7998   2.818   3.178   8.735  0.7408  0.9011 -2.3767
   6223SM  H11G 7999   2.988   3.100   8.738  1.2755  0.5446  0.3589
   6223SM  C12F 8000   2.971   3.314   8.701  0.6511  0.2612 -0.1420
   6223SM  H12F 8001   3.077   3.338   8.724 -0.4033  4.5157  0.9854
   6223SM  H12G 8002   2.911   3.392   8.752  1.1713  0.1842  0.5981
   6223SM  C13F 8003   2.960   3.316   8.550  0.5251 -0.0631  0.1501
   6223SM  H13F 8004   2.857   3.280   8.527  1.2807 -1.5332 -1.1283
   6223SM  H13G 8005   3.029   3.243   8.503  2.3442  1.7746 -0.1968
   6223SM  C14F 8006   2.981   3.462   8.495  0.0828 -0.8065  0.8935
   6223SM  H14F 8007   3.083   3.498   8.519 -0.2455  3.0959 -2.4871
   6223SM  H14G 8008   2.911   3.527   8.553 -0.0858  0.1887 -0.3777
   6223SM  C15F 8009   2.958   3.484   8.346 -0.5708  0.6306 -0.2458
   6223SM  H15F 8010   2.850   3.500   8.323 -0.3885  0.1229 -1.5881
   6223SM  H15G 8011   2.976   3.387   8.295 -1.2082  0.6778 -0.5760
   6223SM  C16F 8012   3.049   3.592   8.285 -0.2510  0.7014  0.6240
   6223SM  H16F 8013   3.149   3.583   8.333 -0.6332 -2.7001  1.0189
   6223SM  H16G 8014   3.013   3.693   8.316 -0.0484  0.0142  3.3738
   6223SM  C17F 8015   3.065   3.584   8.131  0.4263  0.2734 -0.2348
   6223SM  H17F 8016   2.968   3.572   8.077  0.5475 -1.7800 -0.0991
   6223SM  H17G 8017   3.113   3.486   8.110  0.4125  0.5779 -1.8306
   6223SM  C18F 8018   3.155   3.695   8.078  0.1425  0.6538  0.4976
   6223SM  H18F 8019   3.231   3.715   8.156  0.8648 -0.1834  0.0267
   6223SM  H18G 8020   3.088   3.783   8.064 -0.6461 -0.1911 -1.3901
   6223SM  C19F 8021   3.234   3.669   7.951  0.1624 -0.2997 -0.2037
   6223SM  H19F 8022   3.162   3.651   7.868 -1.0461  1.1046  0.4894
   6223SM  H19G 8023   3.289   3.573   7.963 -0.8063 -1.0054 -1.1286
   6223SM  C20F 8024   3.325   3.792   7.918  0.0489 -0.4171  0.4513
   6223SM  H20F 8025   3.372   3.813   8.017  0.1073  0.2919  0.2769
   6223SM  H20G 8026   3.259   3.881   7.909 -0.5737 -0.9075  0.0206
   6223SM  C21F 8027   3.409   3.789   7.793 -0.2275 -0.0263 -0.5490
   6223SM  H21F 8028   3.350   3.756   7.705 -0.6554 -0.5560 -0.0729
   6223SM  H21G 8029   3.492   3.716   7.802  0.6351  1.0184  0.2582
   6223SM  C22F 8030   3.461   3.926   7.756 -0.4829  0.1415 -1.0318
   6223SM  H22F 8031   3.548   3.944   7.822 -1.8173 -0.8717  1.1038
   6223SM  H22G 8032   3.381   4.002   7.764 -0.5414 -0.1384  3.2867
   6223SM  C23F 8033   3.525   3.924   7.620 -0.7716 -0.1438  0.0331
   6223SM  H23F 8034   3.584   4.017   7.607 -2.9947  1.3778  0.1943
   6223SM  H23G 8035   3.455   3.917   7.534 -0.4240  0.0968 -0.2735
   6223SM  H23H 8036   3.593   3.837   7.607 -2.2222 -0.9527 -3.4418
   6323SM     N 8037   4.277   4.468  10.574 -0.0025  0.0470 -0.4523
   6323SM   C15 8038   4.426   4.498  10.565 -0.1545  0.4677  0.5876
   6323SM  H15A 8039   4.438   4.594  10.611  0.7251  0.9029 -0.5068
   6323SM  H15B 8040   4.453   4.502  10.461  2.5202  1.0027  1.2368
   6323SM  H15C 8041   4.484   4.423  10.617  1.5351  1.4544  0.1774
   6323SM   C14 8042   4.243   4.341  10.513 -0.5813 -0.1385 -0.5243
   6323SM  H14A 8043   4.236   4.349  10.406  1.6763 -1.8807 -0.8648
   6323SM  H14B 8044   4.149   4.308  10.554 -0.8840  1.3905  0.0874
   6323SM  H14C 8045   4.317   4.270  10.546  1.0563  1.5056 -0.5170
   6323SM   C13 8046   4.241   4.458  10.721  0.4442  0.2136  0.0312
   6323SM  H13A 8047   4.138   4.425  10.731  0.0273  1.4999  0.1291
   6323SM  H13B 8048   4.252   4.542  10.787  2.2562 -0.4419  0.6150
   6323SM  H13C 8049   4.294   4.378  10.771  0.9196  0.2997 -0.3257
   6323SM   C12 8050   4.188   4.586  10.514 -0.1978  0.4238 -0.0920
   6323SM  H12A 8051   4.216   4.675  10.569  2.0403 -0.7441  0.7842
   6323SM  H12B 8052   4.083   4.581  10.542  0.6745  0.3947  3.6820
   6323SM   C11 8053   4.200   4.614  10.363 -0.0716  0.0288  0.1695
   6323SM  H11A 8054   4.307   4.625  10.337  0.3756 -2.1791  0.8394
   6323SM  H11B 8055   4.152   4.715  10.362  0.6636  0.4391  2.0905
   6323SM     P 8056   3.985   4.504  10.275 -0.2056  0.1570 -0.2524
   6323SM   O13 8057   3.941   4.376  10.213  0.1749  0.0245  0.6242
   6323SM   O14 8058   3.915   4.520  10.404  0.0936 -0.2263  0.4418
   6323SM   O11 8059   3.951   4.623  10.178 -0.0631  0.3938 -0.3738
   6323SM   O12 8060   4.141   4.511  10.279 -0.2653  0.0188 -0.9036
   6323SM   C1S 8061   4.018   4.635  10.052 -0.2445 -0.5920 -0.0820
   6323SM   H1S 8062   4.112   4.575  10.052  0.2290  0.1424  0.2120
   6323SM   H1T 8063   4.045   4.740  10.031 -0.7976 -0.7018 -1.4509
   6323SM    NF 8064   3.976   4.583   9.814 -0.0883 -0.7371 -0.4631
   6323SM   HNF 8065   3.963   4.665   9.760 -2.0050  0.8511  2.1405
   6323SM   C2S 8066   3.915   4.595   9.946 -0.5103 -0.8758 -0.4191
   6323SM   H2S 8067   3.880   4.493   9.973  2.7034 -1.9923 -0.0347
   6323SM   C3S 8068   3.785   4.689   9.948 -0.6615  0.1648 -0.2782
   6323SM   H3S 8069   3.826   4.788   9.921 -0.0839 -0.2487 -0.9472
   6323SM    O3 8070   3.720   4.697  10.074  0.1410 -0.3184 -0.0096
   6323SM   HO3 8071   3.762   4.647  10.144  1.0467  2.3453  1.4816
   6323SM   C4S 8072   3.679   4.637   9.851 -0.6348 -0.2084 -0.3956
   6323SM   H4S 8073   3.630   4.543   9.880 -0.5659  0.3918  1.8626
   6323SM   C5S 8074   3.643   4.696   9.732 -0.0870 -0.7426  0.3165
   6323SM   H5S 8075   3.704   4.782   9.701 -1.5479 -1.2519 -4.8720
   6323SM   C6S 8076   3.535   4.646   9.644 -0.2270  0.0610  0.2626
   6323SM   H6S 8077   3.475   4.733   9.611 -0.6430 -1.2413 -2.8734
   6323SM   H6T 8078   3.468   4.580   9.703  0.9338 -0.7033  0.7667
   6323SM   C7S 8079   3.592   4.574   9.521 -0.5318 -0.2616  0.2717
   6323SM   H7S 8080   3.507   4.531   9.463 -0.7224  1.4214 -0.7545
   6323SM   H7T 8081   3.660   4.493   9.554 -0.1877 -0.6412 -1.2803
   6323SM   C8S 8082   3.670   4.667   9.433 -0.1317  0.2732  0.8805
   6323SM   H8S 8083   3.759   4.710   9.482 -1.3973  1.1853  2.4841
   6323SM   H8T 8084   3.604   4.746   9.391 -1.8134 -1.2939  0.4323
   6323SM   C9S 8085   3.737   4.600   9.307  0.2245  0.2941 -0.2313
   6323SM   H9S 8086   3.672   4.532   9.247 -1.6209  0.7252  1.1799
   6323SM   H9T 8087   3.829   4.543   9.333 -0.6715 -0.9806  0.2474
   6323SM  C10S 8088   3.785   4.709   9.215 -0.0662 -0.5515  0.0900
   6323SM  H10S 8089   3.835   4.781   9.284 -1.7554 -0.7903  1.6293
   6323SM  H10T 8090   3.702   4.770   9.174  0.6947  1.5898  1.5264
   6323SM  C11S 8091   3.867   4.646   9.106  0.1124 -0.3035 -0.3816
   6323SM  H11S 8092   3.801   4.582   9.044 -0.8161 -0.4560  0.7250
   6323SM  H11T 8093   3.943   4.572   9.141 -0.6256 -0.1841  1.5995
   6323SM  C12S 8094   3.943   4.752   9.020  0.3604  0.1129 -0.0181
   6323SM  H12S 8095   4.002   4.798   9.102 -0.9397 -2.2665  2.4084
   6323SM  H12T 8096   3.863   4.819   8.980  1.1974  1.7032  0.8632
   6323SM  C13S 8097   4.030   4.690   8.911  0.5413  0.0907  0.3460
   6323SM  H13S 8098   4.038   4.581   8.930 -0.1099 -0.1423 -0.6968
   6323SM  H13T 8099   4.130   4.738   8.910  1.0176 -0.8564 -1.4575
   6323SM  C14S 8100   3.977   4.706   8.764 -0.3069 -1.1919  0.0226
   6323SM  H14S 8101   3.961   4.815   8.755 -0.6063 -1.1869  0.5442
   6323SM  H14T 8102   3.877   4.657   8.760 -0.7252 -0.3010 -0.7854
   6323SM  C15S 8103   4.061   4.656   8.643 -0.3647 -0.2680  0.3638
   6323SM  H15S 8104   4.121   4.566   8.666  1.3646  0.7935  0.1725
   6323SM  H15T 8105   4.143   4.730   8.635 -1.2887  0.6812 -0.6737
   6323SM  C16S 8106   3.987   4.660   8.511  0.2637  0.6120  0.4044
   6323SM  H16S 8107   3.936   4.758   8.518 -2.3835 -0.6187 -0.2926
   6323SM  H16T 8108   3.906   4.587   8.530  0.0160  0.5369 -0.8305
   6323SM  C17S 8109   4.067   4.637   8.382  0.3863  0.0020 -0.2240
   6323SM  H17S 8110   4.131   4.546   8.384  0.4573 -0.0850 -2.8421
   6323SM  H17T 8111   4.133   4.724   8.362  1.5119 -0.5394  1.0393
   6323SM  C18S 8112   3.969   4.628   8.267 -0.0229 -0.0299 -0.1754
   6323SM  H18S 8113   3.899   4.547   8.298 -0.0768  0.3141  0.6080
   6323SM  H18T 8114   4.012   4.606   8.167 -2.2973  0.0454 -1.2384
   6323SM  H18U 8115   3.911   4.722   8.256 -1.0789 -0.8254 -1.9974
   6323SM   C1F 8116   4.057   4.482   9.782 -0.2480  0.4314  0.0890
   6323SM    OF 8117   4.060   4.377   9.842 -0.1366  0.1140  0.2532
   6323SM   C2F 8118   4.159   4.492   9.671 -0.0803  0.3493  0.0456
   6323SM   H2F 8119   4.247   4.428   9.691  0.0027 -0.0504 -1.4372
   6323SM   H2G 8120   4.196   4.597   9.677 -3.4018  1.6505  0.1233
   6323SM   C3F 8121   4.094   4.467   9.531 -0.1130  0.0339 -0.3360
   6323SM   H3F 8122   4.172   4.485   9.455 -0.3244  1.7251 -0.2067
   6323SM   H3G 8123   4.011   4.539   9.511 -0.3423 -0.7513 -2.3650
   6323SM   C4F 8124   4.047   4.324   9.517  0.1354  0.5819 -0.1731
   6323SM   H4F 8125   3.937   4.328   9.524 -0.0633 -0.6680 -1.9603
   6323SM   H4G 8126   4.085   4.259   9.599  1.1025  0.0857 -0.9906
   6323SM   C5F 8127   4.094   4.255   9.384  0.1472 -0.5510  0.4889
   6323SM   H5F 8128   4.053   4.151   9.382 -0.2877 -0.3646 -0.3867
   6323SM   H5G 8129   4.205   4.258   9.383  0.2876 -2.6736  1.6871
   6323SM   C6F 8130   4.032   4.322   9.257  0.5897  0.5100  0.4738
   6323SM   H6F 8131   4.082   4.421   9.252 -0.8998  1.2348 -0.9377
   6323SM   H6G 8132   3.924   4.346   9.265  0.9403  1.7226  1.8109
   6323SM   C7F 8133   4.072   4.237   9.133  0.3822 -0.1578 -0.8573
   6323SM   H7F 8134   4.052   4.130   9.157 -0.5021  0.5158  1.7634
   6323SM   H7G 8135   4.182   4.245   9.119  0.3226 -0.1509 -1.3324
   6323SM   C8F 8136   4.002   4.287   9.004  0.8479 -0.2052  0.7816
   6323SM   H8F 8137   4.027   4.395   8.999  0.0523 -0.0618 -0.5437
   6323SM   H8G 8138   3.896   4.266   9.027  0.6606 -1.1117 -0.7342
   6323SM   C9F 8139   4.053   4.205   8.884  0.0609  0.3416  0.2387
   6323SM   H9F 8140   3.996   4.110   8.873  0.5891  0.0459  0.0642
   6323SM   H9G 8141   4.153   4.165   8.910  0.4319  1.2797  0.2848
   6323SM  C10F 8142   4.048   4.284   8.753  0.1659  0.2195 -0.2704
   6323SM  H10F 8143   4.122   4.363   8.779 -1.1472  1.3580  0.1291
   6323SM  H10G 8144   3.946   4.318   8.726 -0.0627 -0.2220  0.0328
   6323SM  C11F 8145   4.100   4.203   8.631  0.3468 -0.5528  0.3542
   6323SM  H11F 8146   4.030   4.118   8.619 -1.7954  0.9542  1.4195
   6323SM  H11G 8147   4.204   4.164   8.641  1.0937  0.2797 -2.9781
   6323SM  C12F 8148   4.097   4.292   8.505  0.4023 -0.8649 -0.7383
   6323SM  H12F 8149   4.166   4.379   8.512  0.2585 -0.5238 -2.8108
   6323SM  H12G 8150   3.994   4.333   8.495  0.5711  1.2586  3.7363
   6323SM  C13F 8151   4.130   4.224   8.374 -0.0827  0.4691  0.2679
   6323SM  H13F 8152   4.059   4.139   8.382 -0.4340  0.7674  0.3228
   6323SM  H13G 8153   4.231   4.177   8.367  0.4372  1.4577  0.8144
   6323SM  C14F 8154   4.109   4.310   8.246 -0.1267  0.2920  0.2609
   6323SM  H14F 8155   4.188   4.388   8.249  0.0817  0.0525  2.5255
   6323SM  H14G 8156   4.011   4.361   8.239 -0.0043  0.5429  0.3954
   6323SM  C15F 8157   4.120   4.216   8.120 -0.0641 -0.0499  0.8417
   6323SM  H15F 8158   4.050   4.133   8.143  1.4605 -1.4760  0.5714
   6323SM  H15G 8159   4.223   4.182   8.096 -1.1554 -1.1521 -2.9264
   6323SM  C16F 8160   4.097   4.283   7.976 -0.0092  0.7790  0.3863
   6323SM  H16F 8161   4.119   4.211   7.894  0.1171  0.5617  0.6071
   6323SM  H16G 8162   4.164   4.371   7.964 -0.4021  0.6991 -3.4061
   6323SM  C17F 8163   3.952   4.328   7.944 -0.3836  0.1363 -0.4339
   6323SM  H17F 8164   3.936   4.404   8.023 -1.1322 -0.4321 -0.0334
   6323SM  H17G 8165   3.885   4.241   7.954 -0.9585  0.4517 -1.3790
   6323SM  C18F 8166   3.923   4.400   7.808 -0.4130  0.1224 -0.5952
   6323SM  H18F 8167   3.886   4.323   7.737  0.1954 -2.4120  1.6334
   6323SM  H18G 8168   4.005   4.465   7.772 -0.6174  0.2215 -0.8865
   6323SM  C19F 8169   3.807   4.496   7.809  0.0117  0.1570  0.1446
   6323SM  H19F 8170   3.811   4.535   7.705 -1.0393 -0.4111 -0.1236
   6323SM  H19G 8171   3.816   4.579   7.882 -0.8603  2.2795 -2.0388
   6323SM  C20F 8172   3.668   4.436   7.835 -0.6064  0.6380 -1.3310
   6323SM  H20F 8173   3.590   4.515   7.834 -1.0083  0.3690  1.4917
   6323SM  H20G 8174   3.662   4.397   7.939 -0.9582  3.9521  0.0089
   6323SM  C21F 8175   3.625   4.327   7.735  0.2495  0.9392 -0.0178
   6323SM  H21F 8176   3.520   4.313   7.770  0.1341  0.9779 -0.3495
   6323SM  H21G 8177   3.689   4.236   7.733 -1.3936 -0.2624 -1.2783
   6323SM  C22F 8178   3.625   4.386   7.586  0.5289  0.6592  0.3398
   6323SM  H22F 8179   3.730   4.404   7.554  0.7684 -0.2489  0.5831
   6323SM  H22G 8180   3.576   4.485   7.598  1.0707  0.7962  1.6583
   6323SM  C23F 8181   3.544   4.305   7.480  0.2656  0.2095 -0.3602
   6323SM  H23F 8182   3.505   4.367   7.396 -1.8116  2.0209  1.7927
   6323SM  H23G 8183   3.459   4.254   7.529  0.6964 -0.5419 -0.3885
   6323SM  H23H 8184   3.619   4.230   7.446  0.4138 -0.1853  0.8043
   6423SM     N 8185   4.870   2.932  10.138 -0.2642 -0.2204  0.3107
   6423SM   C15 8186   4.867   2.798  10.083  0.5119  0.1237  0.3393
   6423SM  H15A 8187   4.906   2.727  10.154 -0.5571  1.6640  2.6029
   6423SM  H15B 8188   4.925   2.783   9.993 -0.3410  0.1478 -0.2265
   6423SM  H15C 8189   4.766   2.761  10.069  0.3312 -0.4387  2.7625
   6423SM   C14 8190   4.813   2.933  10.274  0.0431  0.4063 -0.2777
   6423SM  H14A 8191   4.881   2.882  10.341  0.5706 -0.4769 -1.4355
   6423SM  H14B 8192   4.716   2.887  10.285  0.0738  0.7662  2.0227
   6423SM  H14C 8193   4.801   3.035  10.305  0.6295  0.8654 -1.4864
   6423SM   C13 8194   5.017   2.973  10.162 -0.5356  0.0256  0.2830
   6423SM  H13A 8195   5.083   2.899  10.204 -0.7574  0.0828  0.7384
   6423SM  H13B 8196   5.017   3.048  10.239 -3.3460 -0.3781  0.8072
   6423SM  H13C 8197   5.068   3.009  10.073  4.6007 -1.6187  2.2117
   6423SM   C12 8198   4.801   3.028  10.044 -0.5777  0.1952  0.6112
   6423SM  H12A 8199   4.823   3.132  10.062 -1.5418  0.1511  2.1967
   6423SM  H12B 8200   4.694   3.021  10.056 -0.7157 -4.5107 -1.4677
   6423SM   C11 8201   4.825   3.009   9.891 -0.1802  0.1244  0.2987
   6423SM  H11A 8202   4.760   3.081   9.836 -0.7931  0.4673  1.4537
   6423SM  H11B 8203   4.788   2.908   9.863 -3.3796  1.0173  0.9739
   6423SM     P 8204   5.031   3.176   9.838  0.1983 -0.1689 -0.3012
   6423SM   O13 8205   5.009   3.267   9.954  0.0535 -0.0460 -0.0481
   6423SM   O14 8206   5.170   3.157   9.801 -0.4387 -0.7559  0.4506
   6423SM   O11 8207   4.943   3.231   9.720 -0.4084 -0.2058  0.0827
   6423SM   O12 8208   4.966   3.030   9.850 -0.3992  0.3534 -0.0111
   6423SM   C1S 8209   5.009   3.252   9.593  0.2898 -0.1299 -0.0289
   6423SM   H1S 8210   5.080   3.174   9.558  2.5548  1.5783  0.4706
   6423SM   H1T 8211   5.083   3.335   9.597  0.4673 -0.2054 -1.3565
   6423SM    NF 8212   4.975   3.281   9.357  0.7914  0.3126 -0.2039
   6423SM   HNF 8213   4.982   3.374   9.322  0.2996  1.5363  2.6891
   6423SM   C2S 8214   4.906   3.274   9.490  0.1994  0.0935  0.6552
   6423SM   H2S 8215   4.836   3.188   9.488 -0.0467  0.2831 -0.9578
   6423SM   C3S 8216   4.815   3.400   9.523 -0.0599  0.5949  0.5896
   6423SM   H3S 8217   4.882   3.488   9.521 -0.1305  0.6578  0.9869
   6423SM    O3 8218   4.760   3.410   9.652 -0.1253  0.1403 -0.1993
   6423SM   HO3 8219   4.819   3.351   9.700  0.9772  1.7149  0.4831
   6423SM   C4S 8220   4.703   3.414   9.424 -0.6460  0.3881 -0.3533
   6423SM   H4S 8221   4.641   3.326   9.404 -0.9863  0.6527 -0.4836
   6423SM   C5S 8222   4.683   3.519   9.347  0.1574 -0.5121 -0.2589
   6423SM   H5S 8223   4.747   3.608   9.347  0.7033 -0.8351 -2.7886
   6423SM   C6S 8224   4.577   3.527   9.243  0.1119 -0.4280  0.1553
   6423SM   H6S 8225   4.492   3.594   9.269  1.0419  0.4028  1.1731
   6423SM   H6T 8226   4.532   3.427   9.229 -1.7269  0.5541 -1.4399
   6423SM   C7S 8227   4.630   3.555   9.096 -0.4618  0.3454  0.0521
   6423SM   H7S 8228   4.709   3.482   9.069 -0.4674  1.1551 -2.3374
   6423SM   H7T 8229   4.683   3.653   9.088  0.7871 -0.0476  2.3846
   6423SM   C8S 8230   4.535   3.535   8.981  0.2054  0.5232  0.6488
   6423SM   H8S 8231   4.444   3.596   8.999  0.5555  1.4445 -0.5547
   6423SM   H8T 8232   4.507   3.428   8.974 -1.3173  0.9093  0.6488
   6423SM   C9S 8233   4.593   3.579   8.851  0.3966  0.3761  0.2153
   6423SM   H9S 8234   4.694   3.535   8.836  0.1458  0.1932 -1.0753
   6423SM   H9T 8235   4.616   3.688   8.849  0.6761  0.3761  2.0831
   6423SM  C10S 8236   4.498   3.539   8.740  0.1918 -0.0439 -0.5750
   6423SM  H10S 8237   4.411   3.608   8.745 -0.3809 -0.6029 -2.1365
   6423SM  H10T 8238   4.448   3.442   8.757  1.3342 -0.4360  0.7779
   6423SM  C11S 8239   4.561   3.553   8.596 -0.0103 -0.2278 -0.0769
   6423SM  H11S 8240   4.659   3.501   8.594  0.0049 -0.2025  0.0086
   6423SM  H11T 8241   4.580   3.660   8.570 -1.4374 -0.3718 -1.8479
   6423SM  C12S 8242   4.468   3.503   8.489  0.0137 -0.2402 -0.4108
   6423SM  H12S 8243   4.427   3.404   8.518 -0.1566 -0.2404 -0.6423
   6423SM  H12T 8244   4.519   3.501   8.390  0.4227 -0.2929 -0.1996
   6423SM  C13S 8245   4.349   3.596   8.482  0.2265 -0.7739  0.0878
   6423SM  H13S 8246   4.382   3.698   8.452  0.1793 -0.7159  0.2308
   6423SM  H13T 8247   4.300   3.603   8.582  2.0636  1.6857  0.9129
   6423SM  C14S 8248   4.231   3.547   8.396  0.3837 -0.5117  0.6191
   6423SM  H14S 8249   4.165   3.469   8.440 -1.6074 -0.1118 -1.4933
   6423SM  H14T 8250   4.267   3.524   8.294 -0.5611  3.1753 -0.6944
   6423SM  C15S 8251   4.124   3.666   8.376 -0.3125  0.1687  0.2170
   6423SM  H15S 8252   4.084   3.710   8.470 -1.6258  1.1926 -0.7760
   6423SM  H15T 8253   4.040   3.613   8.326  1.9384 -2.4863 -0.9912
   6423SM  C16S 8254   4.177   3.793   8.297 -0.5288 -0.0294 -0.6343
   6423SM  H16S 8255   4.239   3.856   8.365  2.1248 -1.7177 -1.3558
   6423SM  H16T 8256   4.085   3.847   8.265 -0.1081  1.2951  0.3042
   6423SM  C17S 8257   4.256   3.760   8.167  0.2097 -0.2344 -0.2448
   6423SM  H17S 8258   4.355   3.720   8.197  0.7695  1.1376 -0.1615
   6423SM  H17T 8259   4.288   3.855   8.120  1.1465 -1.3397 -1.9436
   6423SM  C18S 8260   4.178   3.673   8.069 -0.1206 -0.3444 -0.1684
   6423SM  H18S 8261   4.216   3.666   7.965 -0.3634 -3.3130 -0.1198
   6423SM  H18T 8262   4.082   3.724   8.047  1.2380  3.1550  1.2217
   6423SM  H18U 8263   4.162   3.570   8.107  0.7663 -0.1040  0.9317
   6423SM   C1F 8264   5.034   3.177   9.294 -0.1875  0.2796 -0.0832
   6423SM    OF 8265   5.029   3.063   9.342  0.2728  0.2571  0.2875
   6423SM   C2F 8266   5.115   3.202   9.167  0.2018 -0.0140 -0.3847
   6423SM   H2F 8267   5.186   3.118   9.155  0.7667  0.6081 -1.5761
   6423SM   H2G 8268   5.181   3.287   9.193 -0.5655  0.5341 -0.1912
   6423SM   C3F 8269   5.018   3.216   9.044  0.2501 -0.6459 -0.1025
   6423SM   H3F 8270   4.961   3.310   9.059 -0.2577 -0.9323 -0.2204
   6423SM   H3G 8271   4.954   3.126   9.039 -1.5218  0.5864 -0.6244
   6423SM   C4F 8272   5.095   3.225   8.914 -0.0259  0.6601  0.0237
   6423SM   H4F 8273   5.155   3.137   8.883 -0.9606  0.1016 -0.2474
   6423SM   H4G 8274   5.156   3.318   8.924 -0.2522  0.6461  1.9606
   6423SM   C5F 8275   4.993   3.245   8.812  0.3539  0.2420  0.3010
   6423SM   H5F 8276   4.932   3.334   8.838 -1.6309 -1.0767  0.2957
   6423SM   H5G 8277   4.925   3.158   8.814 -0.1194  0.5068  4.5505
   6423SM   C6F 8278   5.049   3.255   8.666 -0.0996  0.0697  0.9536
   6423SM   H6F 8279   5.088   3.151   8.663 -0.8225 -0.1790 -1.3379
   6423SM   H6G 8280   5.122   3.338   8.650 -1.1954  1.7953  4.0542
   6423SM   C7F 8281   4.943   3.279   8.561 -0.0707 -0.4762  0.6709
   6423SM   H7F 8282   4.896   3.374   8.593  1.7705  1.9060 -2.9988
   6423SM   H7G 8283   4.867   3.198   8.565  0.9833 -1.5486 -0.1834
   6423SM   C8F 8284   4.986   3.279   8.414 -0.2115  0.2732  0.7056
   6423SM   H8F 8285   5.022   3.177   8.386  1.7110  1.6634 -2.4824
   6423SM   H8G 8286   5.079   3.340   8.405  0.7855 -0.9701  2.0119
   6423SM   C9F 8287   4.881   3.330   8.321  0.0162  0.0172  0.2343
   6423SM   H9F 8288   4.839   3.427   8.356 -0.0029 -0.1563  0.7020
   6423SM   H9G 8289   4.792   3.264   8.324 -0.2542  0.4209  1.5367
   6423SM  C10F 8290   4.918   3.336   8.170  0.3768  0.2662 -0.2759
   6423SM  H10F 8291   4.923   3.228   8.145  0.7511 -0.2596  1.8510
   6423SM  H10G 8292   5.015   3.387   8.152 -1.0083  2.0918 -3.3558
   6423SM  C11F 8293   4.808   3.389   8.081  0.2793 -0.0141 -0.9809
   6423SM  H11F 8294   4.774   3.480   8.137  3.8794 -0.3365  2.1357
   6423SM  H11G 8295   4.715   3.331   8.061 -0.3572  0.6018  0.0841
   6423SM  C12F 8296   4.868   3.430   7.946 -0.0744  0.4330  0.3866
   6423SM  H12F 8297   4.950   3.354   7.935 -1.4178 -1.7341  3.7338
   6423SM  H12G 8298   4.916   3.529   7.958 -0.7369  0.8218 -0.1763
   6423SM  C13F 8299   4.765   3.418   7.834  0.6787  0.4957 -0.8503
   6423SM  H13F 8300   4.724   3.315   7.842  2.3919 -0.2038 -0.6563
   6423SM  H13G 8301   4.825   3.427   7.742  0.3909 -1.4682 -1.2699
   6423SM  C14F 8302   4.650   3.506   7.846  0.4700 -0.4970 -0.3459
   6423SM  H14F 8303   4.690   3.609   7.830 -1.0930  0.4114  1.2097
   6423SM  H14G 8304   4.601   3.499   7.945 -0.5530  0.0194 -0.8020
   6423SM  C15F 8305   4.563   3.483   7.723 -0.0361 -1.2426  0.4336
   6423SM  H15F 8306   4.529   3.378   7.711  0.5242 -1.1911 -2.2467
   6423SM  H15G 8307   4.621   3.510   7.633 -2.7370  1.3301 -0.6937
   6423SM  C16F 8308   4.423   3.563   7.728 -0.6977  0.6467 -0.4970
   6423SM  H16F 8309   4.449   3.666   7.694 -1.5992  0.7100 -1.0528
   6423SM  H16G 8310   4.392   3.573   7.834  1.6407 -2.0503  0.5562
   6423SM  C17F 8311   4.306   3.507   7.642  0.2019  0.0379 -0.5124
   6423SM  H17F 8312   4.286   3.403   7.677  1.7097  0.2263  1.0114
   6423SM  H17G 8313   4.336   3.503   7.535 -0.6538  0.1687 -0.7638
   6423SM  C18F 8314   4.173   3.599   7.661 -0.9896  0.8025  0.1190
   6423SM  H18F 8315   4.193   3.707   7.672 -1.2811  0.9446 -0.6962
   6423SM  H18G 8316   4.123   3.575   7.757  1.4550 -0.6142  1.1434
   6423SM  C19F 8317   4.071   3.554   7.555  0.3685 -0.4563 -0.1548
   6423SM  H19F 8318   4.054   3.444   7.553  0.3783 -0.4788  0.5949
   6423SM  H19G 8319   4.097   3.577   7.449 -0.3826 -1.4082 -0.5630
   6423SM  C20F 8320   3.932   3.620   7.569  0.3281 -0.2059 -0.1832
   6423SM  H20F 8321   3.939   3.729   7.553 -1.1482 -0.0008  0.3997
   6423SM  H20G 8322   3.917   3.621   7.679 -1.7997  1.8192 -0.4292
   6423SM  C21F 8323   3.811   3.547   7.523 -0.0056  0.3737  0.0594
   6423SM  H21F 8324   3.737   3.549   7.606 -0.4444 -1.5109 -0.2301
   6423SM  H21G 8325   3.830   3.438   7.517 -2.8401 -0.1934  0.0892
   6423SM  C22F 8326   3.735   3.610   7.408  0.3515 -0.3419  0.1615
   6423SM  H22F 8327   3.798   3.628   7.318  1.8574 -0.1458  1.2151
   6423SM  H22G 8328   3.688   3.708   7.430 -0.9947 -0.6256 -1.2273
   6423SM  C23F 8329   3.612   3.524   7.381 -0.5971 -0.5446  0.7022
   6423SM  H23F 8330   3.564   3.549   7.284  0.1597 -1.7325 -0.0067
   6423SM  H23G 8331   3.543   3.535   7.467 -0.6310  0.5322  0.5538
   6423SM  H23H 8332   3.643   3.417   7.383  0.0839 -0.4412 -1.3892
   6523SM     N 8333   5.289   3.564   9.720  0.0553 -0.6431  0.6892
   6523SM   C15 8334   5.338   3.648   9.836 -0.1960  0.5263 -0.5405
   6523SM  H15A 8335   5.432   3.605   9.865 -1.5351 -1.1251  1.6679
   6523SM  H15B 8336   5.265   3.657   9.915 -1.7471  2.1946 -2.0377
   6523SM  H15C 8337   5.369   3.747   9.804 -0.3950  2.1151  3.5764
   6523SM   C14 8338   5.376   3.577   9.595 -0.2820 -0.2012 -0.4219
   6523SM  H14A 8339   5.400   3.682   9.583  0.9446 -0.6725 -2.7851
   6523SM  H14B 8340   5.324   3.529   9.514 -1.6797 -2.3987  1.6719
   6523SM  H14C 8341   5.466   3.518   9.604  0.6134  1.2059  0.3550
   6523SM   C13 8342   5.300   3.419   9.762  0.2942  0.2385 -0.3761
   6523SM  H13A 8343   5.273   3.420   9.867 -2.7590  2.6419 -1.0435
   6523SM  H13B 8344   5.399   3.377   9.750 -0.0091 -0.4465 -0.5408
   6523SM  H13C 8345   5.229   3.361   9.706 -0.4358 -0.2102  0.9493
   6523SM   C12 8346   5.152   3.605   9.683  0.8498  0.0038 -0.0840
   6523SM  H12A 8347   5.118   3.551   9.595  0.6455  0.8980 -0.5720
   6523SM  H12B 8348   5.159   3.707   9.649  2.2762 -0.5679 -1.6400
   6523SM   C11 8349   5.041   3.604   9.792  0.3834 -0.1157 -0.1863
   6523SM  H11A 8350   5.035   3.499   9.828 -1.1385 -0.3514 -0.9994
   6523SM  H11B 8351   4.937   3.630   9.761 -0.1464 -0.6069  1.1151
   6523SM     P 8352   5.057   3.857   9.881  0.0391  0.7854 -0.1573
   6523SM   O13 8353   4.935   3.889   9.952  0.3803 -0.5165 -0.2153
   6523SM   O14 8354   5.179   3.929   9.923 -0.1424 -0.1304  0.1691
   6523SM   O11 8355   5.032   3.874   9.724 -0.5250 -0.1432  0.5068
   6523SM   O12 8356   5.078   3.697   9.897  0.8068  0.3142  0.3147
   6523SM   C1S 8357   4.971   4.008   9.696 -0.4895  0.1144 -0.7964
   6523SM   H1S 8358   5.053   4.083   9.701 -0.5128  0.0643  0.6250
   6523SM   H1T 8359   4.894   4.035   9.771  1.8529  0.1549  1.7444
   6523SM    NF 8360   4.840   4.162   9.562  0.4695 -0.2211  0.3772
   6523SM   HNF 8361   4.742   4.166   9.582  0.2446 -0.4183 -0.6791
   6523SM   C2S 8362   4.909   4.037   9.556 -0.4890  0.3026  0.7777
   6523SM   H2S 8363   4.989   4.049   9.479 -1.6895  2.9664 -0.1892
   6523SM   C3S 8364   4.814   3.918   9.514 -0.2115  0.0115 -0.3320
   6523SM   H3S 8365   4.736   3.921   9.593 -0.3746  2.3054 -0.5098
   6523SM    O3 8366   4.878   3.791   9.546  0.3191  0.3300  0.4200
   6523SM   HO3 8367   4.937   3.810   9.619 -2.3806  0.5258  2.7755
   6523SM   C4S 8368   4.753   3.921   9.377 -0.7591 -0.6216  0.5326
   6523SM   H4S 8369   4.826   3.912   9.295 -0.5054  0.2863  0.6386
   6523SM   C5S 8370   4.620   3.910   9.350 -0.0313  0.0469  0.9483
   6523SM   H5S 8371   4.545   3.916   9.431 -0.4542 -0.9149  0.6474
   6523SM   C6S 8372   4.567   3.898   9.215  0.0725 -0.7818 -0.8148
   6523SM   H6S 8373   4.476   3.961   9.224  0.3837 -0.3972 -0.3422
   6523SM   H6T 8374   4.530   3.795   9.193  0.2290 -0.8864 -0.5824
   6523SM   C7S 8375   4.650   3.959   9.096 -0.2984 -0.1377 -0.1471
   6523SM   H7S 8376   4.744   3.902   9.085 -1.1925 -1.6237 -0.2893
   6523SM   H7T 8377   4.672   4.062   9.132 -0.8059 -0.4298  1.0745
   6523SM   C8S 8378   4.555   3.969   8.976  0.3969  0.5488 -0.1738
   6523SM   H8S 8379   4.472   4.039   9.003 -0.6747  0.1345 -2.1925
   6523SM   H8T 8380   4.502   3.875   8.951 -0.7920  1.3164 -0.6961
   6523SM   C9S 8381   4.630   4.011   8.857 -0.0028 -0.1127 -0.0337
   6523SM   H9S 8382   4.699   3.926   8.836 -0.3691 -0.5576  0.5419
   6523SM   H9T 8383   4.694   4.102   8.868  0.7250 -0.6025 -0.1320
   6523SM  C10S 8384   4.540   4.025   8.735  0.3315  0.1734  0.6274
   6523SM  H10S 8385   4.452   4.088   8.762  0.4284 -0.6700  3.1580
   6523SM  H10T 8386   4.507   3.920   8.719  0.4186 -0.0343  1.7742
   6523SM  C11S 8387   4.610   4.074   8.608 -1.0001 -0.1155  0.1481
   6523SM  H11S 8388   4.699   4.010   8.589  0.3835  1.4154  1.1939
   6523SM  H11T 8389   4.661   4.173   8.619  2.1686 -1.5520 -0.4108
   6523SM  C12S 8390   4.518   4.085   8.480  0.2230  0.8466  0.1484
   6523SM  H12S 8391   4.444   4.167   8.494  1.5509  2.3005 -0.9507
   6523SM  H12T 8392   4.462   3.989   8.479 -1.5747  1.7835  2.1330
   6523SM  C13S 8393   4.590   4.102   8.348 -0.2410 -0.2978 -0.1030
   6523SM  H13S 8394   4.638   4.202   8.354  1.1992 -1.0214  0.8025
   6523SM  H13T 8395   4.517   4.121   8.267 -1.6286 -0.3671  1.0808
   6523SM  C14S 8396   4.692   3.997   8.300  0.1100  1.1989 -0.6538
   6523SM  H14S 8397   4.627   3.908   8.287  1.4993 -0.1746  1.3593
   6523SM  H14T 8398   4.773   3.973   8.372 -0.5926  0.2219 -0.1636
   6523SM  C15S 8399   4.749   4.022   8.158  0.9122  0.1313  0.9834
   6523SM  H15S 8400   4.859   4.012   8.144  0.9310  0.8789  0.5022
   6523SM  H15T 8401   4.727   4.129   8.134 -2.0736 -0.8484 -1.2782
   6523SM  C16S 8402   4.680   3.947   8.042  0.3671 -0.3900 -0.2471
   6523SM  H16S 8403   4.701   3.839   8.047  2.1348 -0.0142  2.6276
   6523SM  H16T 8404   4.720   3.981   7.944 -0.2632 -2.2401 -1.1933
   6523SM  C17S 8405   4.525   3.966   8.026 -0.4538  0.1175 -0.1543
   6523SM  H17S 8406   4.507   4.074   8.009 -2.6613 -0.3482 -1.0619
   6523SM  H17T 8407   4.478   3.945   8.124  0.7852  1.5267  0.7801
   6523SM  C18S 8408   4.460   3.889   7.915 -0.6655 -0.2161 -0.2973
   6523SM  H18S 8409   4.528   3.891   7.827 -1.3196 -1.2215 -0.8478
   6523SM  H18T 8410   4.359   3.924   7.887 -0.0889  2.2433  0.4595
   6523SM  H18U 8411   4.456   3.782   7.947 -0.6210  0.0599  0.6449
   6523SM   C1F 8412   4.900   4.282   9.592 -0.8985  0.1673  0.3375
   6523SM    OF 8413   5.026   4.297   9.575  0.2808  0.2044  0.7154
   6523SM   C2F 8414   4.816   4.385   9.644 -0.5188 -0.3050 -0.3893
   6523SM   H2F 8415   4.877   4.445   9.714  2.1676  0.5420 -3.2030
   6523SM   H2G 8416   4.733   4.333   9.695 -2.0666  1.4559 -0.9928
   6523SM   C3F 8417   4.741   4.476   9.545 -0.0416  0.1504  0.5112
   6523SM   H3F 8418   4.803   4.547   9.486  0.6725 -0.1657  0.8609
   6523SM   H3G 8419   4.673   4.537   9.609  0.6534 -0.8087  2.2476
   6523SM   C4F 8420   4.652   4.392   9.449 -0.4026  0.6662  0.0483
   6523SM   H4F 8421   4.595   4.322   9.513 -0.6891  1.7859  1.0450
   6523SM   H4G 8422   4.726   4.346   9.380 -0.5997 -1.2206  1.0322
   6523SM   C5F 8423   4.547   4.466   9.378  0.7521 -0.9592 -0.0483
   6523SM   H5F 8424   4.589   4.565   9.348 -0.8934 -0.8147 -2.0876
   6523SM   H5G 8425   4.470   4.492   9.454  1.4591 -1.9962  1.0663
   6523SM   C6F 8426   4.498   4.388   9.260  0.4205 -0.2717 -0.2249
   6523SM   H6F 8427   4.405   4.434   9.221 -1.0501 -1.7945  1.3003
   6523SM   H6G 8428   4.470   4.284   9.286 -0.0295  0.2884  1.7295
   6523SM   C7F 8429   4.595   4.393   9.147 -0.3062  0.1182  0.3510
   6523SM   H7F 8430   4.677   4.321   9.164  0.5602  0.9105 -0.3755
   6523SM   H7G 8431   4.634   4.497   9.145  1.6269 -0.5229  2.0844
   6523SM   C8F 8432   4.548   4.375   8.992  0.4733  0.4466 -0.2794
   6523SM   H8F 8433   4.501   4.275   8.980 -0.1850  0.5510  1.1795
   6523SM   H8G 8434   4.643   4.379   8.936  0.7134  0.4981  0.1302
   6523SM   C9F 8435   4.449   4.479   8.941 -0.5173 -0.4347 -0.2943
   6523SM   H9F 8436   4.490   4.580   8.962  0.6061 -0.9167 -0.1049
   6523SM   H9G 8437   4.358   4.464   9.003 -1.0657  0.3702 -0.9059
   6523SM  C10F 8438   4.403   4.462   8.797  0.3001  0.4039  0.1780
   6523SM  H10F 8439   4.334   4.548   8.782  0.2142  0.5043  1.0606
   6523SM  H10G 8440   4.346   4.368   8.782 -0.4443  0.9276 -0.3727
   6523SM  C11F 8441   4.521   4.459   8.704 -0.7824  0.5923 -0.0695
   6523SM  H11F 8442   4.585   4.372   8.731 -1.4947  0.0032 -0.2491
   6523SM  H11G 8443   4.589   4.544   8.724 -0.2816  0.7012 -2.1141
   6523SM  C12F 8444   4.478   4.483   8.561 -0.2173  0.2623  0.5028
   6523SM  H12F 8445   4.430   4.583   8.552  1.5916  1.3597  2.1103
   6523SM  H12G 8446   4.399   4.408   8.542  0.6920 -0.7017  0.4532
   6523SM  C13F 8447   4.588   4.463   8.457 -0.2128 -1.2414  0.0629
   6523SM  H13F 8448   4.650   4.372   8.478  1.4278 -0.6945 -2.1285
   6523SM  H13G 8449   4.663   4.545   8.452  0.1163 -1.4890  0.7004
   6523SM  C14F 8450   4.519   4.441   8.317  0.2798  0.0145  0.1566
   6523SM  H14F 8451   4.451   4.527   8.302  0.1488  0.0266  0.7668
   6523SM  H14G 8452   4.462   4.346   8.319  1.6220 -0.8849 -1.9539
   6523SM  C15F 8453   4.626   4.450   8.202 -0.3109  0.7115  0.5539
   6523SM  H15F 8454   4.698   4.367   8.222 -0.8938 -0.0331 -0.3835
   6523SM  H15G 8455   4.672   4.549   8.224  1.7005 -0.2562  0.9909
   6523SM  C16F 8456   4.567   4.430   8.061 -0.1771  0.0048 -0.3293
   6523SM  H16F 8457   4.475   4.493   8.061  0.8109  1.5426  1.2005
   6523SM  H16G 8458   4.530   4.328   8.039 -2.2339  0.3646  1.1806
   6523SM  C17F 8459   4.663   4.469   7.951 -0.3644 -0.3666 -0.0361
   6523SM  H17F 8460   4.692   4.574   7.973 -0.8814 -0.3053  0.3740
   6523SM  H17G 8461   4.626   4.470   7.846  0.2000 -1.3930 -0.2551
   6523SM  C18F 8462   4.788   4.379   7.956  0.3519  0.5192 -0.4562
   6523SM  H18F 8463   4.753   4.274   7.941  2.1837 -0.1908 -0.0508
   6523SM  H18G 8464   4.827   4.396   8.059  3.5631  0.0867 -1.4681
   6523SM  C19F 8465   4.897   4.420   7.860 -0.7822 -0.5737 -0.0826
   6523SM  H19F 8466   4.996   4.375   7.885  0.1677 -0.6622 -3.4431
   6523SM  H19G 8467   4.919   4.528   7.873 -0.5963 -0.4646 -1.1730
   6523SM  C20F 8468   4.871   4.403   7.709  0.5652  0.8472 -0.0601
   6523SM  H20F 8469   4.777   4.459   7.691 -1.9468 -2.8074  0.5554
   6523SM  H20G 8470   4.842   4.297   7.689  1.4299  0.5661  0.1041
   6523SM  C21F 8471   4.996   4.451   7.633  0.2041 -0.0546 -0.2164
   6523SM  H21F 8472   5.076   4.379   7.659 -0.3503 -0.0573  1.6214
   6523SM  H21G 8473   5.036   4.543   7.680 -0.0343 -0.2918  0.4486
   6523SM  C22F 8474   4.984   4.465   7.480  0.6056 -0.2418  0.0185
   6523SM  H22F 8475   4.904   4.540   7.464  0.6194  0.0856  1.3157
   6523SM  H22G 8476   4.949   4.371   7.434 -0.3546 -0.8274  1.8294
   6523SM  C23F 8477   5.113   4.520   7.418 -0.6388 -0.4888 -0.1197
   6523SM  H23F 8478   5.099   4.531   7.308 -1.2129  1.4397  0.1225
   6523SM  H23G 8479   5.198   4.451   7.438 -1.1935 -0.7428  1.4357
   6523SM  H23H 8480   5.128   4.618   7.467  0.8577 -0.6622 -0.1700
   6623SM     N 8481   3.387   1.566  10.363  0.2528 -0.3548  0.2646
   6623SM   C15 8482   3.440   1.464  10.457  0.3495  0.5111  0.8222
   6623SM  H15A 8483   3.366   1.395  10.496  0.2707 -1.4305 -2.4110
   6623SM  H15B 8484   3.486   1.506  10.546  1.1940  0.4647  0.4222
   6623SM  H15C 8485   3.518   1.410  10.406 -1.6793  1.0604 -3.2459
   6623SM   C14 8486   3.260   1.631  10.424  0.8441 -0.3214  0.2640
   6623SM  H14A 8487   3.269   1.622  10.532  2.0603 -1.0698  0.1259
   6623SM  H14B 8488   3.180   1.564  10.396 -0.6163  1.3630  0.2285
   6623SM  H14C 8489   3.245   1.727  10.378  0.1247 -1.0206 -1.0181
   6623SM   C13 8490   3.487   1.674  10.344 -0.2469  0.0192 -0.5853
   6623SM  H13A 8491   3.574   1.650  10.286  0.9229 -1.3525  1.5819
   6623SM  H13B 8492   3.529   1.714  10.436  2.8302 -1.5770 -1.1873
   6623SM  H13C 8493   3.446   1.757  10.288  0.2749  1.0535  0.5258
   6623SM   C12 8494   3.348   1.512  10.227 -0.1044 -0.7622 -0.2423
   6623SM  H12A 8495   3.274   1.436  10.244 -0.7947 -0.0305  0.0769
   6623SM  H12B 8496   3.435   1.461  10.189  0.7426 -0.3846  1.1128
   6623SM   C11 8497   3.295   1.602  10.117  0.3763  0.2383 -0.2238
   6623SM  H11A 8498   3.287   1.540  10.026 -0.6099 -3.4128  2.1468
   6623SM  H11B 8499   3.363   1.687  10.097  0.6624  0.2118  0.5817
   6623SM     P 8500   3.111   1.791  10.143  0.0238  0.1638 -0.0570
   6623SM   O13 8501   2.977   1.791  10.206  0.0743 -0.0588 -0.4982
   6623SM   O14 8502   3.220   1.879  10.194 -0.6693 -0.2529 -0.1112
   6623SM   O11 8503   3.090   1.805   9.988 -0.3441  0.2341  0.1760
   6623SM   O12 8504   3.164   1.644  10.154  0.5318  0.0938 -0.4700
   6623SM   C1S 8505   3.066   1.712   9.885 -0.3221 -0.3799 -0.1899
   6623SM   H1S 8506   2.977   1.652   9.912 -1.8919  1.7457 -0.4277
   6623SM   H1T 8507   3.152   1.644   9.870 -0.0298 -0.2874  0.9299
   6623SM    NF 8508   2.970   1.708   9.639 -0.8735  0.1005  0.1841
   6623SM   HNF 8509   3.030   1.690   9.561  2.8181  1.7386  2.3815
   6623SM   C2S 8510   3.031   1.787   9.746 -0.4314  0.1304  0.8577
   6623SM   H2S 8511   2.966   1.873   9.771  0.1219  0.7972  0.0614
   6623SM   C3S 8512   3.156   1.853   9.694  0.5461  0.2209  0.7831
   6623SM   H3S 8513   3.219   1.775   9.649  1.1906 -0.0236  2.0697
   6623SM    O3 8514   3.228   1.923   9.794 -0.5287 -0.3827  0.0807
   6623SM   HO3 8515   3.184   1.894   9.874  0.6213  1.3105  1.4093
   6623SM   C4S 8516   3.136   1.942   9.572  0.0027 -0.3388  0.4761
   6623SM   H4S 8517   3.134   1.890   9.475 -0.5096 -1.2447  0.9682
   6623SM   C5S 8518   3.118   2.077   9.579  0.1161  0.1923  0.3082
   6623SM   H5S 8519   3.112   2.138   9.669  0.5206  0.9990 -0.2039
   6623SM   C6S 8520   3.104   2.162   9.457 -0.5905 -0.4479  1.1867
   6623SM   H6S 8521   3.196   2.225   9.454 -0.7479 -0.2627 -0.5445
   6623SM   H6T 8522   3.025   2.239   9.471 -1.1283 -0.8025  0.1775
   6623SM   C7S 8523   3.090   2.098   9.318  0.6396 -0.1286  0.1937
   6623SM   H7S 8524   2.988   2.054   9.321  0.7570 -0.4885 -0.6662
   6623SM   H7T 8525   3.170   2.027   9.287 -1.8394 -2.3199 -1.5376
   6623SM   C8S 8526   3.074   2.201   9.205 -0.1156 -0.5528 -0.2739
   6623SM   H8S 8527   3.167   2.260   9.188 -0.8129  0.6528 -0.0134
   6623SM   H8T 8528   3.001   2.281   9.230 -1.2300 -1.2365 -1.2048
   6623SM   C9S 8529   3.027   2.134   9.072  0.4569 -0.3004 -0.1048
   6623SM   H9S 8530   2.916   2.132   9.074  0.3171  2.7642  1.9474
   6623SM   H9T 8531   3.072   2.035   9.050  1.1321 -0.0010 -0.0720
   6623SM  C10S 8532   3.070   2.217   8.947 -0.0811  0.4335  0.1197
   6623SM  H10S 8533   3.180   2.205   8.944 -0.0721  0.5297 -2.9305
   6623SM  H10T 8534   3.037   2.321   8.969 -0.1844  0.7479 -1.4675
   6623SM  C11S 8535   3.001   2.176   8.819  0.2913  0.6960  0.2187
   6623SM  H11S 8536   2.893   2.200   8.829  0.7688  2.8919  0.6461
   6623SM  H11T 8537   3.009   2.066   8.808 -0.7133  0.4448  1.6379
   6623SM  C12S 8538   3.035   2.268   8.699 -0.2528 -0.0636  0.0767
   6623SM  H12S 8539   3.141   2.276   8.667 -0.7742  0.7083 -1.5781
   6623SM  H12T 8540   2.997   2.372   8.709 -1.4925 -0.3090 -1.5495
   6623SM  C13S 8541   2.978   2.218   8.564  0.4523  0.2288  0.0320
   6623SM  H13S 8542   2.868   2.228   8.577  0.8372  3.6371  1.6776
   6623SM  H13T 8543   2.996   2.109   8.548 -1.0146 -0.3240  1.6830
   6623SM  C14S 8544   3.015   2.295   8.441  0.5335 -1.2578  0.7828
   6623SM  H14S 8545   3.124   2.302   8.423  0.4555 -0.1132  0.6724
   6623SM  H14T 8546   2.985   2.398   8.470  1.2952 -1.3379  1.9012
   6623SM  C15S 8547   2.945   2.246   8.318 -0.1908 -0.3456 -0.3909
   6623SM  H15S 8548   2.836   2.247   8.337 -0.1993  0.4363 -0.4280
   6623SM  H15T 8549   2.977   2.141   8.303  2.8649  0.4105 -0.0337
   6623SM  C16S 8550   2.983   2.320   8.196  0.2876  0.5880 -0.9074
   6623SM  H16S 8551   3.093   2.323   8.185  0.3267 -0.5343 -0.9363
   6623SM  H16T 8552   2.942   2.423   8.208  0.7831  0.7147 -0.2154
   6623SM  C17S 8553   2.929   2.253   8.065  0.4305  0.0074 -0.3648
   6623SM  H17S 8554   2.818   2.243   8.066  0.2796  0.9230  2.9437
   6623SM  H17T 8555   2.975   2.152   8.067  0.6121 -0.0872 -3.5466
   6623SM  C18S 8556   2.975   2.320   7.943 -0.5049  0.2355  0.6301
   6623SM  H18S 8557   2.928   2.420   7.934  0.4110  0.5308 -1.2640
   6623SM  H18T 8558   2.948   2.276   7.845 -2.1359 -0.3418  1.2992
   6623SM  H18U 8559   3.082   2.351   7.950 -0.0549 -1.2891  0.7772
   6623SM   C1F 8560   2.841   1.678   9.638  0.7690 -0.2694  0.1501
   6623SM    OF 8561   2.766   1.682   9.739  0.2550 -0.0019  0.2813
   6623SM   C2F 8562   2.782   1.647   9.503  0.6863 -1.1239  0.1892
   6623SM   H2F 8563   2.671   1.651   9.513  0.7031 -3.0962  1.9460
   6623SM   H2G 8564   2.809   1.542   9.479 -1.7301 -1.6564 -0.5352
   6623SM   C3F 8565   2.827   1.746   9.388  0.0559  0.2318 -0.1836
   6623SM   H3F 8566   2.937   1.748   9.378 -0.1225  0.5145 -2.9150
   6623SM   H3G 8567   2.792   1.849   9.411  0.4102  0.0454  1.3156
   6623SM   C4F 8568   2.766   1.715   9.256  0.3235  0.7812  0.3860
   6623SM   H4F 8569   2.656   1.701   9.252  0.3700  0.5702 -0.1792
   6623SM   H4G 8570   2.805   1.620   9.214 -1.2146  0.4397 -0.3447
   6623SM   C5F 8571   2.796   1.832   9.160 -0.8672  0.4128 -0.6716
   6623SM   H5F 8572   2.905   1.853   9.154 -0.8254  0.0429 -1.3326
   6623SM   H5G 8573   2.752   1.929   9.192 -0.7811  0.7153 -1.4481
   6623SM   C6F 8574   2.733   1.801   9.020  0.0777 -0.1692  0.6197
   6623SM   H6F 8575   2.623   1.790   9.032 -0.1959  1.4397 -0.0868
   6623SM   H6G 8576   2.770   1.701   8.990  1.1337 -0.4667  2.7573
   6623SM   C7F 8577   2.773   1.900   8.910  0.0271  0.6387 -0.1018
   6623SM   H7F 8578   2.883   1.912   8.916  0.1768 -0.9058  0.8597
   6623SM   H7G 8579   2.717   1.996   8.917 -1.8982 -0.4992  1.0213
   6623SM   C8F 8580   2.747   1.836   8.777 -0.0444 -0.5551 -0.6650
   6623SM   H8F 8581   2.660   1.766   8.787  0.9583 -1.6430  0.8335
   6623SM   H8G 8582   2.835   1.776   8.746  2.4371  1.8538  1.2868
   6623SM   C9F 8583   2.711   1.941   8.668 -0.0574 -0.2279 -0.7662
   6623SM   H9F 8584   2.797   2.012   8.667  1.3454 -1.8159  0.5780
   6623SM   H9G 8585   2.611   1.983   8.690 -0.7850 -0.5418 -3.2092
   6623SM  C10F 8586   2.696   1.874   8.530 -0.0044  0.4919  0.2271
   6623SM  H10F 8587   2.654   1.771   8.532  2.4355 -0.5914 -0.5451
   6623SM  H10G 8588   2.798   1.855   8.492 -1.0501 -1.2446 -1.9489
   6623SM  C11F 8589   2.615   1.948   8.429 -0.3788  0.5485  0.2685
   6623SM  H11F 8590   2.611   2.053   8.466  1.5236  0.3537  1.1794
   6623SM  H11G 8591   2.509   1.922   8.409 -0.7747  3.5605 -2.5254
   6623SM  C12F 8592   2.676   1.940   8.284  0.1450 -0.4319  0.2169
   6623SM  H12F 8593   2.689   1.832   8.264  2.2787  0.0076 -1.1118
   6623SM  H12G 8594   2.775   1.990   8.287 -0.7467  1.3949  0.3140
   6623SM  C13F 8595   2.605   2.006   8.164 -0.0832 -0.0580  0.1430
   6623SM  H13F 8596   2.607   2.117   8.177 -2.6075  0.1750 -0.8717
   6623SM  H13G 8597   2.503   1.963   8.168  0.2602 -0.7666  2.3861
   6623SM  C14F 8598   2.670   1.956   8.027 -0.3785  0.3579 -0.0231
   6623SM  H14F 8599   2.656   1.846   8.021 -0.6252  0.4049 -0.3391
   6623SM  H14G 8600   2.777   1.981   8.039 -0.7018  1.4820  0.6070
   6623SM  C15F 8601   2.580   2.018   7.910 -0.5209  0.4503  0.2851
   6623SM  H15F 8602   2.591   2.128   7.896 -2.3803  0.6803  0.3272
   6623SM  H15G 8603   2.472   1.997   7.927 -0.2959 -0.1856  0.9870
   6623SM  C16F 8604   2.608   1.949   7.774  0.1158 -0.7156  0.1756
   6623SM  H16F 8605   2.603   1.838   7.783  0.2060 -0.8001 -0.6749
   6623SM  H16G 8606   2.709   1.975   7.735  0.2561 -3.3171 -1.4849
   6623SM  C17F 8607   2.507   1.992   7.662 -0.3206 -1.0097  1.0586
   6623SM  H17F 8608   2.510   2.103   7.648 -1.0391 -0.8880  1.7751
   6623SM  H17G 8609   2.409   1.948   7.690  0.0584 -2.6886 -0.1272
   6623SM  C18F 8610   2.529   1.928   7.524  0.2531 -0.2261  0.0113
   6623SM  H18F 8611   2.531   1.817   7.529 -3.0417 -0.3701 -0.0493
   6623SM  H18G 8612   2.632   1.950   7.487 -0.2761 -0.5129 -1.6825
   6623SM  C19F 8613   2.426   1.977   7.419 -0.5465  0.1110  0.1090
   6623SM  H19F 8614   2.329   1.926   7.433 -1.4190  0.7262 -3.1084
   6623SM  H19G 8615   2.463   1.932   7.325 -0.0905 -0.3181  0.4835
   6623SM  C20F 8616   2.410   2.133   7.407 -0.3997  0.5365  0.4982
   6623SM  H20F 8617   2.503   2.179   7.446  0.4444  1.0082 -1.9056
   6623SM  H20G 8618   2.335   2.184   7.470  0.2487  0.5450  1.2799
   6623SM  C21F 8619   2.400   2.186   7.263 -0.3194  0.4630  0.6812
   6623SM  H21F 8620   2.483   2.152   7.199 -1.9602 -1.6378 -0.4376
   6623SM  H21G 8621   2.401   2.297   7.266  1.1344  0.5217 -0.7406
   6623SM  C22F 8622   2.269   2.134   7.193 -0.4632  0.2791  0.3169
   6623SM  H22F 8623   2.268   2.024   7.186 -1.6466  0.2238  1.0552
   6623SM  H22G 8624   2.279   2.167   7.087 -1.4657 -1.2176 -0.2784
   6623SM  C23F 8625   2.135   2.178   7.232 -0.2170 -0.7653  0.4602
   6623SM  H23F 8626   2.085   2.108   7.302 -2.0398 -1.0467 -1.0292
   6623SM  H23G 8627   2.075   2.178   7.138 -2.6417 -0.7747  1.9299
   6623SM  H23H 8628   2.134   2.278   7.281 -1.3639 -1.0149  0.9881
   6723SM     N 8629   2.701   5.986  10.602 -0.2389  0.0321  0.7951
   6723SM   C15 8630   2.713   6.126  10.544  0.6712  0.1380 -0.2762
   6723SM  H15A 8631   2.658   6.129  10.452 -0.4206  0.6097  0.3694
   6723SM  H15B 8632   2.818   6.149  10.538  0.9965  0.5264  3.8839
   6723SM  H15C 8633   2.666   6.193  10.615 -1.2823 -1.1581 -0.2504
   6723SM   C14 8634   2.731   5.982  10.747  0.3540 -0.0029  0.1964
   6723SM  H14A 8635   2.837   6.000  10.763  0.5898  0.3199 -1.5098
   6723SM  H14B 8636   2.697   5.887  10.787 -1.9386  0.1729 -1.1978
   6723SM  H14C 8637   2.674   6.058  10.797 -0.3040  1.0503 -2.0278
   6723SM   C13 8638   2.564   5.940  10.574 -0.3681  0.3641  0.2048
   6723SM  H13A 8639   2.535   5.843  10.612  2.3952 -1.1277 -1.1940
   6723SM  H13B 8640   2.549   5.935  10.467  0.8975 -1.1114  0.0542
   6723SM  H13C 8641   2.489   6.005  10.616 -0.9143  0.9072 -1.5297
   6723SM   C12 8642   2.794   5.888  10.527 -0.0783 -0.6792  0.3384
   6723SM  H12A 8643   2.777   5.795  10.577  1.5003 -2.1671 -1.6982
   6723SM  H12B 8644   2.897   5.910  10.552 -0.4540  1.5227  0.2169
   6723SM   C11 8645   2.793   5.870  10.371 -0.5101  0.5503  0.0840
   6723SM  H11A 8646   2.880   5.808  10.340 -1.7769 -0.9190 -0.6507
   6723SM  H11B 8647   2.798   5.971  10.325 -0.1868  0.3759 -0.2674
   6723SM     P 8648   2.668   5.653  10.327 -0.3533 -0.1568 -0.0634
   6723SM   O13 8649   2.795   5.585  10.374  0.0529 -1.0678 -0.2110
   6723SM   O14 8650   2.543   5.611  10.385 -0.2948 -0.2271 -0.9047
   6723SM   O11 8651   2.651   5.624  10.171  0.1014 -0.1056  0.3536
   6723SM   O12 8652   2.666   5.811  10.333 -0.1511 -0.2735  0.0055
   6723SM   C1S 8653   2.684   5.713  10.062 -0.4021  0.6452 -0.0072
   6723SM   H1S 8654   2.766   5.780  10.095 -0.8358  1.4123 -0.4575
   6723SM   H1T 8655   2.592   5.771  10.037 -0.0048  0.9784 -0.7182
   6723SM    NF 8656   2.810   5.709   9.841 -0.1162  0.1699  0.1985
   6723SM   HNF 8657   2.768   5.740   9.756  2.2206  2.4392 -0.2470
   6723SM   C2S 8658   2.726   5.632   9.935  0.3757  0.7533 -0.0787
   6723SM   H2S 8659   2.785   5.544   9.970 -1.8764 -0.6339  0.4073
   6723SM   C3S 8660   2.602   5.565   9.872  0.2148 -0.5380  0.5659
   6723SM   H3S 8661   2.541   5.648   9.831 -2.1620 -2.8268 -0.8372
   6723SM    O3 8662   2.525   5.506   9.975  0.1773 -0.2688  0.8138
   6723SM   HO3 8663   2.565   5.542  10.055  0.0517  0.2598  0.6416
   6723SM   C4S 8664   2.637   5.479   9.759 -0.0051 -0.4484 -1.2351
   6723SM   H4S 8665   2.710   5.400   9.780 -0.3615 -0.5960 -0.4984
   6723SM   C5S 8666   2.576   5.483   9.643 -0.5113 -1.2961  0.2439
   6723SM   H5S 8667   2.509   5.568   9.627 -0.1653 -0.6230  2.2023
   6723SM   C6S 8668   2.611   5.406   9.520  0.0090  0.3642 -0.6327
   6723SM   H6S 8669   2.528   5.347   9.475 -1.1954  0.0827  1.7943
   6723SM   H6T 8670   2.686   5.327   9.545  1.8913  2.3974  0.4435
   6723SM   C7S 8671   2.690   5.483   9.426  0.1748 -0.3053  0.1603
   6723SM   H7S 8672   2.798   5.482   9.451  0.4225  0.7847 -0.8279
   6723SM   H7T 8673   2.662   5.590   9.415  2.7977  0.2276 -2.7713
   6723SM   C8S 8674   2.667   5.415   9.287 -0.4790 -0.5301  0.0538
   6723SM   H8S 8675   2.560   5.435   9.266 -0.0346  2.2947  0.1067
   6723SM   H8T 8676   2.686   5.305   9.287 -0.2365 -0.4891  0.8570
   6723SM   C9S 8677   2.744   5.481   9.174 -0.4664 -0.4879  0.3006
   6723SM   H9S 8678   2.852   5.492   9.198 -0.2989  2.6112 -1.3249
   6723SM   H9T 8679   2.702   5.581   9.151 -2.6291 -1.0572  1.4771
   6723SM  C10S 8680   2.740   5.398   9.040 -0.6688 -0.3217 -0.2505
   6723SM  H10S 8681   2.643   5.349   9.017  0.4938 -2.4389 -0.8862
   6723SM  H10T 8682   2.809   5.314   9.060  0.3997  0.8380  1.2023
   6723SM  C11S 8683   2.789   5.482   8.919  0.0798  0.2392  0.3274
   6723SM  H11S 8684   2.893   5.512   8.943  0.1832 -1.3281  2.1152
   6723SM  H11T 8685   2.723   5.571   8.915  0.8278  0.7621 -0.4925
   6723SM  C12S 8686   2.779   5.394   8.795  0.0093 -0.0463  0.3878
   6723SM  H12S 8687   2.674   5.358   8.791 -0.5246  1.4280  0.5929
   6723SM  H12T 8688   2.837   5.299   8.798 -1.0566 -0.9367 -2.7417
   6723SM  C13S 8689   2.814   5.460   8.661 -0.1591 -0.4609  0.1334
   6723SM  H13S 8690   2.915   5.505   8.674 -0.0855 -1.0523  1.7359
   6723SM  H13T 8691   2.745   5.546   8.646  0.5878  0.1098 -0.1152
   6723SM  C14S 8692   2.813   5.362   8.548 -0.3295 -0.2344 -0.3256
   6723SM  H14S 8693   2.714   5.311   8.540 -0.5581 -0.4245  2.7714
   6723SM  H14T 8694   2.885   5.279   8.568  1.0455  1.1895  0.8014
   6723SM  C15S 8695   2.861   5.422   8.413  0.0373  0.0620  0.1887
   6723SM  H15S 8696   2.956   5.477   8.431 -0.0742  0.5233 -0.6085
   6723SM  H15T 8697   2.784   5.492   8.372  1.4263  0.4698 -1.8808
   6723SM  C16S 8698   2.885   5.316   8.302  0.4932  0.8854  0.2254
   6723SM  H16S 8699   2.807   5.238   8.319  0.5777  0.7583  0.0354
   6723SM  H16T 8700   2.983   5.264   8.307  0.6951  0.9823 -1.8550
   6723SM  C17S 8701   2.862   5.384   8.170 -0.6566 -0.1321  0.3490
   6723SM  H17S 8702   2.934   5.468   8.160 -1.8882  0.7825 -1.5202
   6723SM  H17T 8703   2.768   5.442   8.188  0.2089  0.9837  1.4107
   6723SM  C18S 8704   2.855   5.295   8.042  0.1164  0.3286 -0.0616
   6723SM  H18S 8705   2.941   5.315   7.974  0.7037  2.1335  1.1242
   6723SM  H18T 8706   2.765   5.316   7.980  0.5739 -0.6415 -1.0942
   6723SM  H18U 8707   2.840   5.189   8.073 -2.6420  0.8262  0.6174
   6723SM   C1F 8708   2.941   5.735   9.869 -0.1515 -0.3755  0.0191
   6723SM    OF 8709   2.989   5.727   9.982 -0.0445  0.1888 -0.3801
   6723SM   C2F 8710   3.030   5.764   9.755  0.2994  0.2055  0.0176
   6723SM   H2F 8711   3.136   5.735   9.775 -0.1217 -1.3021  0.1729
   6723SM   H2G 8712   3.026   5.871   9.725  4.4122  0.2756 -1.0190
   6723SM   C3F 8713   2.991   5.695   9.622  0.1173  0.0145 -0.2503
   6723SM   H3F 8714   2.891   5.730   9.589  0.2029  0.4971 -0.0160
   6723SM   H3G 8715   2.987   5.584   9.627 -0.7661  0.0307 -0.4613
   6723SM   C4F 8716   3.077   5.738   9.501 -0.3480 -0.4320 -0.5277
   6723SM   H4F 8717   3.186   5.728   9.524 -0.2526  0.5237 -0.5250
   6723SM   H4G 8718   3.063   5.848   9.501 -0.3789 -0.3848  1.6226
   6723SM   C5F 8719   3.042   5.660   9.375  0.4932  0.3533 -0.0414
   6723SM   H5F 8720   2.938   5.665   9.337  0.1996  0.9052  0.8062
   6723SM   H5G 8721   3.058   5.552   9.396 -0.4481  0.2409  0.1383
   6723SM   C6F 8722   3.136   5.714   9.268  0.1728  0.7691 -0.1651
   6723SM   H6F 8723   3.242   5.695   9.296 -0.5967 -0.2212  2.3978
   6723SM   H6G 8724   3.127   5.824   9.278  1.4951  0.8231  0.6133
   6723SM   C7F 8725   3.105   5.651   9.127  0.3339 -0.5977  0.6014
   6723SM   H7F 8726   3.004   5.685   9.094  0.9481  0.5076 -0.1925
   6723SM   H7G 8727   3.111   5.540   9.121  1.0632 -0.6575  2.0917
   6723SM   C8F 8728   3.198   5.711   9.025 -0.2043  0.1307 -0.1998
   6723SM   H8F 8729   3.306   5.699   9.044  0.2500  0.8203 -2.1545
   6723SM   H8G 8730   3.179   5.816   8.994  1.4365 -0.1137 -2.2115
   6723SM   C9F 8731   3.169   5.661   8.881 -0.1064  0.3446 -0.0439
   6723SM   H9F 8732   3.068   5.691   8.846  0.0997  1.3793  0.2306
   6723SM   H9G 8733   3.175   5.550   8.888 -1.5530  0.2899  0.9232
   6723SM  C10F 8734   3.271   5.711   8.776 -0.0615  0.5916  0.6219
   6723SM  H10F 8735   3.372   5.694   8.819 -0.4656 -1.3917  0.8958
   6723SM  H10G 8736   3.254   5.819   8.759  0.9490  0.7687  0.6924
   6723SM  C11F 8737   3.262   5.644   8.642  0.7254 -0.4794  0.0834
   6723SM  H11F 8738   3.159   5.641   8.601  0.9823  0.0312 -0.6112
   6723SM  H11G 8739   3.294   5.537   8.643 -0.7659 -0.9348  0.5153
   6723SM  C12F 8740   3.345   5.717   8.531  0.8228 -0.0050  0.3849
   6723SM  H12F 8741   3.449   5.735   8.564  0.2747  0.1518  2.1182
   6723SM  H12G 8742   3.307   5.821   8.522  1.3277  0.1613  0.1364
   6723SM  C13F 8743   3.354   5.653   8.392  0.4821 -0.7732 -0.1479
   6723SM  H13F 8744   3.249   5.629   8.365  1.3803 -0.9420 -4.1016
   6723SM  H13G 8745   3.423   5.565   8.393 -0.4163 -1.4900  0.0206
   6723SM  C14F 8746   3.400   5.754   8.288 -0.4320 -0.2200  0.3068
   6723SM  H14F 8747   3.483   5.810   8.334 -0.1572  0.0587 -0.5072
   6723SM  H14G 8748   3.320   5.829   8.268 -0.4619  0.0722  1.4531
   6723SM  C15F 8749   3.452   5.679   8.164  0.1453  0.3803 -0.9073
   6723SM  H15F 8750   3.372   5.606   8.139  0.7966 -0.4403 -0.6406
   6723SM  H15G 8751   3.534   5.621   8.211  0.0869 -0.1327 -1.4223
   6723SM  C16F 8752   3.495   5.759   8.044  0.6430 -0.3101  1.2113
   6723SM  H16F 8753   3.592   5.812   8.058 -0.1600  0.9897  2.1830
   6723SM  H16G 8754   3.413   5.829   8.016  3.7224  2.7323 -1.1214
   6723SM  C17F 8755   3.514   5.666   7.922  0.1003 -0.0853 -0.1580
   6723SM  H17F 8756   3.422   5.603   7.925 -0.2206  0.3982  2.0261
   6723SM  H17G 8757   3.600   5.603   7.953  0.9595  1.3910  0.5600
   6723SM  C18F 8758   3.533   5.734   7.782  0.1627 -0.0357  0.2714
   6723SM  H18F 8759   3.624   5.797   7.787 -1.4423  2.5257 -1.0198
   6723SM  H18G 8760   3.450   5.806   7.768  0.0582  0.1216  1.5536
   6723SM  C19F 8761   3.532   5.635   7.667 -0.6082  0.2703  0.5685
   6723SM  H19F 8762   3.529   5.697   7.574 -1.7677  0.3505  0.6341
   6723SM  H19G 8763   3.434   5.582   7.672 -0.6837  0.4465  0.9545
   6723SM  C20F 8764   3.660   5.549   7.656 -0.4839 -0.2151 -0.5613
   6723SM  H20F 8765   3.663   5.484   7.746 -0.1038 -0.3364 -0.6605
   6723SM  H20G 8766   3.753   5.608   7.673 -1.3445  1.1078 -0.2863
   6723SM  C21F 8767   3.665   5.464   7.530  0.8023 -0.3616 -0.3181
   6723SM  H21F 8768   3.584   5.388   7.520 -1.1353  1.2077  2.1325
   6723SM  H21G 8769   3.758   5.404   7.546 -0.1614 -1.8316 -0.0068
   6723SM  C22F 8770   3.659   5.537   7.394 -0.1070  0.1018 -0.1588
   6723SM  H22F 8771   3.722   5.629   7.389  1.6280 -1.0556 -0.4233
   6723SM  H22G 8772   3.555   5.575   7.384 -0.3956  0.3305  2.8029
   6723SM  C23F 8773   3.682   5.437   7.275  1.0004  0.5734  0.5132
   6723SM  H23F 8774   3.781   5.388   7.277  1.0827  0.7647  1.3420
   6723SM  H23G 8775   3.661   5.480   7.174 -1.0572  0.3854  0.8047
   6723SM  H23H 8776   3.603   5.359   7.282  0.7409  0.6876 -0.7352
   6823SM     N 8777   2.790   1.100  10.226 -0.5502  0.5337 -0.1962
   6823SM   C15 8778   2.695   1.023  10.306  0.1687 -0.3349 -0.6944
   6823SM  H15A 8779   2.707   1.051  10.410  0.4735  0.2626 -0.8838
   6823SM  H15B 8780   2.717   0.918  10.303 -1.5761 -0.9959  3.4284
   6823SM  H15C 8781   2.592   1.046  10.283 -0.5338 -0.1513  2.2318
   6823SM   C14 8782   2.934   1.088  10.266  0.4163  0.5196  0.5595
   6823SM  H14A 8783   2.998   1.157  10.213  2.6140 -0.0955  2.2433
   6823SM  H14B 8784   2.978   0.990  10.251 -0.8210  0.1956 -1.3701
   6823SM  H14C 8785   2.936   1.104  10.373 -2.8755  0.6170  0.6952
   6823SM   C13 8786   2.770   1.045  10.088  1.1983 -0.1576  0.8441
   6823SM  H13A 8787   2.669   1.069  10.060  0.4998 -2.5264  1.0670
   6823SM  H13B 8788   2.770   0.938  10.071  1.9404  0.0991 -0.9120
   6823SM  H13C 8789   2.838   1.084  10.014  0.3442 -0.6504 -0.2159
   6823SM   C12 8790   2.758   1.248  10.242  0.0872 -0.1420 -0.8043
   6823SM  H12A 8791   2.820   1.307  10.175  0.5738 -0.6740 -0.8274
   6823SM  H12B 8792   2.796   1.280  10.338  0.4797  0.9331 -1.2961
   6823SM   C11 8793   2.608   1.287  10.236 -0.1920  0.3156 -0.3838
   6823SM  H11A 8794   2.605   1.395  10.259 -1.2520  0.3475 -0.6186
   6823SM  H11B 8795   2.556   1.242  10.323  2.0311  0.5613  1.1522
   6823SM     P 8796   2.406   1.208  10.091 -0.4973 -0.3758 -0.2147
   6823SM   O13 8797   2.388   1.072  10.148  0.3235 -0.0604  0.1567
   6823SM   O14 8798   2.316   1.317  10.140 -0.1258  0.1908  0.4254
   6823SM   O11 8799   2.393   1.204   9.930  0.3415 -0.0810  0.3939
   6823SM   O12 8800   2.561   1.255  10.107 -0.2849 -0.1084 -0.0511
   6823SM   C1S 8801   2.499   1.157   9.849  0.5076 -0.8076 -0.4055
   6823SM   H1S 8802   2.521   1.053   9.880  0.4156 -0.6192  0.3072
   6823SM   H1T 8803   2.581   1.232   9.859 -2.2545  2.4735 -0.5225
   6823SM    NF 8804   2.564   1.092   9.616 -0.6779  0.1071 -0.1310
   6823SM   HNF 8805   2.627   1.154   9.569  0.0542  0.8477  1.7544
   6823SM   C2S 8806   2.466   1.161   9.698 -0.6916  0.0285 -0.4614
   6823SM   H2S 8807   2.373   1.105   9.674 -0.5185 -0.5341  0.1746
   6823SM   C3S 8808   2.445   1.313   9.649  0.2470 -0.3373 -0.1009
   6823SM   H3S 8809   2.538   1.374   9.655 -0.1913  0.2467  1.0604
   6823SM    O3 8810   2.352   1.380   9.735  0.2494  0.2453  0.1670
   6823SM   HO3 8811   2.338   1.315   9.804 -0.3513  0.8784  0.6508
   6823SM   C4S 8812   2.387   1.316   9.511 -0.2739  0.3584  0.1832
   6823SM   H4S 8813   2.278   1.330   9.513 -0.1495  1.8021  3.3105
   6823SM   C5S 8814   2.450   1.339   9.400 -0.8759 -0.4796 -0.8188
   6823SM   H5S 8815   2.557   1.359   9.406 -1.2637  2.0020 -1.2605
   6823SM   C6S 8816   2.396   1.353   9.260 -0.2160 -0.4614 -0.2573
   6823SM   H6S 8817   2.319   1.275   9.242 -1.4021  0.7324 -0.5798
   6823SM   H6T 8818   2.482   1.343   9.190 -0.0994 -1.4099  0.0050
   6823SM   C7S 8819   2.332   1.486   9.221  0.6486  0.5241  0.5399
   6823SM   H7S 8820   2.405   1.567   9.240  0.1494  0.7194  1.6823
   6823SM   H7T 8821   2.247   1.514   9.287  0.3413 -0.0253  0.3811
   6823SM   C8S 8822   2.278   1.485   9.072 -0.0921 -0.1091 -0.2436
   6823SM   H8S 8823   2.200   1.564   9.065 -0.1885 -0.2064 -0.2648
   6823SM   H8T 8824   2.227   1.388   9.052  0.2393  0.1051 -2.4458
   6823SM   C9S 8825   2.379   1.502   8.958 -0.3830  0.1760 -0.4926
   6823SM   H9S 8826   2.446   1.413   8.958  0.2194  0.6256 -0.1817
   6823SM   H9T 8827   2.438   1.595   8.969  0.9716 -0.7497  0.4661
   6823SM  C10S 8828   2.300   1.509   8.829 -0.4126 -0.5228 -0.2039
   6823SM  H10S 8829   2.219   1.584   8.839  0.1832 -0.0829  1.8332
   6823SM  H10T 8830   2.247   1.413   8.812 -1.0375 -0.3163  0.4906
   6823SM  C11S 8831   2.381   1.552   8.711 -0.4505  0.2557 -1.0017
   6823SM  H11S 8832   2.474   1.492   8.704  0.2189  0.9717  1.0981
   6823SM  H11T 8833   2.412   1.657   8.730 -0.2409  0.0796 -0.3249
   6823SM  C12S 8834   2.286   1.559   8.588 -0.3110 -0.3714 -0.0466
   6823SM  H12S 8835   2.217   1.645   8.602  0.0065 -0.3581  1.6675
   6823SM  H12T 8836   2.226   1.465   8.581  0.5862 -0.8461 -2.0147
   6823SM  C13S 8837   2.368   1.573   8.462 -0.0154 -0.3386 -0.2141
   6823SM  H13S 8838   2.438   1.487   8.462 -0.3365 -0.6112 -1.1648
   6823SM  H13T 8839   2.415   1.673   8.472 -2.1157  0.4964  2.6225
   6823SM  C14S 8840   2.294   1.574   8.328  1.1630 -0.7724 -0.5208
   6823SM  H14S 8841   2.201   1.634   8.328  1.3921 -0.3966  0.2760
   6823SM  H14T 8842   2.275   1.467   8.307 -1.3866 -0.4701 -0.0543
   6823SM  C15S 8843   2.377   1.640   8.213  0.1680  0.2176 -0.3039
   6823SM  H15S 8844   2.481   1.603   8.220 -0.7082 -3.1072 -2.3835
   6823SM  H15T 8845   2.378   1.751   8.220 -1.8124  0.3436 -1.2075
   6823SM  C16S 8846   2.303   1.596   8.087  0.3622 -0.5904 -0.4001
   6823SM  H16S 8847   2.201   1.638   8.082  0.9277  0.7780 -0.8055
   6823SM  H16T 8848   2.301   1.486   8.075 -0.9349 -0.7107  0.7191
   6823SM  C17S 8849   2.359   1.647   7.952 -0.2047 -0.4550  0.4413
   6823SM  H17S 8850   2.348   1.758   7.947 -2.0636 -0.5442  1.8486
   6823SM  H17T 8851   2.302   1.594   7.873  1.7291 -2.5279  0.3399
   6823SM  C18S 8852   2.501   1.598   7.915  0.1581  0.5110  0.1829
   6823SM  H18S 8853   2.574   1.613   7.998 -0.3085  1.5401  0.4213
   6823SM  H18T 8854   2.543   1.652   7.827  3.3866 -0.7784  0.7516
   6823SM  H18U 8855   2.492   1.493   7.880  0.1946  0.5860 -0.0541
   6823SM   C1F 8856   2.592   0.963   9.624 -0.1268  0.2211 -0.1855
   6823SM    OF 8857   2.511   0.880   9.669 -0.2674 -0.8321  0.1795
   6823SM   C2F 8858   2.728   0.916   9.568  0.1520  0.4910 -0.5504
   6823SM   H2F 8859   2.765   0.838   9.638  3.2444  1.8242 -0.5275
   6823SM   H2G 8860   2.804   0.996   9.568 -1.2156  1.8571 -1.7159
   6823SM   C3F 8861   2.714   0.849   9.428  0.1477 -0.3031  0.1427
   6823SM   H3F 8862   2.643   0.764   9.436  0.4157 -0.5136  0.2540
   6823SM   H3G 8863   2.813   0.808   9.401  0.3264 -0.8132  1.5091
   6823SM   C4F 8864   2.671   0.946   9.313  0.0126 -0.9555 -0.1196
   6823SM   H4F 8865   2.568   0.970   9.346 -0.1580 -2.0526  0.1829
   6823SM   H4G 8866   2.669   0.900   9.212 -1.0142 -2.0915  0.3951
   6823SM   C5F 8867   2.761   1.072   9.302 -0.0103  0.2848 -0.8313
   6823SM   H5F 8868   2.863   1.039   9.330 -0.4820 -1.7937 -1.4141
   6823SM   H5G 8869   2.720   1.130   9.388  0.4172 -1.5072  0.6475
   6823SM   C6F 8870   2.758   1.143   9.170  0.2822  0.2046  0.5393
   6823SM   H6F 8871   2.656   1.183   9.151  1.1372  1.7033 -1.1495
   6823SM   H6G 8872   2.777   1.071   9.088  1.6548  1.9215 -0.7231
   6823SM   C7F 8873   2.845   1.270   9.161 -0.3856 -0.5240 -0.6425
   6823SM   H7F 8874   2.951   1.240   9.172 -0.1954 -0.2744 -1.7428
   6823SM   H7G 8875   2.839   1.341   9.246  2.4880 -1.5402  0.5210
   6823SM   C8F 8876   2.822   1.354   9.033  0.1158  0.7276 -0.0147
   6823SM   H8F 8877   2.876   1.450   9.050  0.3724  0.5420  0.2177
   6823SM   H8G 8878   2.712   1.365   9.020  0.0642 -0.4147 -0.7168
   6823SM   C9F 8879   2.880   1.282   8.909 -0.2885  0.3883 -0.5150
   6823SM   H9F 8880   2.830   1.186   8.885  1.0839 -0.3559 -0.5018
   6823SM   H9G 8881   2.985   1.255   8.931 -0.7869 -0.7988  0.5902
   6823SM  C10F 8882   2.882   1.358   8.779  0.0114  0.4986 -0.8322
   6823SM  H10F 8883   2.944   1.293   8.714 -0.8262 -1.5629  0.3432
   6823SM  H10G 8884   2.942   1.450   8.792  1.2436 -0.3841 -0.1022
   6823SM  C11F 8885   2.735   1.369   8.727  0.3025 -0.2022  0.7611
   6823SM  H11F 8886   2.663   1.410   8.801  2.0972  3.2197  0.8305
   6823SM  H11G 8887   2.713   1.263   8.703  1.8861 -0.4882  0.4337
   6823SM  C12F 8888   2.726   1.452   8.594  0.4187 -0.5465  0.2801
   6823SM  H12F 8889   2.759   1.557   8.607  2.4195 -1.0528 -0.4372
   6823SM  H12G 8890   2.618   1.454   8.567  0.7226 -1.3162 -1.0260
   6823SM  C13F 8891   2.798   1.385   8.484 -0.5807 -0.4042  0.4875
   6823SM  H13F 8892   2.776   1.276   8.486  0.3729 -0.6690 -1.0783
   6823SM  H13G 8893   2.908   1.400   8.495  0.0093  1.8129 -5.0478
   6823SM  C14F 8894   2.753   1.448   8.350 -0.7260 -0.5537  0.0132
   6823SM  H14F 8895   2.762   1.559   8.357  1.5963 -0.5215 -2.1447
   6823SM  H14G 8896   2.646   1.420   8.351 -0.6285 -0.9781 -0.6350
   6823SM  C15F 8897   2.828   1.385   8.235 -0.8488 -0.0384 -0.3425
   6823SM  H15F 8898   2.879   1.289   8.258  0.2283  0.5422 -0.2397
   6823SM  H15G 8899   2.912   1.453   8.209  0.1366 -0.4854  1.4834
   6823SM  C16F 8900   2.745   1.364   8.111  0.2509  0.1010  0.0748
   6823SM  H16F 8901   2.702   1.459   8.073  0.6649  1.7154  3.2763
   6823SM  H16G 8902   2.659   1.298   8.134  0.3362  0.0768  0.3260
   6823SM  C17F 8903   2.831   1.303   7.995  0.5670  0.1321  0.9231
   6823SM  H17F 8904   2.871   1.204   8.025 -1.7187 -0.6100  1.7045
   6823SM  H17G 8905   2.914   1.374   7.973 -2.7504  3.6243 -1.3980
   6823SM  C18F 8906   2.745   1.283   7.868  0.9576 -0.7167  0.3912
   6823SM  H18F 8907   2.695   1.381   7.848  0.9540 -0.7985 -0.0003
   6823SM  H18G 8908   2.665   1.209   7.886  0.5387  0.0967  2.1889
   6823SM  C19F 8909   2.821   1.269   7.735 -0.8557  0.4263  0.5809
   6823SM  H19F 8910   2.906   1.198   7.744  0.0233  1.1053 -1.4859
   6823SM  H19G 8911   2.872   1.362   7.701 -0.1355  0.0430  0.5894
   6823SM  C20F 8912   2.736   1.223   7.621  0.4978 -0.0375  0.0948
   6823SM  H20F 8913   2.658   1.299   7.604  1.3801  0.7312 -0.5984
   6823SM  H20G 8914   2.691   1.127   7.655 -1.1863  0.6255 -0.1596
   6823SM  C21F 8915   2.803   1.227   7.481 -0.1511  0.2967  0.3695
   6823SM  H21F 8916   2.901   1.173   7.483 -0.1720  0.2500  0.1357
   6823SM  H21G 8917   2.832   1.330   7.452  0.2499 -0.2897 -1.4409
   6823SM  C22F 8918   2.715   1.173   7.369 -0.0212 -0.1077  0.3542
   6823SM  H22F 8919   2.633   1.239   7.335 -0.4119 -0.9641 -0.4101
   6823SM  H22G 8920   2.672   1.078   7.406  0.9358 -0.5908  0.2610
   6823SM  C23F 8921   2.787   1.134   7.242 -0.3302  0.2781  0.3495
   6823SM  H23F 8922   2.790   1.220   7.173  2.8288  0.1955  0.2657
   6823SM  H23G 8923   2.732   1.047   7.202  1.6566 -1.1661  0.6135
   6823SM  H23H 8924   2.890   1.099   7.260 -0.1805 -0.7367 -2.1172
   6923SM     N 8925   4.893   2.407  10.515  0.2419 -0.3697 -0.1837
   6923SM   C15 8926   4.779   2.339  10.589 -0.7789  0.4609 -0.7137
   6923SM  H15A 8927   4.708   2.295  10.521 -1.4134 -3.3150  2.0709
   6923SM  H15B 8928   4.713   2.410  10.637 -0.0454 -0.8648  2.5245
   6923SM  H15C 8929   4.812   2.270  10.665 -0.6269  0.0979 -1.1081
   6923SM   C14 8930   4.958   2.496  10.608 -0.3917 -0.1981 -0.4723
   6923SM  H14A 8931   4.888   2.571  10.643 -0.2374 -0.0431 -0.4914
   6923SM  H14B 8932   5.042   2.548  10.565  1.0121 -1.6096  0.4849
   6923SM  H14C 8933   4.996   2.438  10.691  0.4653  1.4867  0.3575
   6923SM   C13 8934   4.989   2.311  10.448 -0.0740  0.4570  0.7442
   6923SM  H13A 8935   5.072   2.361  10.399 -1.3135  0.2083 -1.7465
   6923SM  H13B 8936   4.935   2.259  10.371 -0.6413 -0.4081  1.6963
   6923SM  H13C 8937   5.039   2.235  10.506  2.2186 -1.3296 -3.1780
   6923SM   C12 8938   4.828   2.494  10.408  0.2392 -0.7147  0.2760
   6923SM  H12A 8939   4.903   2.566  10.378 -0.0148  1.3266  3.9401
   6923SM  H12B 8940   4.749   2.555  10.450 -0.2178  0.0048 -1.5127
   6923SM   C11 8941   4.770   2.419  10.281  0.3246 -0.9873  0.7199
   6923SM  H11A 8942   4.846   2.383  10.208 -0.6444  1.2769 -1.5314
   6923SM  H11B 8943   4.729   2.497  10.214 -0.1123 -1.8730 -0.0539
   6923SM     P 8944   4.652   2.189  10.237  0.0670 -0.0686  0.2357
   6923SM   O13 8945   4.789   2.136  10.239 -0.4485  0.2805  0.0058
   6923SM   O14 8946   4.549   2.098  10.291  0.3093 -0.4574  0.7059
   6923SM   O11 8947   4.610   2.226  10.089 -0.1438 -0.4182  0.1660
   6923SM   O12 8948   4.662   2.323  10.316  0.4585 -0.3061  0.0186
   6923SM   C1S 8949   4.561   2.126   9.998 -0.3292 -0.4031  0.7284
   6923SM   H1S 8950   4.451   2.116  10.010 -0.6499  0.4598 -1.1585
   6923SM   H1T 8951   4.606   2.025  10.006  1.5945  0.2739 -0.5952
   6923SM    NF 8952   4.538   2.060   9.758 -0.0262  0.4711  0.2783
   6923SM   HNF 8953   4.608   1.993   9.737  1.3417  1.7438  0.6097
   6923SM   C2S 8954   4.582   2.174   9.848  0.1642  0.2006 -0.8234
   6923SM   H2S 8955   4.522   2.263   9.818 -0.9325  0.0785  0.8681
   6923SM   C3S 8956   4.729   2.218   9.826  0.0826 -0.2620 -0.6592
   6923SM   H3S 8957   4.795   2.137   9.864  0.8316  0.8378  0.4569
   6923SM    O3 8958   4.768   2.331   9.905 -0.3280 -0.9182 -0.5844
   6923SM   HO3 8959   4.715   2.339   9.984  0.9345 -1.3281  0.3444
   6923SM   C4S 8960   4.766   2.233   9.679  0.0565  0.0621  0.8395
   6923SM   H4S 8961   4.825   2.149   9.638 -0.0635  0.9687 -1.3403
   6923SM   C5S 8962   4.752   2.341   9.607  0.2616  0.3456 -0.2882
   6923SM   H5S 8963   4.704   2.431   9.648 -0.9543  0.5153 -1.9749
   6923SM   C6S 8964   4.804   2.364   9.466  0.4310  0.1097 -0.1087
   6923SM   H6S 8965   4.870   2.453   9.465 -0.6195  0.9095 -0.3527
   6923SM   H6T 8966   4.713   2.377   9.403  0.5683 -1.9153 -0.8194
   6923SM   C7S 8967   4.891   2.244   9.415  0.3444 -0.2885 -0.1785
   6923SM   H7S 8968   4.830   2.151   9.419 -0.3165  0.1776  1.4075
   6923SM   H7T 8969   4.981   2.234   9.480 -0.5223 -3.1962  0.7358
   6923SM   C8S 8970   4.938   2.266   9.269 -0.5380  0.1463  0.2388
   6923SM   H8S 8971   5.013   2.187   9.247  0.0525 -0.4592  3.8469
   6923SM   H8T 8972   4.982   2.367   9.265  0.5314 -0.3423 -1.6265
   6923SM   C9S 8973   4.834   2.242   9.162 -0.0807  0.0567 -0.1353
   6923SM   H9S 8974   4.732   2.283   9.180 -0.8953 -0.1725 -3.5370
   6923SM   H9T 8975   4.821   2.134   9.139 -0.3629  0.0825 -0.1064
   6923SM  C10S 8976   4.888   2.296   9.028  0.0346  0.4391  0.3425
   6923SM  H10S 8977   4.988   2.249   9.018 -0.2592 -0.0691 -0.2589
   6923SM  H10T 8978   4.916   2.404   9.031  0.0741  0.5105 -1.4275
   6923SM  C11S 8979   4.796   2.263   8.912  0.3375  0.0969  0.8623
   6923SM  H11S 8980   4.709   2.332   8.910  1.1973  1.2226  1.3180
   6923SM  H11T 8981   4.756   2.159   8.915 -1.0509  0.6090  0.9811
   6923SM  C12S 8982   4.856   2.298   8.770  0.1825 -0.2507 -0.0184
   6923SM  H12S 8983   4.945   2.236   8.744  0.0660 -0.0234 -0.9623
   6923SM  H12T 8984   4.889   2.404   8.767 -0.5496  0.0130  0.8749
   6923SM  C13S 8985   4.753   2.267   8.662 -0.2061 -0.6527 -0.8958
   6923SM  H13S 8986   4.656   2.321   8.671  0.2315  0.3346 -1.8353
   6923SM  H13T 8987   4.721   2.161   8.673  0.5418 -0.8609 -0.7170
   6923SM  C14S 8988   4.812   2.298   8.522  0.1855 -0.2470 -0.1471
   6923SM  H14S 8989   4.895   2.228   8.499 -1.4823 -2.7376  1.0410
   6923SM  H14T 8990   4.842   2.404   8.534 -0.5006 -0.2025  1.5398
   6923SM  C15S 8991   4.715   2.289   8.404 -0.1330  0.0732 -0.2934
   6923SM  H15S 8992   4.630   2.354   8.433  0.2573  0.5205 -0.1367
   6923SM  H15T 8993   4.677   2.185   8.404  0.0719 -0.1986  3.9619
   6923SM  C16S 8994   4.787   2.312   8.266  0.0708  1.1457 -0.2019
   6923SM  H16S 8995   4.866   2.235   8.261 -2.3515 -1.4697 -0.7109
   6923SM  H16T 8996   4.832   2.414   8.263  1.0834  0.9178  3.4073
   6923SM  C17S 8997   4.687   2.304   8.148 -0.4991  0.0642 -0.5114
   6923SM  H17S 8998   4.603   2.373   8.171 -1.1855 -0.9142 -0.0516
   6923SM  H17T 8999   4.652   2.199   8.145 -0.3514  0.0185 -0.6888
   6923SM  C18S 9000   4.758   2.351   8.016  0.8430 -0.6840 -0.3857
   6923SM  H18S 9001   4.807   2.449   8.030 -0.6420 -0.1388  1.4589
   6923SM  H18T 9002   4.684   2.359   7.933 -0.6971  0.3024  1.0286
   6923SM  H18U 9003   4.829   2.279   7.971  0.4358 -0.0830 -2.0864
   6923SM   C1F 9004   4.413   2.033   9.733 -0.4678  0.8432  0.0297
   6923SM    OF 9005   4.327   2.108   9.761  0.4035  0.3869 -0.0717
   6923SM   C2F 9006   4.388   1.903   9.661 -0.2786 -0.9876 -0.6857
   6923SM   H2F 9007   4.367   1.832   9.744  0.0329  1.2888  1.4401
   6923SM   H2G 9008   4.486   1.874   9.618 -0.3412 -2.8520  0.3269
   6923SM   C3F 9009   4.280   1.902   9.552  0.3554 -0.0443 -0.8616
   6923SM   H3F 9010   4.180   1.919   9.598 -0.6637 -2.9380 -1.8298
   6923SM   H3G 9011   4.284   1.796   9.520 -0.1842 -0.6958  1.0849
   6923SM   C4F 9012   4.314   1.993   9.432  0.3092 -0.6587  0.2220
   6923SM   H4F 9013   4.330   2.095   9.474  1.1821 -0.7927  0.2365
   6923SM   H4G 9014   4.227   2.011   9.365  0.6348  1.2511  0.2634
   6923SM   C5F 9015   4.441   1.950   9.356  0.3890 -0.0102 -0.4506
   6923SM   H5F 9016   4.428   1.849   9.313  1.6576 -0.2980 -0.1877
   6923SM   H5G 9017   4.524   1.949   9.430 -0.2123  0.9195  0.2574
   6923SM   C6F 9018   4.491   2.057   9.260 -0.5359  0.0518 -0.2440
   6923SM   H6F 9019   4.587   2.017   9.219 -0.1301  0.9532 -0.1911
   6923SM   H6G 9020   4.512   2.153   9.311  2.8427 -1.1509  0.9165
   6923SM   C7F 9021   4.397   2.101   9.145  0.6757 -0.7493 -0.8919
   6923SM   H7F 9022   4.437   2.203   9.125  1.4810 -0.5109  1.5317
   6923SM   H7G 9023   4.288   2.115   9.162  0.3642 -2.0574 -1.6933
   6923SM   C8F 9024   4.403   2.009   9.025  0.1132  0.9310  0.1982
   6923SM   H8F 9025   4.311   2.030   8.966 -0.3803  0.2873  0.7233
   6923SM   H8G 9026   4.404   1.906   9.069  0.2429 -0.3102 -2.5030
   6923SM   C9F 9027   4.534   2.025   8.947 -0.3933 -0.5640 -0.2854
   6923SM   H9F 9028   4.618   1.984   9.006  0.3045  0.1862 -0.7381
   6923SM   H9G 9029   4.558   2.133   8.936  3.1814 -1.4001 -2.1130
   6923SM  C10F 9030   4.526   1.975   8.804  0.5115 -0.0022 -0.0492
   6923SM  H10F 9031   4.478   1.876   8.818 -0.3026  0.6735  2.7357
   6923SM  H10G 9032   4.630   1.955   8.772  1.1030  2.4176  0.2118
   6923SM  C11F 9033   4.459   2.068   8.705 -0.1614  0.2562  0.4067
   6923SM  H11F 9034   4.508   2.168   8.712 -3.1658  2.0643 -1.7187
   6923SM  H11G 9035   4.351   2.077   8.732 -0.2091 -1.0922  0.6956
   6923SM  C12F 9036   4.461   2.020   8.566 -0.1968 -0.3443 -0.6677
   6923SM  H12F 9037   4.428   1.914   8.568 -0.8244 -0.1699  1.7961
   6923SM  H12G 9038   4.559   2.026   8.514  0.2976  1.6177  0.4058
   6923SM  C13F 9039   4.360   2.102   8.474  0.3790  0.4497 -0.6406
   6923SM  H13F 9040   4.386   2.209   8.464 -0.5530  0.8217  0.7059
   6923SM  H13G 9041   4.257   2.089   8.513  0.9141 -0.0992  0.6552
   6923SM  C14F 9042   4.373   2.047   8.332 -0.5206 -0.8886  0.4010
   6923SM  H14F 9043   4.350   1.939   8.341 -0.6872 -0.8890 -0.0213
   6923SM  H14G 9044   4.481   2.063   8.309 -0.4680  0.2490  1.3325
   6923SM  C15F 9045   4.276   2.110   8.233  0.2478  0.3764 -0.8268
   6923SM  H15F 9046   4.295   2.220   8.226  0.8340  0.3844  0.5673
   6923SM  H15G 9047   4.172   2.098   8.269 -0.2608 -2.2075 -2.8575
   6923SM  C16F 9048   4.279   2.050   8.091  0.1387  0.0845  0.3270
   6923SM  H16F 9049   4.188   2.088   8.040  0.4738  0.5727  0.0799
   6923SM  H16G 9050   4.275   1.939   8.097 -1.9212  0.0202 -1.3064
   6923SM  C17F 9051   4.404   2.098   8.008 -0.3473  0.2215  0.0952
   6923SM  H17F 9052   4.497   2.063   8.058 -0.5707  0.5822  0.7643
   6923SM  H17G 9053   4.398   2.209   8.013  0.6707  0.2408  1.1571
   6923SM  C18F 9054   4.414   2.039   7.869 -0.1204 -0.3025 -0.1548
   6923SM  H18F 9055   4.342   2.097   7.809  0.1689 -0.8171 -1.0177
   6923SM  H18G 9056   4.383   1.932   7.868 -0.6901 -0.1344 -0.9424
   6923SM  C19F 9057   4.552   2.056   7.806  0.3389 -0.1022 -0.0126
   6923SM  H19F 9058   4.623   1.982   7.849  0.0099  0.7283  2.0644
   6923SM  H19G 9059   4.598   2.151   7.841  1.6783  0.0642 -2.0222
   6923SM  C20F 9060   4.562   2.069   7.655 -0.3524 -0.0915 -0.2096
   6923SM  H20F 9061   4.482   2.144   7.635 -0.7539  0.5028  3.0740
   6923SM  H20G 9062   4.528   1.974   7.606 -0.9488 -1.0294  1.8824
   6923SM  C21F 9063   4.699   2.089   7.590  0.0504  0.1389  0.0800
   6923SM  H21F 9064   4.683   2.084   7.481 -0.3697  0.3400  0.1287
   6923SM  H21G 9065   4.771   2.010   7.620  1.4644  1.9794  1.8499
   6923SM  C22F 9066   4.764   2.216   7.630 -0.1444 -0.2852 -0.2796
   6923SM  H22F 9067   4.866   2.216   7.585 -0.5208  0.1247 -1.1463
   6923SM  H22G 9068   4.775   2.207   7.740  0.3542 -1.0603 -0.3869
   6923SM  C23F 9069   4.692   2.353   7.603  0.2811 -0.2893  0.3040
   6923SM  H23F 9070   4.588   2.341   7.640  0.8315 -0.9445  1.7410
   6923SM  H23G 9071   4.694   2.361   7.492  1.2943 -1.9112  0.1658
   6923SM  H23H 9072   4.741   2.447   7.639  2.0875 -1.3497  0.7823
   7023SM     N 9073   4.232   1.773  10.182 -0.1577 -0.3828  0.0888
   7023SM   C15 9074   4.289   1.906  10.200  0.2757  0.0574  0.3799
   7023SM  H15A 9075   4.220   1.974  10.152  0.8156  0.7404  0.5414
   7023SM  H15B 9076   4.387   1.925  10.159 -0.3123  2.4933 -0.0776
   7023SM  H15C 9077   4.290   1.941  10.303 -0.8181 -0.8809  0.7233
   7023SM   C14 9078   4.254   1.727  10.045  0.2204 -0.5308  0.3898
   7023SM  H14A 9079   4.224   1.624  10.037 -2.0461  0.0048  1.1896
   7023SM  H14B 9080   4.360   1.735  10.026 -0.1032 -0.3373 -1.5467
   7023SM  H14C 9081   4.201   1.790   9.975  1.5288  2.9392  2.2539
   7023SM   C13 9082   4.310   1.697  10.283 -0.6930  0.1533  0.3460
   7023SM  H13A 9083   4.277   1.595  10.291  0.1066 -0.0200  1.8142
   7023SM  H13B 9084   4.299   1.744  10.380 -0.5177 -1.6083  1.2529
   7023SM  H13C 9085   4.415   1.696  10.260 -0.8755 -1.5883 -0.5322
   7023SM   C12 9086   4.082   1.773  10.215 -0.5236 -0.7069 -0.4047
   7023SM  H12A 9087   4.072   1.799  10.320 -2.1464 -0.3843 -0.6223
   7023SM  H12B 9088   4.051   1.670  10.204 -0.2399 -0.8210 -0.1783
   7023SM   C11 9089   3.993   1.863  10.126  0.4289 -0.6407  0.3365
   7023SM  H11A 9090   4.022   1.851  10.020  0.3852 -0.0946  0.2608
   7023SM  H11B 9091   4.014   1.969  10.151  1.9192 -0.4248 -1.6061
   7023SM     P 9092   3.784   1.707  10.095 -0.1514  0.0863 -0.4740
   7023SM   O13 9093   3.782   1.601  10.199 -0.1245  0.0469  0.0185
   7023SM   O14 9094   3.655   1.732  10.027  0.4754  0.0851 -0.1508
   7023SM   O11 9095   3.894   1.650  10.000 -0.4591 -0.0926 -0.3435
   7023SM   O12 9096   3.857   1.836  10.155  0.1400 -0.2243 -0.4122
   7023SM   C1S 9097   3.867   1.526   9.920 -0.4455 -0.0355 -1.1077
   7023SM   H1S 9098   3.762   1.490   9.932  0.6084 -2.8636  0.6630
   7023SM   H1T 9099   3.935   1.446   9.955 -0.6509 -0.0192 -0.6612
   7023SM    NF 9100   3.845   1.428   9.699  0.2386 -0.6678  0.0150
   7023SM   HNF 9101   3.922   1.368   9.678 -1.1958 -2.5035 -0.2649
   7023SM   C2S 9102   3.879   1.548   9.771 -0.0668  0.3263 -0.3249
   7023SM   H2S 9103   3.809   1.626   9.734  0.6838 -0.2062 -3.0340
   7023SM   C3S 9104   4.019   1.598   9.739 -0.6277  0.3214  0.0252
   7023SM   H3S 9105   4.100   1.523   9.754 -1.7323 -1.5933 -2.7605
   7023SM    O3 9106   4.063   1.710   9.808 -0.2910  0.1636 -0.2500
   7023SM   HO3 9107   3.990   1.723   9.868 -2.2044  2.0656 -2.7702
   7023SM   C4S 9108   4.015   1.644   9.591  0.3087  0.3690 -0.5541
   7023SM   H4S 9109   3.943   1.723   9.565  0.2028  0.1686 -0.8703
   7023SM   C5S 9110   4.092   1.583   9.494  0.0796  0.3750  0.0949
   7023SM   H5S 9111   4.167   1.506   9.514 -1.6918 -1.8721 -1.3339
   7023SM   C6S 9112   4.097   1.620   9.349 -0.2717 -0.0271 -0.9611
   7023SM   H6S 9113   4.100   1.530   9.284 -0.1436  0.6747 -1.9578
   7023SM   H6T 9114   4.194   1.671   9.328 -0.1931  1.8400  3.0983
   7023SM   C7S 9115   3.987   1.716   9.293  0.3770 -0.0101 -0.0935
   7023SM   H7S 9116   4.001   1.810   9.350 -0.3970 -0.9512  1.7395
   7023SM   H7T 9117   3.889   1.666   9.307  0.4597 -0.4682 -1.0339
   7023SM   C8S 9118   3.987   1.726   9.138 -0.7702 -0.0778  0.4499
   7023SM   H8S 9119   3.886   1.767   9.115  0.3390  2.3404 -0.3903
   7023SM   H8T 9120   3.986   1.624   9.095  1.0528  0.0452  0.0121
   7023SM   C9S 9121   4.093   1.824   9.078 -0.2714 -1.1474  0.6841
   7023SM   H9S 9122   4.199   1.799   9.098 -0.0214 -0.2130  0.5727
   7023SM   H9T 9123   4.075   1.922   9.128  0.2961  0.1834 -1.5784
   7023SM  C10S 9124   4.077   1.847   8.927 -0.0227 -0.3806  0.3304
   7023SM  H10S 9125   4.123   1.946   8.905 -0.9976  0.3117  1.3567
   7023SM  H10T 9126   3.968   1.858   8.908 -0.3535  2.0205  3.0264
   7023SM  C11S 9127   4.136   1.731   8.843 -0.2606 -0.4405 -0.5560
   7023SM  H11S 9128   4.079   1.636   8.851  0.9136 -1.1259 -0.0320
   7023SM  H11T 9129   4.229   1.705   8.898 -0.8717  0.8283  1.1596
   7023SM  C12S 9130   4.150   1.771   8.692  0.0131 -0.4178 -0.2462
   7023SM  H12S 9131   4.227   1.708   8.642 -0.4867 -1.0954 -0.1831
   7023SM  H12T 9132   4.189   1.874   8.690 -1.2892  0.0979 -2.2436
   7023SM  C13S 9133   4.016   1.769   8.622 -0.4714 -0.0423 -0.0476
   7023SM  H13S 9134   3.945   1.837   8.673  0.0377  1.6693 -1.5189
   7023SM  H13T 9135   3.974   1.667   8.633 -2.4616  0.9708  3.2402
   7023SM  C14S 9136   4.034   1.815   8.473 -0.3039 -0.6870 -0.3479
   7023SM  H14S 9137   4.118   1.753   8.436  1.0116 -0.4256  1.9742
   7023SM  H14T 9138   4.060   1.923   8.476  0.7583 -0.9479  1.3375
   7023SM  C15S 9139   3.923   1.796   8.371 -0.0092  0.6530 -0.2342
   7023SM  H15S 9140   3.827   1.825   8.421  0.3838  1.6046 -0.0022
   7023SM  H15T 9141   3.911   1.686   8.362  2.7243  0.2078  0.7283
   7023SM  C16S 9142   3.949   1.860   8.232 -0.1493 -0.1536 -1.0014
   7023SM  H16S 9143   4.039   1.926   8.232  0.7583 -1.3224 -2.4235
   7023SM  H16T 9144   3.858   1.916   8.203  0.2775  0.3854 -1.3280
   7023SM  C17S 9145   3.981   1.741   8.134  0.5964 -0.4309 -0.0850
   7023SM  H17S 9146   3.885   1.685   8.127  1.0691 -1.2331 -0.3659
   7023SM  H17T 9147   4.057   1.669   8.172 -1.0313 -1.8652  0.5899
   7023SM  C18S 9148   4.016   1.788   7.995  0.5355 -0.3878  0.8713
   7023SM  H18S 9149   4.039   1.707   7.923  1.4678 -1.2178  2.0607
   7023SM  H18T 9150   4.104   1.856   7.996  0.9946 -0.8815 -1.1621
   7023SM  H18U 9151   3.933   1.848   7.953 -0.4594 -0.6819  2.3263
   7023SM   C1F 9152   3.718   1.380   9.687 -0.1097  0.0719  0.0844
   7023SM    OF 9153   3.619   1.439   9.731 -0.0153  0.3901 -0.3374
   7023SM   C2F 9154   3.698   1.254   9.611 -0.3788  0.1002 -0.4931
   7023SM   H2F 9155   3.654   1.173   9.673  3.6232  0.3189  3.1330
   7023SM   H2G 9156   3.799   1.212   9.593 -0.1127 -0.3347  1.7559
   7023SM   C3F 9157   3.636   1.274   9.474  0.1037  0.8620 -0.1970
   7023SM   H3F 9158   3.529   1.301   9.478 -0.0186  0.4001 -0.3948
   7023SM   H3G 9159   3.663   1.179   9.424  1.5999  1.9055 -1.4773
   7023SM   C4F 9160   3.713   1.373   9.386 -0.7754  0.0984 -0.7596
   7023SM   H4F 9161   3.820   1.346   9.376 -0.6686  0.6008 -1.0041
   7023SM   H4G 9162   3.695   1.472   9.432  2.3239  0.5568 -0.3221
   7023SM   C5F 9163   3.679   1.365   9.232 -0.0758  0.3401 -0.5679
   7023SM   H5F 9164   3.569   1.369   9.216 -0.1238 -1.7370 -1.0529
   7023SM   H5G 9165   3.701   1.263   9.193  3.6559  0.3481  1.0570
   7023SM   C6F 9166   3.742   1.470   9.146  0.1367 -0.2575 -0.3201
   7023SM   H6F 9167   3.853   1.460   9.149  0.2207  0.0439 -1.6481
   7023SM   H6G 9168   3.718   1.565   9.197  0.2869 -0.9269  1.0551
   7023SM   C7F 9169   3.703   1.467   8.998 -0.0369  0.6459 -0.2525
   7023SM   H7F 9170   3.592   1.481   8.993 -0.1958  0.2813  1.6398
   7023SM   H7G 9171   3.746   1.371   8.962 -1.1626 -0.3157  0.8658
   7023SM   C8F 9172   3.758   1.583   8.920  0.0456 -0.0126  0.5275
   7023SM   H8F 9173   3.869   1.579   8.917  0.0913  1.3643 -0.7908
   7023SM   H8G 9174   3.719   1.676   8.967  0.0488  0.0262  0.4527
   7023SM   C9F 9175   3.719   1.591   8.772  0.2408  0.1653  0.6697
   7023SM   H9F 9176   3.729   1.683   8.711 -1.0190 -0.8014 -1.0703
   7023SM   H9G 9177   3.610   1.579   8.757 -0.3217  2.9807  1.9280
   7023SM  C10F 9178   3.763   1.470   8.697  0.1657  0.7368 -0.2852
   7023SM  H10F 9179   3.729   1.378   8.749  3.1763 -0.2656  0.1383
   7023SM  H10G 9180   3.874   1.475   8.696  0.3337 -1.5120  0.9313
   7023SM  C11F 9181   3.721   1.463   8.548  0.0694 -0.4496 -0.4460
   7023SM  H11F 9182   3.781   1.541   8.496 -1.3823  0.4753 -0.7911
   7023SM  H11G 9183   3.613   1.478   8.529 -0.1118 -2.9363 -1.6776
   7023SM  C12F 9184   3.761   1.331   8.491  0.5905  0.6796  0.0203
   7023SM  H12F 9185   3.688   1.257   8.530  3.2015 -1.9229  0.2769
   7023SM  H12G 9186   3.857   1.294   8.533  1.9885  1.3570 -2.3851
   7023SM  C13F 9187   3.773   1.315   8.343 -0.7426  0.0053  0.7030
   7023SM  H13F 9188   3.754   1.208   8.320  1.4368 -0.3139  0.2118
   7023SM  H13G 9189   3.879   1.329   8.313 -0.4906 -0.3246  1.4170
   7023SM  C14F 9190   3.672   1.394   8.263  0.0421  0.0866  0.1436
   7023SM  H14F 9191   3.704   1.500   8.272 -0.8821  0.3482  0.4617
   7023SM  H14G 9192   3.579   1.384   8.323  0.2203  4.1342  1.4234
   7023SM  C15F 9193   3.677   1.359   8.119  0.1971 -0.3209  0.2855
   7023SM  H15F 9194   3.608   1.429   8.068  0.5999 -1.1907 -1.5552
   7023SM  H15G 9195   3.658   1.253   8.094  1.7723 -0.3788 -0.8020
   7023SM  C16F 9196   3.804   1.386   8.038 -0.0544  0.7305 -0.2622
   7023SM  H16F 9197   3.884   1.312   8.061  0.5720  1.1225 -1.1294
   7023SM  H16G 9198   3.840   1.489   8.062 -0.3205  0.9004 -0.5771
   7023SM  C17F 9199   3.784   1.367   7.885 -0.9315  0.3331 -0.4300
   7023SM  H17F 9200   3.711   1.443   7.847  0.2012  1.9082  0.4169
   7023SM  H17G 9201   3.750   1.264   7.863 -0.8737 -0.1860  1.7542
   7023SM  C18F 9202   3.905   1.401   7.786  0.0080  0.3081 -0.6592
   7023SM  H18F 9203   3.983   1.327   7.814 -1.6947 -0.6681  1.8920
   7023SM  H18G 9204   3.951   1.496   7.820 -0.9671  0.6362 -0.2162
   7023SM  C19F 9205   3.876   1.388   7.638  0.1987  0.0484  0.1018
   7023SM  H19F 9206   3.776   1.432   7.615  0.4041  0.8252  0.6509
   7023SM  H19G 9207   3.875   1.279   7.615  0.1574  0.1634 -0.4686
   7023SM  C20F 9208   3.968   1.474   7.548 -0.7751  0.0133 -0.3390
   7023SM  H20F 9209   4.073   1.462   7.584 -1.1794  1.3206  1.4399
   7023SM  H20G 9210   3.934   1.577   7.574 -2.3429 -0.2905 -1.0966
   7023SM  C21F 9211   3.949   1.463   7.396 -0.1214  0.1241 -0.4314
   7023SM  H21F 9212   3.847   1.498   7.371 -0.3884  0.3297  0.8611
   7023SM  H21G 9213   3.959   1.354   7.373  0.2114 -0.3996  1.8610
   7023SM  C22F 9214   4.069   1.542   7.325  0.0625  0.5963  0.4882
   7023SM  H22F 9215   4.162   1.498   7.366 -2.3776 -1.6904  4.1038
   7023SM  H22G 9216   4.063   1.651   7.341  2.0151  0.7266  0.6054
   7023SM  C23F 9217   4.067   1.540   7.173 -0.2419 -0.1460 -0.2184
   7023SM  H23F 9218   4.147   1.606   7.134  0.8790 -0.1531  1.8847
   7023SM  H23G 9219   3.966   1.571   7.139 -1.5696 -2.7599  0.9900
   7023SM  H23H 9220   4.067   1.437   7.132 -0.9706 -0.4273  0.4482
   7123SM     N 9221   4.145   0.233  10.047  0.2179  1.0899  0.0922
   7123SM   C15 9222   4.108   0.092  10.076 -0.3901  0.8532  0.3490
   7123SM  H15A 9223   4.127   0.040   9.983 -0.4147 -3.2429  2.4223
   7123SM  H15B 9224   4.003   0.076  10.095 -0.0872 -1.6769  0.1897
   7123SM  H15C 9225   4.175   0.045  10.146  1.1573  2.5495  0.0825
   7123SM   C14 9226   4.149   0.317  10.167  0.9225 -0.3207  0.2593
   7123SM  H14A 9227   4.206   0.405  10.143 -2.2704  1.9535  0.3622
   7123SM  H14B 9228   4.202   0.276  10.253  1.0299  1.9136  1.3194
   7123SM  H14C 9229   4.049   0.346  10.196  0.5230 -0.7287 -0.6673
   7123SM   C13 9230   4.283   0.235   9.984 -0.2764 -0.1002 -0.5323
   7123SM  H13A 9231   4.289   0.173   9.897  1.5478  1.5321 -1.6539
   7123SM  H13B 9232   4.359   0.202  10.053 -2.4638 -0.7462  1.7102
   7123SM  H13C 9233   4.307   0.338   9.962  0.0983 -0.4281 -1.6932
   7123SM   C12 9234   4.049   0.285   9.939  0.3847 -0.2390 -0.3928
   7123SM  H12A 9235   4.042   0.216   9.857  0.1277  1.1060 -1.5312
   7123SM  H12B 9236   4.094   0.369   9.888  0.1321  0.6837  0.8324
   7123SM   C11 9237   3.910   0.335   9.986  0.1516 -0.9032 -0.4006
   7123SM  H11A 9238   3.851   0.374   9.899 -0.1538 -3.8991 -1.6732
   7123SM  H11B 9239   3.923   0.428  10.045 -1.1359 -2.4440  2.5397
   7123SM     P 9240   3.723   0.153  10.012  0.4516  0.3145  0.0169
   7123SM   O13 9241   3.765   0.019  10.060  0.5220 -0.1326  0.3049
   7123SM   O14 9242   3.599   0.214  10.051  0.1573  0.7992  0.7615
   7123SM   O11 9243   3.747   0.162   9.859  0.3982 -0.0291  0.0804
   7123SM   O12 9244   3.836   0.247  10.066  0.3887  0.5006 -1.0109
   7123SM   C1S 9245   3.680   0.070   9.772 -0.4860  0.1026  0.0420
   7123SM   H1S 9246   3.571   0.082   9.791 -0.9457 -4.3763  1.2164
   7123SM   H1T 9247   3.711  -0.034   9.791  2.2948  0.7379 -0.6656
   7123SM    NF 9248   3.617   0.008   9.529 -0.7216  0.0133 -0.6301
   7123SM   HNF 9249   3.644  -0.081   9.493 -0.1595 -1.9120  3.9157
   7123SM   C2S 9250   3.705   0.085   9.613 -0.1021  1.0068 -0.6212
   7123SM   H2S 9251   3.671   0.189   9.595  0.6726  1.7170  1.6111
   7123SM   C3S 9252   3.860   0.074   9.583  0.1781  0.3788 -0.2658
   7123SM   H3S 9253   3.883  -0.034   9.594  0.9089  0.3538 -1.7901
   7123SM    O3 9254   3.948   0.140   9.673  0.1213  0.3414 -0.3656
   7123SM   HO3 9255   3.886   0.190   9.726 -0.3090  1.1425 -1.5947
   7123SM   C4S 9256   3.890   0.115   9.441 -0.1284 -0.1146  0.3088
   7123SM   H4S 9257   3.868   0.039   9.365  1.2327  0.4083 -0.6373
   7123SM   C5S 9258   3.929   0.242   9.402  0.2542  0.1118  0.2566
   7123SM   H5S 9259   3.926   0.323   9.476 -0.2786  0.2860  0.0475
   7123SM   C6S 9260   3.945   0.285   9.255 -0.5931 -0.2036  0.6069
   7123SM   H6S 9261   4.051   0.299   9.225 -0.8272 -0.2343 -0.2458
   7123SM   H6T 9262   3.899   0.385   9.242 -0.2524  0.2886  2.8503
   7123SM   C7S 9263   3.890   0.187   9.153 -0.3372 -0.6259 -0.4637
   7123SM   H7S 9264   3.783   0.161   9.169 -0.8533  1.3403 -0.4198
   7123SM   H7T 9265   3.949   0.093   9.143 -0.5065 -0.6555 -1.2299
   7123SM   C8S 9266   3.881   0.258   9.011 -0.0801 -0.0102  0.0398
   7123SM   H8S 9267   3.980   0.265   8.962  1.3351 -2.5576  2.2932
   7123SM   H8T 9268   3.844   0.362   9.025 -0.1263  0.0335 -0.3955
   7123SM   C9S 9269   3.765   0.197   8.928 -0.7786  0.1682 -0.2398
   7123SM   H9S 9270   3.666   0.223   8.972 -1.3618 -1.2914 -0.6299
   7123SM   H9T 9271   3.768   0.086   8.931 -0.5835  0.2000  1.1570
   7123SM  C10S 9272   3.761   0.242   8.783  0.1207 -0.5956  0.0043
   7123SM  H10S 9273   3.840   0.181   8.734 -0.3063 -3.7290  2.7911
   7123SM  H10T 9274   3.783   0.351   8.785 -0.7048 -0.3660  3.2921
   7123SM  C11S 9275   3.632   0.219   8.704  0.1150 -0.1921 -0.2150
   7123SM  H11S 9276   3.547   0.270   8.754 -0.3216  0.1970 -1.3226
   7123SM  H11T 9277   3.606   0.111   8.711  2.0902 -0.6969 -0.1977
   7123SM  C12S 9278   3.636   0.258   8.563 -0.0298 -0.0178  0.1354
   7123SM  H12S 9279   3.702   0.189   8.508  0.0101 -0.8467  1.1873
   7123SM  H12T 9280   3.681   0.359   8.548  0.5822 -0.2942  0.0750
   7123SM  C13S 9281   3.504   0.267   8.489 -0.2555  0.1380  0.5832
   7123SM  H13S 9282   3.450   0.363   8.504 -1.1241 -0.0993 -0.8846
   7123SM  H13T 9283   3.444   0.176   8.510  0.5458 -1.1141 -2.0936
   7123SM  C14S 9284   3.520   0.277   8.332 -0.3590  0.1098  0.4300
   7123SM  H14S 9285   3.420   0.263   8.286 -0.0727 -2.7737  0.4801
   7123SM  H14T 9286   3.588   0.200   8.288  0.8395  1.0273  0.6325
   7123SM  C15S 9287   3.586   0.406   8.278 -0.1284  0.0866  0.4827
   7123SM  H15S 9288   3.688   0.429   8.315  0.0172 -0.1502  0.2298
   7123SM  H15T 9289   3.516   0.486   8.313 -0.9561 -0.1163 -0.6395
   7123SM  C16S 9290   3.592   0.404   8.125 -0.1142 -0.4740 -0.2750
   7123SM  H16S 9291   3.592   0.509   8.090  1.3359  0.1201  1.3475
   7123SM  H16T 9292   3.501   0.349   8.092 -0.1613  0.2139 -1.3230
   7123SM  C17S 9293   3.714   0.335   8.063 -0.1623  0.2206 -0.2281
   7123SM  H17S 9294   3.694   0.227   8.044 -1.2627 -0.4059  3.6446
   7123SM  H17T 9295   3.800   0.343   8.133 -0.5315  1.2256  0.1274
   7123SM  C18S 9296   3.738   0.405   7.932 -0.2213 -0.2499 -0.3219
   7123SM  H18S 9297   3.757   0.512   7.952 -0.5787 -0.1997 -0.2385
   7123SM  H18T 9298   3.658   0.393   7.856  0.6745 -1.4540 -1.1215
   7123SM  H18U 9299   3.827   0.363   7.879 -0.6443 -2.3102  0.4830
   7123SM   C1F 9300   3.483   0.026   9.534 -0.2838 -0.6542 -0.2189
   7123SM    OF 9301   3.432   0.124   9.593  0.8835 -0.1843  0.3009
   7123SM   C2F 9302   3.398  -0.083   9.481  0.5207 -0.4649  1.1678
   7123SM   H2F 9303   3.323  -0.107   9.559 -1.1442  0.1724 -0.1706
   7123SM   H2G 9304   3.460  -0.171   9.453  1.6340 -0.2595  2.8317
   7123SM   C3F 9305   3.324  -0.027   9.357  0.0798 -0.1952 -0.4098
   7123SM   H3F 9306   3.390   0.006   9.273 -0.1817  0.3374 -0.4123
   7123SM   H3G 9307   3.268   0.063   9.390  0.9498  0.2790 -0.1910
   7123SM   C4F 9308   3.211  -0.129   9.305 -0.3100  0.5432  0.5149
   7123SM   H4F 9309   3.148  -0.155   9.392 -0.2520 -1.3020  0.0409
   7123SM   H4G 9310   3.267  -0.217   9.267 -0.4442  0.8360 -0.4062
   7123SM   C5F 9311   3.122  -0.069   9.190  0.3411  0.1404 -0.1687
   7123SM   H5F 9312   3.080   0.030   9.217 -1.3609 -0.4329 -0.6271
   7123SM   H5G 9313   3.030  -0.131   9.188  0.8381 -0.6451  0.5166
   7123SM   C6F 9314   3.178  -0.072   9.043 -0.0944 -0.3036  0.0432
   7123SM   H6F 9315   3.192  -0.180   9.020  2.8522  0.2180 -1.1348
   7123SM   H6G 9316   3.280  -0.029   9.053 -1.1422  3.0837 -1.9404
   7123SM   C7F 9317   3.079  -0.002   8.946 -0.1212  0.0914  0.6539
   7123SM   H7F 9318   3.130   0.014   8.849 -1.7681  0.0666 -0.2524
   7123SM   H7G 9319   3.040   0.096   8.983 -1.9836 -1.0197  1.7974
   7123SM   C8F 9320   2.949  -0.085   8.923 -0.3195 -0.2059 -0.0104
   7123SM   H8F 9321   2.899  -0.104   9.021 -2.3550  0.8626 -0.7844
   7123SM   H8G 9322   2.980  -0.183   8.881  1.7901 -0.0018  0.9385
   7123SM   C9F 9323   2.859  -0.034   8.813 -0.1464 -0.1813 -0.0823
   7123SM   H9F 9324   2.813   0.064   8.838 -1.0126 -0.4942 -0.3929
   7123SM   H9G 9325   2.769  -0.099   8.818 -0.6726  0.5650  0.4130
   7123SM  C10F 9326   2.913  -0.040   8.664 -0.6731  1.0232  0.4659
   7123SM  H10F 9327   2.955  -0.139   8.635 -4.4908 -0.3341 -1.2130
   7123SM  H10G 9328   2.996   0.033   8.658  1.4549 -1.1892  1.3245
   7123SM  C11F 9329   2.809  -0.005   8.560  0.0016 -0.1037 -0.2771
   7123SM  H11F 9330   2.764   0.091   8.591  1.6195 -0.4294  3.5679
   7123SM  H11G 9331   2.728  -0.082   8.553  0.4398 -0.6780  0.8208
   7123SM  C12F 9332   2.872   0.010   8.423 -0.3146 -0.5053 -0.1260
   7123SM  H12F 9333   2.917  -0.088   8.397 -2.2335 -1.6249  0.5810
   7123SM  H12G 9334   2.965   0.071   8.433 -0.3346 -0.5581  0.3891
   7123SM  C13F 9335   2.779   0.069   8.314 -0.7096 -0.1189 -0.1795
   7123SM  H13F 9336   2.733   0.169   8.326 -2.9150 -1.2971  1.9725
   7123SM  H13G 9337   2.692   0.001   8.302 -0.4581 -0.3801 -0.5547
   7123SM  C14F 9338   2.854   0.065   8.180 -0.4530 -0.2348  0.0656
   7123SM  H14F 9339   2.891  -0.040   8.182 -1.9286 -0.7782  1.3135
   7123SM  H14G 9340   2.937   0.139   8.180 -1.5163  1.0054 -0.4008
   7123SM  C15F 9341   2.768   0.091   8.056 -0.0866  0.6786  0.4992
   7123SM  H15F 9342   2.834   0.100   7.967  0.1287  2.9839  0.8428
   7123SM  H15G 9343   2.714   0.188   8.056 -0.9468  0.2295 -0.7402
   7123SM  C16F 9344   2.680  -0.028   8.023  0.0327  0.2094  0.3159
   7123SM  H16F 9345   2.616  -0.034   8.113 -0.6461 -1.7120 -0.2475
   7123SM  H16G 9346   2.737  -0.123   8.010  1.3364  1.0022 -0.0337
   7123SM  C17F 9347   2.593  -0.002   7.897  0.2051 -0.4518  0.0922
   7123SM  H17F 9348   2.561   0.104   7.887 -1.0618 -0.9300 -1.3883
   7123SM  H17G 9349   2.510  -0.076   7.893  0.7170 -1.0000 -1.0801
   7123SM  C18F 9350   2.682  -0.015   7.767  0.2386 -0.2721 -0.5783
   7123SM  H18F 9351   2.697  -0.123   7.749  1.3295 -0.6654  2.2183
   7123SM  H18G 9352   2.781   0.032   7.784 -0.3341  1.4027 -1.5602
   7123SM  C19F 9353   2.612   0.045   7.650  0.5794  1.3152 -0.2448
   7123SM  H19F 9354   2.587   0.151   7.668 -0.9863  0.6991  1.4884
   7123SM  H19G 9355   2.515  -0.007   7.635  1.7719 -0.4782 -2.4111
   7123SM  C20F 9356   2.707   0.024   7.529 -0.2521 -0.2655 -0.3474
   7123SM  H20F 9357   2.701  -0.084   7.501  2.2757 -0.9597  1.3859
   7123SM  H20G 9358   2.812   0.044   7.560 -0.0331  0.4157 -1.4739
   7123SM  C21F 9359   2.672   0.118   7.413 -0.1246  0.2278  0.4861
   7123SM  H21F 9360   2.695   0.222   7.445  2.0923 -0.6763  2.0965
   7123SM  H21G 9361   2.563   0.111   7.397  0.1107 -0.0143 -1.1741
   7123SM  C22F 9362   2.748   0.096   7.287  0.3588  0.0990 -0.8982
   7123SM  H22F 9363   2.728  -0.009   7.257 -0.1755  0.1540 -0.7444
   7123SM  H22G 9364   2.854   0.106   7.318 -0.2713  0.7973  1.1919
   7123SM  C23F 9365   2.714   0.183   7.168  0.2669 -0.8432 -0.3718
   7123SM  H23F 9366   2.721   0.288   7.204  3.4686 -0.0105 -2.9777
   7123SM  H23G 9367   2.616   0.149   7.129  0.0965 -0.4259 -0.3077
   7123SM  H23H 9368   2.783   0.179   7.081 -1.3055 -0.2343 -1.6940
   7223SM     N 9369   5.333   2.742   9.889  0.2754  0.4944  0.3852
   7223SM   C15 9370   5.435   2.773   9.998  0.1912 -0.5692  0.2105
   7223SM  H15A 9371   5.480   2.871   9.989 -1.7930  0.2659 -1.1582
   7223SM  H15B 9372   5.511   2.696  10.011 -1.1179 -1.5413  3.0092
   7223SM  H15C 9373   5.378   2.778  10.090  0.1283 -2.4767  0.3137
   7223SM   C14 9374   5.268   2.607   9.913  0.0192 -0.0737 -0.2430
   7223SM  H14A 9375   5.221   2.620  10.009  1.9948  4.9391  0.3504
   7223SM  H14B 9376   5.341   2.527   9.916 -0.6126 -0.6968 -0.7752
   7223SM  H14C 9377   5.196   2.576   9.838  0.0573 -0.1912 -0.2318
   7223SM   C13 9378   5.230   2.847   9.900  0.2504  0.4463 -0.2016
   7223SM  H13A 9379   5.202   2.855  10.004  1.5560  0.7515  0.1492
   7223SM  H13B 9380   5.143   2.830   9.838 -0.0395  0.7341  0.1228
   7223SM  H13C 9381   5.278   2.940   9.874  2.6892 -0.5018  0.5769
   7223SM   C12 9382   5.399   2.738   9.749  0.0618  0.0958  0.6555
   7223SM  H12A 9383   5.446   2.833   9.728  0.2288  0.1693  1.3427
   7223SM  H12B 9384   5.312   2.735   9.685 -0.3454  2.0285  1.0629
   7223SM   C11 9385   5.488   2.621   9.717 -0.6249  0.3483  0.4253
   7223SM  H11A 9386   5.512   2.630   9.609 -0.1888  1.2020  0.5832
   7223SM  H11B 9387   5.444   2.522   9.741  0.2116 -0.0419  0.3784
   7223SM     P 9388   5.733   2.537   9.790 -0.1442  0.0422 -0.0117
   7223SM   O13 9389   5.856   2.607   9.838  0.1138  0.0197  0.1800
   7223SM   O14 9390   5.698   2.424   9.882  0.0627  0.1150 -0.2868
   7223SM   O11 9391   5.745   2.492   9.640 -0.6695 -0.0165 -0.1228
   7223SM   O12 9392   5.613   2.642   9.791 -0.4512 -0.2054  0.3196
   7223SM   C1S 9393   5.678   2.372   9.602  0.1618 -0.2260 -0.1018
   7223SM   H1S 9394   5.580   2.354   9.651  0.8217 -0.3674  1.2053
   7223SM   H1T 9395   5.748   2.288   9.623  2.1228  1.5343  0.7217
   7223SM    NF 9396   5.562   2.277   9.399  0.4151 -0.6385  0.7448
   7223SM   HNF 9397   5.601   2.194   9.360 -0.9641 -0.7568 -0.4788
   7223SM   C2S 9398   5.647   2.380   9.450 -0.6722 -0.3573  0.4605
   7223SM   H2S 9399   5.610   2.484   9.435 -0.4316 -0.7720 -4.5556
   7223SM   C3S 9400   5.790   2.389   9.379 -0.2531  0.1359  0.4067
   7223SM   H3S 9401   5.830   2.291   9.413  0.2436  0.2924  0.2826
   7223SM    O3 9402   5.887   2.492   9.427  0.3800  0.2559  0.2688
   7223SM   HO3 9403   5.848   2.503   9.514 -1.9928 -0.0932 -0.6771
   7223SM   C4S 9404   5.781   2.378   9.232  0.3771 -0.5912  0.1451
   7223SM   H4S 9405   5.776   2.277   9.188 -3.1095 -0.7156  0.5784
   7223SM   C5S 9406   5.766   2.476   9.147 -0.2310 -0.4320 -0.3258
   7223SM   H5S 9407   5.765   2.574   9.198 -0.1565 -0.1927 -0.7764
   7223SM   C6S 9408   5.761   2.483   8.997 -0.5516  0.5798  0.0895
   7223SM   H6S 9409   5.850   2.535   8.954  0.4599 -0.2281  1.1518
   7223SM   H6T 9410   5.680   2.552   8.963  0.1985  1.4177 -0.0603
   7223SM   C7S 9411   5.752   2.352   8.911  0.5408  0.2540  0.2599
   7223SM   H7S 9412   5.670   2.291   8.956  0.9836  0.5448  1.4990
   7223SM   H7T 9413   5.848   2.296   8.920 -0.4422 -1.6185 -0.4268
   7223SM   C8S 9414   5.740   2.376   8.767 -0.3456 -0.3496  0.1084
   7223SM   H8S 9415   5.834   2.414   8.721  1.0153 -2.5921  0.8632
   7223SM   H8T 9416   5.651   2.437   8.740  0.0376  0.3721  0.4609
   7223SM   C9S 9417   5.715   2.241   8.696 -0.5760  0.0570  0.2432
   7223SM   H9S 9418   5.615   2.198   8.718 -1.3889  2.1233  0.8318
   7223SM   H9T 9419   5.799   2.174   8.724 -0.3531  0.9014  1.7104
   7223SM  C10S 9420   5.728   2.255   8.545 -0.2359  0.2195 -0.4489
   7223SM  H10S 9421   5.818   2.314   8.518  0.2830 -0.8787 -1.1300
   7223SM  H10T 9422   5.644   2.317   8.506 -0.6757 -1.2005 -1.8656
   7223SM  C11S 9423   5.726   2.129   8.470 -0.4748  1.1141 -0.7449
   7223SM  H11S 9424   5.652   2.059   8.517  1.4150 -0.7635 -0.4225
   7223SM  H11T 9425   5.826   2.082   8.476 -0.7869  0.5072 -0.0339
   7223SM  C12S 9426   5.723   2.147   8.319  0.8657  0.0134 -0.3820
   7223SM  H12S 9427   5.825   2.187   8.301  0.4575  0.8845 -0.8545
   7223SM  H12T 9428   5.641   2.221   8.305  0.4068 -0.0422  1.6629
   7223SM  C13S 9429   5.693   2.025   8.228  0.6964 -0.3384  1.3927
   7223SM  H13S 9430   5.595   1.990   8.266  0.0066 -0.2326 -0.2330
   7223SM  H13T 9431   5.762   1.941   8.251  0.6467 -1.0121 -0.7690
   7223SM  C14S 9432   5.698   2.052   8.072  0.1086 -0.1837 -0.3663
   7223SM  H14S 9433   5.777   2.125   8.044 -2.2380  2.6489 -0.1083
   7223SM  H14T 9434   5.600   2.100   8.048 -1.1258 -1.3421  2.0337
   7223SM  C15S 9435   5.712   1.923   8.002  0.2299  0.4378 -0.4379
   7223SM  H15S 9436   5.616   1.868   8.004  0.2488  0.4272  1.3119
   7223SM  H15T 9437   5.787   1.859   8.053 -0.6652  0.5223  1.0224
   7223SM  C16S 9438   5.757   1.928   7.852  0.1162  0.4025 -0.2050
   7223SM  H16S 9439   5.795   1.833   7.808  1.1429 -0.6344  2.6525
   7223SM  H16T 9440   5.843   1.998   7.855 -0.0108  0.5549 -0.1536
   7223SM  C17S 9441   5.650   1.977   7.762 -0.6434  0.0977 -0.0891
   7223SM  H17S 9442   5.606   2.071   7.803  2.8088  1.5732  0.5862
   7223SM  H17T 9443   5.569   1.900   7.758 -0.7360 -0.1266  3.0461
   7223SM  C18S 9444   5.699   2.002   7.624 -0.3905  0.2841  0.2561
   7223SM  H18S 9445   5.617   2.017   7.551  1.4808  0.3311 -1.9547
   7223SM  H18T 9446   5.767   1.920   7.591  0.7043  0.8047  1.1523
   7223SM  H18U 9447   5.750   2.100   7.613  1.7356 -0.5060  2.2301
   7223SM   C1F 9448   5.434   2.266   9.431 -0.9936  0.0448  0.2214
   7223SM    OF 9449   5.374   2.365   9.471 -0.3542  0.0864  0.2420
   7223SM   C2F 9450   5.373   2.125   9.423  0.2150  0.1927  0.3431
   7223SM   H2F 9451   5.311   2.097   9.511 -1.1561  0.4919 -0.5039
   7223SM   H2G 9452   5.455   2.056   9.394 -1.2795 -0.5242 -2.5106
   7223SM   C3F 9453   5.270   2.128   9.305  0.3929 -0.0693 -1.3743
   7223SM   H3F 9454   5.190   2.202   9.329 -1.5178 -1.6541 -2.5940
   7223SM   H3G 9455   5.214   2.032   9.298 -2.8399  1.3489  1.5490
   7223SM   C4F 9456   5.342   2.150   9.176 -0.0094 -0.1244 -0.2367
   7223SM   H4F 9457   5.416   2.068   9.164  0.1068 -0.2905  1.3350
   7223SM   H4G 9458   5.392   2.249   9.193  0.0692 -0.5946  3.0333
   7223SM   C5F 9459   5.255   2.160   9.051  0.3809 -0.1124 -0.4029
   7223SM   H5F 9460   5.176   2.233   9.078 -2.3898 -1.8388 -3.1414
   7223SM   H5G 9461   5.198   2.069   9.020 -1.7585  0.1550  2.3018
   7223SM   C6F 9462   5.336   2.217   8.938 -0.0352 -0.0717  0.3499
   7223SM   H6F 9463   5.409   2.138   8.908  1.1747  1.1647 -0.0426
   7223SM   H6G 9464   5.400   2.293   8.987 -0.9237 -0.0410  1.5029
   7223SM   C7F 9465   5.252   2.259   8.823 -0.3149  0.1253  0.1551
   7223SM   H7F 9466   5.196   2.347   8.863  0.9072  0.0512  2.1343
   7223SM   H7G 9467   5.182   2.177   8.796 -0.2913  0.5606 -1.3761
   7223SM   C8F 9468   5.328   2.301   8.700  0.8236 -0.3467  0.5326
   7223SM   H8F 9469   5.393   2.220   8.660  0.3610 -0.4626  0.0075
   7223SM   H8G 9470   5.397   2.384   8.725  0.8471 -0.8852  2.4299
   7223SM   C9F 9471   5.228   2.339   8.590  0.8474  0.9274  0.1830
   7223SM   H9F 9472   5.161   2.423   8.617 -1.5077 -1.6299  3.1718
   7223SM   H9G 9473   5.159   2.252   8.581  0.9037  0.8811  0.1917
   7223SM  C10F 9474   5.293   2.354   8.452  0.2123 -0.6094 -0.1310
   7223SM  H10F 9475   5.333   2.257   8.414  0.7828 -0.5474  0.3031
   7223SM  H10G 9476   5.379   2.424   8.442  0.2950 -0.8342 -1.1087
   7223SM  C11F 9477   5.182   2.381   8.351 -0.0461 -0.2085  0.3566
   7223SM  H11F 9478   5.124   2.468   8.390 -2.2852 -1.6430  0.4031
   7223SM  H11G 9479   5.103   2.303   8.342 -1.3332  1.2970 -3.1981
   7223SM  C12F 9480   5.243   2.436   8.217 -0.0336  0.7800  0.2165
   7223SM  H12F 9481   5.297   2.354   8.163 -0.9491  0.0184  0.4315
   7223SM  H12G 9482   5.299   2.529   8.237 -0.4417  1.0922 -0.0831
   7223SM  C13F 9483   5.142   2.492   8.113  0.4024  0.2465  0.0647
   7223SM  H13F 9484   5.124   2.602   8.116 -1.3044  0.1106 -2.2906
   7223SM  H13G 9485   5.040   2.451   8.133  1.3905 -1.5311  1.8209
   7223SM  C14F 9486   5.189   2.479   7.965 -0.0857  0.3729 -1.0329
   7223SM  H14F 9487   5.225   2.375   7.948 -0.8547 -0.1164  0.1824
   7223SM  H14G 9488   5.278   2.545   7.969 -0.9085  1.4646 -0.0020
   7223SM  C15F 9489   5.087   2.512   7.867  0.0800  0.7416  0.6479
   7223SM  H15F 9490   5.042   2.613   7.874  1.9049  2.0138 -3.1338
   7223SM  H15G 9491   5.015   2.428   7.868  3.6079 -2.6421 -1.2155
   7223SM  C16F 9492   5.147   2.481   7.725  0.1256 -0.9336 -0.4444
   7223SM  H16F 9493   5.180   2.376   7.712 -1.1405 -1.0902 -3.0300
   7223SM  H16G 9494   5.239   2.541   7.710  0.5763 -0.8863  2.0707
   7223SM  C17F 9495   5.052   2.525   7.609  0.0705 -0.0316  0.1094
   7223SM  H17F 9496   4.953   2.474   7.622 -0.6443  1.5119  0.9621
   7223SM  H17G 9497   5.086   2.490   7.510  0.6463  0.7671  0.0167
   7223SM  C18F 9498   5.018   2.675   7.589 -0.4501  0.0560 -0.3704
   7223SM  H18F 9499   5.086   2.728   7.518 -1.4973  0.3763 -1.1542
   7223SM  H18G 9500   5.030   2.720   7.690  0.7317 -0.3070 -0.3308
   7223SM  C19F 9501   4.880   2.688   7.529  0.2128 -0.2613 -0.1876
   7223SM  H19F 9502   4.852   2.795   7.519 -1.7690 -0.6597  0.6910
   7223SM  H19G 9503   4.801   2.637   7.588 -0.8504  2.2606  0.6760
   7223SM  C20F 9504   4.882   2.636   7.379 -0.2982 -0.1759 -0.7263
   7223SM  H20F 9505   4.889   2.525   7.376  0.0212 -0.1478 -1.0791
   7223SM  H20G 9506   4.978   2.674   7.339 -0.0941  2.3744  1.8935
   7223SM  C21F 9507   4.763   2.682   7.300 -0.1549 -0.1786 -0.5178
   7223SM  H21F 9508   4.761   2.787   7.336  1.0736  0.5579 -2.4233
   7223SM  H21G 9509   4.668   2.642   7.342 -1.0044  1.4100 -0.8653
   7223SM  C22F 9510   4.764   2.666   7.144 -0.4707  0.4132 -0.0938
   7223SM  H22F 9511   4.813   2.571   7.116 -0.7877  0.3841 -0.5746
   7223SM  H22G 9512   4.829   2.743   7.097 -0.7953  1.5255  1.2127
   7223SM  C23F 9513   4.630   2.659   7.075  0.3223  1.0796  0.4133
   7223SM  H23F 9514   4.587   2.558   7.097  0.9923  1.3089  3.1420
   7223SM  H23G 9515   4.629   2.678   6.966 -1.1274  2.6189  0.6558
   7223SM  H23H 9516   4.558   2.732   7.118  0.7518  1.2659  0.8218
   7323SM     N 9517   4.144   0.994  10.392  0.2245 -0.3541  0.5592
   7323SM   C15 9518   4.232   1.090  10.463  0.7489 -0.0091 -0.1999
   7323SM  H15A 9519   4.191   1.110  10.561  0.7450  0.5821 -0.3194
   7323SM  H15B 9520   4.255   1.178  10.406 -0.5604  0.1944 -0.4366
   7323SM  H15C 9521   4.327   1.047  10.492  0.6891 -0.6480 -0.9250
   7323SM   C14 9522   4.119   0.881  10.484  0.3393  0.0250  0.0969
   7323SM  H14A 9523   4.097   0.922  10.581 -3.1596  2.3267 -1.4617
   7323SM  H14B 9524   4.213   0.828  10.491  0.1324 -0.4313 -0.4959
   7323SM  H14C 9525   4.038   0.815  10.457  0.8937 -1.5578  2.0408
   7323SM   C13 9526   4.015   1.057  10.345 -0.6998 -0.1417  0.1491
   7323SM  H13A 9527   3.949   0.987  10.296  2.3825 -3.2146 -0.0357
   7323SM  H13B 9528   4.034   1.140  10.279  0.7616  1.2318  2.1733
   7323SM  H13C 9529   3.953   1.097  10.424 -2.2845 -0.8895 -0.6554
   7323SM   C12 9530   4.208   0.944  10.265  0.1202 -0.7137  0.2039
   7323SM  H12A 9531   4.161   0.855  10.224  1.9988 -0.7909 -1.9529
   7323SM  H12B 9532   4.303   0.908  10.302 -0.6352 -0.5515  2.5200
   7323SM   C11 9533   4.227   1.036  10.148 -0.0724  0.3191 -0.3411
   7323SM  H11A 9534   4.123   1.047  10.110 -0.0620 -1.0016 -0.7795
   7323SM  H11B 9535   4.285   0.985  10.069  0.5442 -0.8548  0.8431
   7323SM     P 9536   4.267   1.290  10.127  0.0311  0.3088 -0.4611
   7323SM   O13 9537   4.121   1.314  10.118 -0.6021  0.5096 -0.3956
   7323SM   O14 9538   4.337   1.391  10.211  0.5346 -0.0577 -0.3015
   7323SM   O11 9539   4.339   1.276   9.983 -0.3530 -0.0073  0.1289
   7323SM   O12 9540   4.294   1.154  10.193  0.4058  0.2155  0.0255
   7323SM   C1S 9541   4.303   1.185   9.884  0.7962 -0.4342  0.2286
   7323SM   H1S 9542   4.196   1.161   9.904  0.6202 -0.7020 -0.9329
   7323SM   H1T 9543   4.360   1.090   9.883 -0.9598 -1.5500  0.8414
   7323SM    NF 9544   4.259   1.166   9.646  0.1862 -0.2293  0.3946
   7323SM   HNF 9545   4.322   1.119   9.585 -1.4308 -0.0117 -1.5275
   7323SM   C2S 9546   4.323   1.251   9.744 -0.2839  0.1647  0.1241
   7323SM   H2S 9547   4.271   1.349   9.749 -2.4082 -0.8098 -1.3364
   7323SM   C3S 9548   4.478   1.278   9.724 -0.2541 -0.0399  0.2655
   7323SM   H3S 9549   4.532   1.184   9.701  0.8123  0.8078 -0.9097
   7323SM    O3 9550   4.538   1.338   9.838  0.8940 -0.7108 -0.4440
   7323SM   HO3 9551   4.476   1.331   9.912 -0.5542 -1.5653 -1.6643
   7323SM   C4S 9552   4.491   1.375   9.603  0.4419  0.3184  0.5297
   7323SM   H4S 9553   4.464   1.323   9.510 -0.7712 -0.4515  1.2844
   7323SM   C5S 9554   4.506   1.511   9.601 -0.3569 -0.0142 -0.5422
   7323SM   H5S 9555   4.489   1.574   9.689 -1.5454 -0.3703 -0.5000
   7323SM   C6S 9556   4.513   1.591   9.474  0.1098 -0.3966  0.0376
   7323SM   H6S 9557   4.609   1.647   9.474  0.3634 -0.7694 -1.6070
   7323SM   H6T 9558   4.431   1.665   9.475  0.2450 -0.2492  0.3617
   7323SM   C7S 9559   4.506   1.518   9.339 -0.4601  0.5354 -0.0246
   7323SM   H7S 9560   4.419   1.450   9.336  0.0731 -0.1769  0.5119
   7323SM   H7T 9561   4.607   1.474   9.328  0.0506  2.2384 -3.2396
   7323SM   C8S 9562   4.494   1.603   9.213  0.3111 -0.1573  0.2990
   7323SM   H8S 9563   4.565   1.687   9.227  0.9386 -0.6765  0.2955
   7323SM   H8T 9564   4.387   1.629   9.199  0.4076 -0.4673 -1.2705
   7323SM   C9S 9565   4.532   1.533   9.075  0.8305 -0.3359  0.0973
   7323SM   H9S 9566   4.455   1.454   9.060  0.2225  0.1053  0.7991
   7323SM   H9T 9567   4.628   1.483   9.100  0.1565 -0.8625  1.7628
   7323SM  C10S 9568   4.551   1.627   8.958 -0.2921  0.1256 -0.3137
   7323SM  H10S 9569   4.612   1.715   8.988  0.0151 -0.1945  0.0077
   7323SM  H10T 9570   4.452   1.667   8.925 -0.6480 -0.3375  0.1706
   7323SM  C11S 9571   4.626   1.552   8.851  0.2342 -0.4867  0.6256
   7323SM  H11S 9572   4.560   1.471   8.812  1.6199 -1.2812 -0.1512
   7323SM  H11T 9573   4.720   1.505   8.888  0.4261 -1.4341 -0.9592
   7323SM  C12S 9574   4.671   1.622   8.724  0.3236 -0.0459 -0.2714
   7323SM  H12S 9575   4.773   1.665   8.729  0.6683 -0.8132 -0.4212
   7323SM  H12T 9576   4.601   1.706   8.704  1.5978  1.1901  0.3383
   7323SM  C13S 9577   4.670   1.528   8.600  0.0331 -0.2600  0.3099
   7323SM  H13S 9578   4.564   1.515   8.569  0.1194  1.1305 -0.6334
   7323SM  H13T 9579   4.719   1.429   8.617  0.8182  0.1736  0.6146
   7323SM  C14S 9580   4.739   1.573   8.470  0.2686  0.5653  0.1258
   7323SM  H14S 9581   4.710   1.513   8.381  0.3329  3.4425 -1.9784
   7323SM  H14T 9582   4.849   1.567   8.489  0.2826 -1.1773 -0.2997
   7323SM  C15S 9583   4.694   1.710   8.420  1.6433 -0.1756 -0.7429
   7323SM  H15S 9584   4.714   1.786   8.499  0.8446 -2.2818  1.6140
   7323SM  H15T 9585   4.583   1.708   8.419  1.5546 -3.1554  1.3296
   7323SM  C16S 9586   4.756   1.750   8.280 -0.4561 -0.1486 -0.1648
   7323SM  H16S 9587   4.771   1.665   8.209 -0.1669  0.1119 -0.4164
   7323SM  H16T 9588   4.859   1.789   8.295  0.2357 -2.2091  0.8721
   7323SM  C17S 9589   4.673   1.857   8.213 -0.1652  0.1233 -0.0350
   7323SM  H17S 9590   4.699   1.945   8.275  0.8182  0.1141 -0.4169
   7323SM  H17T 9591   4.565   1.832   8.228  0.3325 -2.5147 -0.3542
   7323SM  C18S 9592   4.717   1.880   8.068  0.3551 -0.2878  0.5994
   7323SM  H18S 9593   4.669   1.816   7.990  1.0814 -1.4148  1.0411
   7323SM  H18T 9594   4.826   1.857   8.066  0.6683  1.0691 -2.0832
   7323SM  H18U 9595   4.702   1.986   8.039  0.7114 -0.6000 -0.8096
   7323SM   C1F 9596   4.127   1.153   9.632  0.2053  0.5036  0.7760
   7323SM    OF 9597   4.053   1.228   9.692  0.0950  0.4324  0.0819
   7323SM   C2F 9598   4.076   1.038   9.543  0.6586 -0.1785 -0.4248
   7323SM   H2F 9599   4.002   0.981   9.604  1.7790 -1.3693 -0.1423
   7323SM   H2G 9600   4.162   0.969   9.526  0.3980 -0.2614 -1.4728
   7323SM   C3F 9601   4.017   1.083   9.409 -0.3912 -0.5677  0.5155
   7323SM   H3F 9602   3.923   1.137   9.433 -0.7718  0.0846 -2.2062
   7323SM   H3G 9603   3.986   0.992   9.353 -1.4454  0.1397 -0.0658
   7323SM   C4F 9604   4.104   1.173   9.321  0.2453 -0.6471 -0.7369
   7323SM   H4F 9605   4.193   1.113   9.291 -0.2375 -2.1307  0.6538
   7323SM   H4G 9606   4.153   1.254   9.378  2.6963 -1.6243 -1.3327
   7323SM   C5F 9607   4.035   1.219   9.194 -0.3193 -0.4692  0.4363
   7323SM   H5F 9608   3.984   1.315   9.214 -2.2896 -1.1552 -0.9610
   7323SM   H5G 9609   3.951   1.148   9.179 -0.8339  0.0210  0.9511
   7323SM   C6F 9610   4.137   1.239   9.082 -0.5173  0.7911  0.8697
   7323SM   H6F 9611   4.183   1.138   9.072  0.1037  1.1766 -0.3487
   7323SM   H6G 9612   4.223   1.306   9.104  0.2503  0.1713 -0.1235
   7323SM   C7F 9613   4.071   1.283   8.950 -0.3002  0.9642 -0.5306
   7323SM   H7F 9614   4.018   1.380   8.965 -1.4595  0.1809  0.6712
   7323SM   H7G 9615   3.995   1.205   8.929  0.6394 -0.4571  1.0892
   7323SM   C8F 9616   4.168   1.293   8.834  0.5217 -0.2705  0.2857
   7323SM   H8F 9617   4.207   1.190   8.817 -1.0639 -0.7123 -0.9372
   7323SM   H8G 9618   4.246   1.360   8.876 -1.0118  0.8373  1.4667
   7323SM   C9F 9619   4.120   1.360   8.711  0.5693 -0.6013  0.2372
   7323SM   H9F 9620   4.082   1.463   8.725 -0.0006 -0.3031 -2.7199
   7323SM   H9G 9621   4.034   1.298   8.677  2.2587 -2.7317 -0.4069
   7323SM  C10F 9622   4.219   1.368   8.598 -0.0723 -0.4189 -0.0883
   7323SM  H10F 9623   4.264   1.266   8.592 -0.3795 -0.6609  1.2609
   7323SM  H10G 9624   4.297   1.435   8.638  0.4309 -1.3507  0.5342
   7323SM  C11F 9625   4.158   1.416   8.466  0.3821  0.1388  0.4564
   7323SM  H11F 9626   4.109   1.515   8.479  0.7537  0.4518 -0.4990
   7323SM  H11G 9627   4.071   1.348   8.452 -0.3657  1.2077 -0.1979
   7323SM  C12F 9628   4.243   1.415   8.338  0.1461  0.6235  0.0684
   7323SM  H12F 9629   4.179   1.422   8.247 -0.4073  2.0691  0.5447
   7323SM  H12G 9630   4.305   1.323   8.345  0.5207  1.0206  3.0928
   7323SM  C13F 9631   4.331   1.538   8.324 -0.2048 -0.1129 -0.4844
   7323SM  H13F 9632   4.388   1.564   8.416 -2.7899 -0.8164  1.4250
   7323SM  H13G 9633   4.272   1.630   8.306  0.4462  0.9787  2.3422
   7323SM  C14F 9634   4.436   1.504   8.218  0.3215  1.0982 -0.1635
   7323SM  H14F 9635   4.509   1.426   8.249 -0.5512 -1.0153 -2.9394
   7323SM  H14G 9636   4.497   1.593   8.191  0.4828  1.0685  0.1063
   7323SM  C15F 9637   4.382   1.461   8.087  0.5633  0.3130 -0.2570
   7323SM  H15F 9638   4.302   1.536   8.067  0.6044  0.1448 -1.0812
   7323SM  H15G 9639   4.339   1.359   8.080  0.1250  0.4578  0.2873
   7323SM  C16F 9640   4.491   1.449   7.982 -0.1301  0.5127  0.4264
   7323SM  H16F 9641   4.560   1.369   8.018 -0.8442 -1.4088 -2.1577
   7323SM  H16G 9642   4.554   1.540   7.985  1.9674 -0.8630  0.3413
   7323SM  C17F 9643   4.437   1.413   7.841  0.0589 -0.4291  0.4967
   7323SM  H17F 9644   4.524   1.418   7.773  0.4507 -0.1345  1.0032
   7323SM  H17G 9645   4.366   1.492   7.807  0.4967 -0.0262  0.5051
   7323SM  C18F 9646   4.361   1.281   7.830  0.3732 -0.4655  0.0834
   7323SM  H18F 9647   4.269   1.289   7.892  0.1846 -1.3409 -0.0677
   7323SM  H18G 9648   4.412   1.189   7.865  0.7349  0.1886  1.3377
   7323SM  C19F 9649   4.312   1.252   7.693  0.3159  0.4374  0.3711
   7323SM  H19F 9650   4.249   1.328   7.641  0.5302  0.6963  0.4835
   7323SM  H19G 9651   4.245   1.164   7.701 -0.3150  1.0450  2.2536
   7323SM  C20F 9652   4.428   1.210   7.596  0.2654 -1.0845 -0.1853
   7323SM  H20F 9653   4.501   1.153   7.657  1.9933  0.7185 -0.5014
   7323SM  H20G 9654   4.479   1.307   7.576  0.8199 -0.9608  1.6132
   7323SM  C21F 9655   4.385   1.129   7.470  0.5012 -0.5108 -0.1149
   7323SM  H21F 9656   4.362   1.197   7.386 -2.1275  0.1421  1.0233
   7323SM  H21G 9657   4.281   1.093   7.486  0.6972 -1.9687 -1.7871
   7323SM  C22F 9658   4.475   1.015   7.439 -0.1156  0.0945  0.1519
   7323SM  H22F 9659   4.522   0.971   7.530  1.2399  1.0898 -0.0328
   7323SM  H22G 9660   4.563   1.057   7.385 -0.9287  1.8968  0.1606
   7323SM  C23F 9661   4.425   0.906   7.350 -0.1025  0.6125 -0.2675
   7323SM  H23F 9662   4.488   0.816   7.333 -0.1789  0.5462 -0.2038
   7323SM  H23G 9663   4.400   0.950   7.251  0.7365 -0.2893 -0.9008
   7323SM  H23H 9664   4.334   0.869   7.402  0.5795 -1.5679 -0.5319
   7423SM     N 9665   0.085   3.265  10.121  0.1180  0.6781 -0.5313
   7423SM   C15 9666   0.165   3.351  10.207  0.4578 -0.1729 -0.2924
   7423SM  H15A 9667   0.209   3.301  10.292  0.3476  2.0179  1.1378
   7423SM  H15B 9668   0.113   3.439  10.243 -1.0415 -0.8036 -0.7960
   7423SM  H15C 9669   0.252   3.389  10.155  1.7345 -0.4966  1.5464
   7423SM   C14 9670   0.165   3.143  10.081 -0.4303  0.2472  0.5482
   7423SM  H14A 9671   0.116   3.080  10.008 -0.2570 -0.0150  0.6585
   7423SM  H14B 9672   0.176   3.080  10.168  0.0430  1.2500  1.2312
   7423SM  H14C 9673   0.260   3.171  10.039  0.3884 -1.6320  1.0702
   7423SM   C13 9674  -0.041   3.235  10.193 -0.0004  0.1777  0.3502
   7423SM  H13A 9675  -0.101   3.323  10.208  0.6652  0.8142 -0.6323
   7423SM  H13B 9676  -0.029   3.187  10.289 -1.4293  1.2297  1.0884
   7423SM  H13C 9677  -0.099   3.165  10.136 -1.1635  1.5524 -0.2163
   7423SM   C12 9678   0.042   3.337   9.999  0.0468 -0.3240 -0.6352
   7423SM  H12A 9679  -0.006   3.430  10.025 -0.7096 -1.3949  2.2812
   7423SM  H12B 9680  -0.028   3.271   9.950 -0.0435 -1.3995  0.8630
   7423SM   C11 9681   0.162   3.370   9.905  0.8405  0.0941  0.4299
   7423SM  H11A 9682   0.110   3.436   9.831  0.8841 -0.8498 -0.4586
   7423SM  H11B 9683   0.192   3.275   9.856  0.6089 -0.1682  0.7982
   7423SM     P 9684   0.433   3.398   9.942 -0.0677  0.3207 -0.2746
   7423SM   O13 9685   0.510   3.478  10.036 -0.4936 -0.0646 -0.2979
   7423SM   O14 9686   0.456   3.251   9.950  0.0144 -0.5073  0.2730
   7423SM   O11 9687   0.476   3.452   9.800  0.8606 -0.0970 -0.5279
   7423SM   O12 9688   0.282   3.431   9.958  0.8771  0.2571  0.3711
   7423SM   C1S 9689   0.383   3.541   9.731  0.1979 -0.5152  0.5700
   7423SM   H1S 9690   0.370   3.633   9.791 -1.2495 -0.4635  0.2030
   7423SM   H1T 9691   0.283   3.494   9.723  0.7817 -2.1768  2.2654
   7423SM    NF 9692   0.383   3.710   9.541 -0.3258 -0.1553 -0.1989
   7423SM   HNF 9693   0.295   3.696   9.496 -0.7513 -1.9785  1.0998
   7423SM   C2S 9694   0.448   3.586   9.592 -0.0840  0.1578  0.0620
   7423SM   H2S 9695   0.546   3.631   9.618 -0.2409  1.3400 -1.2382
   7423SM   C3S 9696   0.464   3.465   9.491  0.0778 -0.6177 -0.0737
   7423SM   H3S 9697   0.362   3.427   9.473  0.4836 -1.7074 -0.1465
   7423SM    O3 9698   0.529   3.350   9.543  0.1566 -0.7460 -0.3216
   7423SM   HO3 9699   0.512   3.358   9.637  0.1000  0.9479 -0.4484
   7423SM   C4S 9700   0.518   3.505   9.362 -0.3493  0.7088 -0.6974
   7423SM   H4S 9701   0.434   3.517   9.293 -1.0405  0.0296  0.0029
   7423SM   C5S 9702   0.651   3.522   9.330  0.4003  0.3432  0.3953
   7423SM   H5S 9703   0.725   3.507   9.410 -0.9201 -0.2570  1.5618
   7423SM   C6S 9704   0.704   3.578   9.195  0.3852  0.3163  0.1612
   7423SM   H6S 9705   0.798   3.528   9.163  0.3164  0.6651 -0.6039
   7423SM   H6T 9706   0.726   3.685   9.217 -0.2628  0.8612 -1.6202
   7423SM   C7S 9707   0.614   3.561   9.067  0.0173 -0.1025  0.5192
   7423SM   H7S 9708   0.523   3.616   9.099  0.4147  1.3225 -0.6842
   7423SM   H7T 9709   0.593   3.455   9.043  0.7084 -0.1847  0.2442
   7423SM   C8S 9710   0.679   3.625   8.942 -0.0509  0.4724 -0.3309
   7423SM   H8S 9711   0.777   3.586   8.907  0.7190  1.5683  0.5018
   7423SM   H8T 9712   0.707   3.729   8.972  0.1240  0.1418  0.7192
   7423SM   C9S 9713   0.590   3.638   8.820  0.4571  0.0627 -0.2198
   7423SM   H9S 9714   0.496   3.693   8.845 -0.2399 -0.3177 -1.8460
   7423SM   H9T 9715   0.560   3.543   8.770 -0.3350 -1.0078  2.1284
   7423SM  C10S 9716   0.653   3.721   8.707  0.5226  0.1619 -1.0321
   7423SM  H10S 9717   0.753   3.683   8.678  1.2333  1.3607 -0.2220
   7423SM  H10T 9718   0.673   3.825   8.739 -1.7441  0.2070  0.4985
   7423SM  C11S 9719   0.559   3.745   8.588 -0.3069 -0.2033 -0.0789
   7423SM  H11S 9720   0.487   3.825   8.613 -1.0953 -0.6550 -0.8262
   7423SM  H11T 9721   0.517   3.652   8.545 -0.3537  0.3991 -1.3724
   7423SM  C12S 9722   0.635   3.785   8.455  0.1523 -0.2692  0.1702
   7423SM  H12S 9723   0.696   3.701   8.416  0.4152 -0.2057  0.4400
   7423SM  H12T 9724   0.706   3.868   8.477  2.2876 -2.1811  0.8779
   7423SM  C13S 9725   0.549   3.827   8.336 -0.4766 -0.6872  0.0389
   7423SM  H13S 9726   0.480   3.907   8.370 -0.6846 -1.1028  0.6103
   7423SM  H13T 9727   0.486   3.739   8.309 -0.3623 -0.4915 -0.8936
   7423SM  C14S 9728   0.642   3.856   8.213 -0.3813 -0.3859  0.3209
   7423SM  H14S 9729   0.705   3.767   8.190  1.0312  1.0291 -1.7387
   7423SM  H14T 9730   0.702   3.947   8.234 -0.0500 -0.7917  1.1504
   7423SM  C15S 9731   0.563   3.881   8.083 -0.4772  0.4883 -0.6548
   7423SM  H15S 9732   0.513   3.980   8.093  1.2365  1.5146 -1.6769
   7423SM  H15T 9733   0.486   3.802   8.067  1.9729 -2.2346  0.0415
   7423SM  C16S 9734   0.644   3.871   7.956  0.5955  0.2996  1.1389
   7423SM  H16S 9735   0.576   3.875   7.868 -2.1201 -3.0218  2.8671
   7423SM  H16T 9736   0.702   3.777   7.953 -1.2187 -0.8752  1.6056
   7423SM  C17S 9737   0.749   3.986   7.931  0.5831  0.2961 -0.3818
   7423SM  H17S 9738   0.806   3.983   8.026 -0.3860 -1.4763  0.1988
   7423SM  H17T 9739   0.692   4.080   7.922  2.5616  1.7231  1.1431
   7423SM  C18S 9740   0.832   3.961   7.807  0.7568 -0.3726  0.3700
   7423SM  H18S 9741   0.766   3.921   7.727 -0.1638 -0.4307  1.1406
   7423SM  H18T 9742   0.914   3.889   7.827  0.1555 -1.7097 -1.6709
   7423SM  H18U 9743   0.885   4.054   7.777 -1.0566  0.3796 -0.6735
   7423SM   C1F 9744   0.408   3.835   9.582  0.0286  0.0568  0.6453
   7423SM    OF 9745   0.486   3.867   9.677  0.0611  0.4873  0.6809
   7423SM   C2F 9746   0.327   3.940   9.516 -0.4675  0.3199 -0.2524
   7423SM   H2F 9747   0.219   3.917   9.526 -0.4080 -0.2433 -0.8328
   7423SM   H2G 9748   0.344   3.940   9.406  2.9809  0.9843  0.1857
   7423SM   C3F 9749   0.374   4.081   9.562 -0.1463  0.2618 -0.0052
   7423SM   H3F 9750   0.483   4.093   9.550  0.6166 -4.4095  0.0885
   7423SM   H3G 9751   0.355   4.074   9.671 -0.8968 -1.9063 -0.2214
   7423SM   C4F 9752   0.292   4.199   9.513 -0.1579  0.5074 -0.3256
   7423SM   H4F 9753   0.330   4.294   9.555  1.3382  0.4273 -1.4190
   7423SM   H4G 9754   0.183   4.185   9.531  0.4107 -1.6147  1.8384
   7423SM   C5F 9755   0.315   4.221   9.361  0.5104  0.4380 -0.6511
   7423SM   H5F 9756   0.267   4.138   9.305  3.1685 -0.5030 -1.7013
   7423SM   H5G 9757   0.422   4.196   9.348  0.1312 -3.7488  2.2529
   7423SM   C6F 9758   0.291   4.365   9.318  0.6245 -0.2669 -0.3901
   7423SM   H6F 9759   0.358   4.431   9.376  0.4181  1.2017 -1.7625
   7423SM   H6G 9760   0.188   4.392   9.351  0.4617 -0.9252 -0.3455
   7423SM   C7F 9761   0.297   4.364   9.167  0.1736 -0.3033  0.5653
   7423SM   H7F 9762   0.221   4.293   9.126 -0.5361  1.5436 -1.5608
   7423SM   H7G 9763   0.396   4.321   9.143  0.5298  0.0621  1.3706
   7423SM   C8F 9764   0.271   4.500   9.099  0.5092  0.3669 -0.4971
   7423SM   H8F 9765   0.331   4.589   9.131  1.6893  0.5175 -2.9201
   7423SM   H8G 9766   0.165   4.520   9.124  0.3490 -0.0287 -0.8465
   7423SM   C9F 9767   0.281   4.494   8.954 -0.1450 -0.2828  0.1306
   7423SM   H9F 9768   0.207   4.421   8.914 -1.7564  0.5155  1.5193
   7423SM   H9G 9769   0.380   4.454   8.924 -1.5147 -0.9648 -4.0892
   7423SM  C10F 9770   0.265   4.623   8.878 -0.3308  0.5155  0.4348
   7423SM  H10F 9771   0.342   4.699   8.905 -0.7074  0.8862  0.4790
   7423SM  H10G 9772   0.166   4.667   8.905  0.9237  2.0196  2.9364
   7423SM  C11F 9773   0.264   4.603   8.724 -0.3201 -0.7972  0.2253
   7423SM  H11F 9774   0.207   4.513   8.691 -2.4492 -0.1415  1.9132
   7423SM  H11G 9775   0.374   4.587   8.710 -0.1647 -0.1345  0.6799
   7423SM  C12F 9776   0.215   4.729   8.651  0.3427  0.0535 -0.4475
   7423SM  H12F 9777   0.255   4.824   8.694  0.9860 -1.2985  2.0824
   7423SM  H12G 9778   0.104   4.733   8.658 -0.0493 -1.8548 -3.5537
   7423SM  C13F 9779   0.246   4.714   8.500 -0.3997  0.7051  0.1853
   7423SM  H13F 9780   0.190   4.623   8.469  2.4242 -2.0446  2.5203
   7423SM  H13G 9781   0.350   4.682   8.477 -0.0683  1.2399  0.9326
   7423SM  C14F 9782   0.207   4.836   8.412 -0.2590  0.2050 -0.2395
   7423SM  H14F 9783   0.256   4.930   8.445 -0.9622 -0.1246  1.9277
   7423SM  H14G 9784   0.099   4.852   8.436  0.2554  1.9885  1.0908
   7423SM  C15F 9785   0.234   4.804   8.263 -0.5809 -0.6282  0.3767
   7423SM  H15F 9786   0.215   4.694   8.264 -1.2596 -0.5193 -0.0938
   7423SM  H15G 9787   0.335   4.833   8.229 -1.0003 -0.6326 -0.9261
   7423SM  C16F 9788   0.130   4.867   8.170 -0.1483 -0.0469  0.6892
   7423SM  H16F 9789   0.135   4.976   8.190 -2.9321 -0.1027  2.2281
   7423SM  H16G 9790   0.024   4.839   8.191 -0.1033  0.3221  1.4702
   7423SM  C17F 9791   0.148   4.836   8.018  0.1528 -0.1905 -0.1802
   7423SM  H17F 9792   0.079   4.912   7.973 -1.2237 -2.0042 -1.2992
   7423SM  H17G 9793   0.104   4.734   8.009 -0.9583  0.2229  0.3071
   7423SM  C18F 9794   0.284   4.852   7.959  0.1046 -0.1242 -0.2577
   7423SM  H18F 9795   0.346   4.770   8.001 -0.0537 -0.5675 -0.8777
   7423SM  H18G 9796   0.326   4.948   7.997 -1.2579 -0.2519  1.7449
   7423SM  C19F 9797   0.292   4.852   7.806 -0.3597 -0.4890  0.0137
   7423SM  H19F 9798   0.392   4.885   7.770  0.2624 -1.3164  0.9340
   7423SM  H19G 9799   0.211   4.919   7.771 -1.0587 -1.8030 -1.0072
   7423SM  C20F 9800   0.266   4.712   7.736 -0.7717  1.0374  0.2033
   7423SM  H20F 9801   0.214   4.645   7.807  1.0948 -2.2054 -1.2917
   7423SM  H20G 9802   0.368   4.671   7.721 -1.1447 -0.3242  1.2456
   7423SM  C21F 9803   0.201   4.723   7.604  0.2595  0.0478  0.1885
   7423SM  H21F 9804   0.213   4.639   7.532  0.0402  0.5243 -0.4118
   7423SM  H21G 9805   0.231   4.809   7.540  0.9756 -0.2492  0.1165
   7423SM  C22F 9806   0.047   4.746   7.610 -0.2497  0.1357 -0.5711
   7423SM  H22F 9807   0.024   4.826   7.684 -0.7024 -0.5345  0.0285
   7423SM  H22G 9808   0.011   4.655   7.663  0.9417 -0.3742 -0.6108
   7423SM  C23F 9809  -0.033   4.761   7.478  0.0367 -0.0658  0.2874
   7423SM  H23F 9810  -0.028   4.660   7.434 -1.6297 -0.5688  1.1919
   7423SM  H23G 9811   0.028   4.827   7.412  1.1542  1.5628  2.7723
   7423SM  H23H 9812  -0.138   4.796   7.486 -0.7069 -2.4818  2.8856
   7523SM     N 9813   5.802   5.331  10.385 -0.1100 -0.1700 -0.4176
   7523SM   C15 9814   5.805   5.472  10.402 -0.1944 -0.6238  0.1762
   7523SM  H15A 9815   5.740   5.506  10.480  0.4120 -2.2746  1.4475
   7523SM  H15B 9816   5.770   5.529  10.317  0.7874 -0.6311 -0.2565
   7523SM  H15C 9817   5.901   5.513  10.431 -0.5880 -1.3587  2.7362
   7523SM   C14 9818   5.882   5.276  10.506  0.3042 -0.1516 -0.3953
   7523SM  H14A 9819   5.982   5.316  10.507 -0.2793  1.3882 -1.2904
   7523SM  H14B 9820   5.889   5.168  10.512  0.8244 -0.0559  1.6708
   7523SM  H14C 9821   5.833   5.323  10.590  1.1616  0.7765 -0.4030
   7523SM   C13 9822   5.662   5.285  10.391 -0.0578 -0.5502 -0.6785
   7523SM  H13A 9823   5.620   5.299  10.292  0.0000 -0.4805 -0.6930
   7523SM  H13B 9824   5.612   5.348  10.462 -0.8551 -0.8573 -0.9563
   7523SM  H13C 9825   5.665   5.180  10.416  1.1858 -0.2768  0.4232
   7523SM   C12 9826   5.868   5.279  10.262 -1.0869 -0.2570 -0.3520
   7523SM  H12A 9827   5.856   5.171  10.262 -1.0288 -0.2720 -1.6326
   7523SM  H12B 9828   5.974   5.301  10.263 -1.4027  1.3286  0.5935
   7523SM   C11 9829   5.816   5.333  10.125 -0.0279 -0.1824  0.0979
   7523SM  H11A 9830   5.718   5.288  10.101  0.8936 -0.9182 -2.6052
   7523SM  H11B 9831   5.883   5.287  10.049  0.9577  2.4981 -0.7593
   7523SM     P 9832   5.698   5.562  10.078 -0.0206 -0.3822 -0.5258
   7523SM   O13 9833   5.579   5.517  10.157  0.1725 -0.0391 -0.1494
   7523SM   O14 9834   5.746   5.700  10.096 -0.2541  0.0101  0.3547
   7523SM   O11 9835   5.688   5.528   9.927  0.9558  0.2001  0.2498
   7523SM   O12 9836   5.822   5.469  10.108  0.0994  0.0643  0.3081
   7523SM   C1S 9837   5.777   5.577   9.829  0.1417 -0.5752  0.5777
   7523SM   H1S 9838   5.879   5.545   9.860 -0.0093 -1.3547  0.2963
   7523SM   H1T 9839   5.780   5.688   9.822 -0.4574 -0.5393  0.8591
   7523SM    NF 9840   5.858   5.586   9.603 -0.0344 -0.0986  0.3061
   7523SM   HNF 9841   5.832   5.654   9.536  0.4112 -1.6984 -1.5662
   7523SM   C2S 9842   5.749   5.519   9.681 -0.0137  0.1176 -1.0101
   7523SM   H2S 9843   5.768   5.410   9.684 -0.9575 -0.0218  1.5923
   7523SM   C3S 9844   5.605   5.551   9.633  0.4310  0.4241 -0.4615
   7523SM   H3S 9845   5.593   5.661   9.634 -0.1040  0.3868  1.7598
   7523SM    O3 9846   5.491   5.520   9.720 -0.1361 -0.3795  0.2043
   7523SM   HO3 9847   5.532   5.493   9.802  1.0035 -2.5976 -0.9835
   7523SM   C4S 9848   5.591   5.485   9.500  1.0677 -0.3111  1.2126
   7523SM   H4S 9849   5.555   5.381   9.501  0.1017 -0.0321 -0.7028
   7523SM   C5S 9850   5.592   5.544   9.378  0.0861 -0.4565 -0.4698
   7523SM   H5S 9851   5.608   5.653   9.378 -1.1772 -0.2555 -1.0619
   7523SM   C6S 9852   5.563   5.490   9.243  0.0980 -0.5291 -0.2047
   7523SM   H6S 9853   5.489   5.555   9.191 -0.9062 -1.6611 -0.2417
   7523SM   H6T 9854   5.510   5.393   9.243 -0.6512 -0.1285 -0.4117
   7523SM   C7S 9855   5.700   5.490   9.185  0.0916 -0.6230  0.2837
   7523SM   H7S 9856   5.765   5.423   9.245 -1.2854 -1.8108  0.4989
   7523SM   H7T 9857   5.736   5.595   9.189 -0.0986 -0.5426 -0.0765
   7523SM   C8S 9858   5.694   5.437   9.041 -0.6553 -0.2131  0.0064
   7523SM   H8S 9859   5.631   5.349   9.016  0.2978 -0.7050 -0.7105
   7523SM   H8T 9860   5.800   5.408   9.027 -0.4279  0.4749  0.2276
   7523SM   C9S 9861   5.657   5.545   8.938 -0.1484  0.1124 -0.0608
   7523SM   H9S 9862   5.719   5.637   8.950 -0.4505  0.5128 -1.4068
   7523SM   H9T 9863   5.551   5.567   8.961 -0.0110  0.5419  0.1689
   7523SM  C10S 9864   5.657   5.485   8.801 -0.3991  0.0811 -0.1356
   7523SM  H10S 9865   5.599   5.552   8.735 -0.2547 -0.5659 -0.9371
   7523SM  H10T 9866   5.595   5.394   8.813 -2.0082  1.0863 -0.5206
   7523SM  C11S 9867   5.801   5.464   8.742  0.4000 -0.6789 -0.1938
   7523SM  H11S 9868   5.842   5.380   8.801 -0.9167 -1.3684 -0.2202
   7523SM  H11T 9869   5.869   5.551   8.755  1.1623 -1.2983  0.0004
   7523SM  C12S 9870   5.796   5.442   8.590 -0.2427 -0.1398 -0.7114
   7523SM  H12S 9871   5.745   5.524   8.535  2.1530  2.1663  0.2964
   7523SM  H12T 9872   5.740   5.346   8.584  0.4628 -0.6034  0.0162
   7523SM  C13S 9873   5.936   5.425   8.519  0.5255 -0.3285 -0.7719
   7523SM  H13S 9874   6.000   5.349   8.570  2.0672  1.2545 -0.2585
   7523SM  H13T 9875   6.003   5.512   8.533  2.5312 -1.8238 -0.6232
   7523SM  C14S 9876   5.916   5.377   8.377  0.2857 -0.5923  0.1411
   7523SM  H14S 9877   5.829   5.309   8.378  1.7720 -2.5764 -0.3924
   7523SM  H14T 9878   6.005   5.317   8.348  1.7128  0.2896  2.4110
   7523SM  C15S 9879   5.901   5.495   8.280 -0.4455  0.0065  0.4177
   7523SM  H15S 9880   5.985   5.567   8.284  0.3918 -0.6939 -2.3957
   7523SM  H15T 9881   5.801   5.535   8.307 -1.9033 -3.3040  0.3527
   7523SM  C16S 9882   5.891   5.462   8.134  0.2162  0.2266  0.1185
   7523SM  H16S 9883   5.837   5.367   8.115  2.0022 -0.1071 -4.7679
   7523SM  H16T 9884   5.988   5.455   8.081  0.5446  1.3634  0.5283
   7523SM  C17S 9885   5.817   5.577   8.062  0.6815 -0.4673 -0.2959
   7523SM  H17S 9886   5.867   5.675   8.078  0.4285 -0.5695  1.2599
   7523SM  H17T 9887   5.714   5.592   8.100  0.9074 -0.3633  0.2964
   7523SM  C18S 9888   5.803   5.542   7.917  0.2364 -0.6784 -0.2379
   7523SM  H18S 9889   5.739   5.451   7.913 -1.5183  0.4099  1.3175
   7523SM  H18T 9890   5.899   5.507   7.873 -1.5664 -2.1829 -3.2834
   7523SM  H18U 9891   5.749   5.615   7.853 -0.7911 -0.4817  0.8214
   7523SM   C1F 9892   5.981   5.542   9.605  0.4855  0.3276 -0.5704
   7523SM    OF 9893   6.012   5.443   9.674 -0.1987 -0.7443  0.1890
   7523SM   C2F 9894   6.075   5.602   9.514 -0.7207  0.0150  0.2236
   7523SM   H2F 9895   6.179   5.582   9.548 -0.4539 -0.4675 -0.8310
   7523SM   H2G 9896   6.071   5.713   9.511  1.0653  0.1493  1.1337
   7523SM   C3F 9897   6.067   5.543   9.370  0.2953  0.7745 -0.4919
   7523SM   H3F 9898   5.959   5.552   9.344 -0.8312 -1.3870  2.8395
   7523SM   H3G 9899   6.086   5.433   9.376  0.4475  0.8406  0.3257
   7523SM   C4F 9900   6.162   5.593   9.266 -0.6435  0.0986  0.0484
   7523SM   H4F 9901   6.266   5.561   9.289 -0.3011  0.0637 -1.4575
   7523SM   H4G 9902   6.161   5.703   9.255 -1.8167  0.0171 -0.9219
   7523SM   C5F 9903   6.132   5.541   9.120  0.1767 -0.4765  0.2176
   7523SM   H5F 9904   6.171   5.616   9.048  0.4245  0.1189  0.9510
   7523SM   H5G 9905   6.021   5.540   9.119  0.0820  1.5698  1.8672
   7523SM   C6F 9906   6.189   5.396   9.099 -0.8045 -0.4498 -0.4301
   7523SM   H6F 9907   6.152   5.335   9.184 -0.5054 -0.2475 -0.1499
   7523SM   H6G 9908   6.299   5.409   9.098 -0.8451  0.7307  1.9387
   7523SM   C7F 9909   6.128   5.335   8.973 -0.2890  0.2378 -0.4751
   7523SM   H7F 9910   6.018   5.346   8.985 -0.3602  0.1837 -1.0596
   7523SM   H7G 9911   6.135   5.224   8.981  1.5302  0.3151 -0.6376
   7523SM   C8F 9912   6.189   5.395   8.848 -0.3960  0.2168  0.8170
   7523SM   H8F 9913   6.185   5.506   8.858  0.1600  0.1945  1.3300
   7523SM   H8G 9914   6.122   5.359   8.767 -0.9729  3.6802 -0.4603
   7523SM   C9F 9915   6.334   5.350   8.815  0.0297 -0.1380 -0.4945
   7523SM   H9F 9916   6.322   5.244   8.783  0.0890 -0.0332 -0.8759
   7523SM   H9G 9917   6.398   5.352   8.905 -0.2334  0.1223 -0.3102
   7523SM  C10F 9918   6.402   5.427   8.700  0.6556  0.3714  0.3130
   7523SM  H10F 9919   6.505   5.387   8.686  0.1320 -0.6529 -0.7677
   7523SM  H10G 9920   6.398   5.537   8.711  0.8649  0.4605 -0.4359
   7523SM  C11F 9921   6.336   5.407   8.563 -0.8329  0.1187  0.2488
   7523SM  H11F 9922   6.235   5.453   8.576 -0.3128  1.1721  0.6737
   7523SM  H11G 9923   6.337   5.299   8.534 -1.5126  0.3825 -0.8263
   7523SM  C12F 9924   6.409   5.492   8.450  0.3820  0.2684 -0.0102
   7523SM  H12F 9925   6.497   5.434   8.415  0.2669  0.3650 -0.4635
   7523SM  H12G 9926   6.442   5.595   8.471 -0.8013  0.3173  1.8239
   7523SM  C13F 9927   6.318   5.498   8.324 -0.0153  0.2686 -0.0717
   7523SM  H13F 9928   6.234   5.568   8.345 -0.1514  0.2017 -0.3786
   7523SM  H13G 9929   6.291   5.393   8.299  2.2832  0.2969 -3.3326
   7523SM  C14F 9930   6.393   5.564   8.211 -0.1933  0.4959 -0.0907
   7523SM  H14F 9931   6.494   5.520   8.194  0.0302  0.2726  1.6753
   7523SM  H14G 9932   6.403   5.672   8.235  2.0808  0.5557 -1.0640
   7523SM  C15F 9933   6.314   5.545   8.082  0.0193  0.3359  0.2329
   7523SM  H15F 9934   6.222   5.607   8.089 -0.6957 -0.7958  1.1720
   7523SM  H15G 9935   6.299   5.437   8.058  0.1188  0.3449  0.1279
   7523SM  C16F 9936   6.383   5.588   7.951 -0.0145 -0.1763  0.4039
   7523SM  H16F 9937   6.474   5.525   7.942  0.1664  0.2309 -1.0288
   7523SM  H16G 9938   6.413   5.695   7.962  2.1247 -0.3794 -2.2656
   7523SM  C17F 9939   6.284   5.570   7.831  0.0492 -0.6528  0.3150
   7523SM  H17F 9940   6.191   5.631   7.835 -0.9664 -1.8513 -2.3961
   7523SM  H17G 9941   6.270   5.460   7.831  1.7887 -0.9063  0.0341
   7523SM  C18F 9942   6.339   5.604   7.688 -0.4892 -0.8798  0.2440
   7523SM  H18F 9943   6.443   5.567   7.681 -0.4536 -0.9243  0.8956
   7523SM  H18G 9944   6.351   5.714   7.683 -0.6757 -0.8753 -0.1027
   7523SM  C19F 9945   6.252   5.544   7.579 -0.2510  0.6029  1.0957
   7523SM  H19F 9946   6.145   5.574   7.570  0.0176  1.2346 -0.2709
   7523SM  H19G 9947   6.260   5.433   7.567  3.1129  0.8990 -0.5741
   7523SM  C20F 9948   6.304   5.581   7.436 -0.1814 -0.0999  0.0781
   7523SM  H20F 9949   6.317   5.691   7.441 -0.4549  0.1675 -2.9666
   7523SM  H20G 9950   6.233   5.553   7.355 -0.9511  2.9107 -0.4134
   7523SM  C21F 9951   6.439   5.509   7.404  0.0019  0.0065 -0.2964
   7523SM  H21F 9952   6.429   5.399   7.402 -1.1330  0.0612  0.7585
   7523SM  H21G 9953   6.513   5.526   7.486  2.5882 -2.1082 -2.0153
   7523SM  C22F 9954   6.498   5.556   7.272  0.0950  0.1747 -0.1320
   7523SM  H22F 9955   6.518   5.665   7.263 -0.5381  0.1448 -2.5686
   7523SM  H22G 9956   6.430   5.533   7.188  1.1113 -1.4833 -0.5504
   7523SM  C23F 9957   6.626   5.479   7.228 -0.2288  0.1225  0.4560
   7523SM  H23F 9958   6.687   5.486   7.320 -0.9517  2.7859  0.8112
   7523SM  H23G 9959   6.683   5.544   7.159  1.7913 -1.6227  0.3956
   7523SM  H23H 9960   6.607   5.380   7.181 -0.3914 -0.2460  1.2766
   7623SM     N 9961   1.274   5.148  10.187  0.0526  0.0615  0.0656
   7623SM   C15 9962   1.191   5.097  10.300 -0.4690  0.8049 -0.0367
   7623SM  H15A 9963   1.221   5.150  10.390  0.2922  0.2878  0.0252
   7623SM  H15B 9964   1.196   4.990  10.314 -2.9134  0.8412  1.7456
   7623SM  H15C 9965   1.085   5.108  10.286 -1.1263 -1.3902  2.3697
   7623SM   C14 9966   1.247   5.302  10.183  0.7155 -0.0496  0.2607
   7623SM  H14A 9967   1.302   5.358  10.109 -0.8553  0.3472 -0.6617
   7623SM  H14B 9968   1.248   5.352  10.278  1.6623 -2.0895  1.3856
   7623SM  H14C 9969   1.150   5.308  10.136  1.1273 -1.4730 -0.8489
   7623SM   C13 9970   1.417   5.129  10.215  0.0470 -0.7869  0.7172
   7623SM  H13A 9971   1.439   5.025  10.234  0.5758 -0.6314  0.9765
   7623SM  H13B 9972   1.443   5.184  10.304 -3.6755 -0.4095  1.7441
   7623SM  H13C 9973   1.482   5.153  10.132 -0.7293 -0.9284  0.0542
   7623SM   C12 9974   1.234   5.083  10.047  0.1947 -0.4548 -0.6905
   7623SM  H12A 9975   1.296   5.137   9.977 -0.6191 -0.6451 -1.5660
   7623SM  H12B 9976   1.132   5.106  10.021  0.7544  0.7052 -1.9574
   7623SM   C11 9977   1.266   4.931  10.036  0.7464 -0.7040  0.3385
   7623SM  H11A 9978   1.371   4.918  10.072  0.9982 -1.0149 -0.4890
   7623SM  H11B 9979   1.262   4.900   9.930  2.4236  0.8102 -0.2141
   7623SM     P 9980   1.117   4.724  10.087  0.0186 -0.2550 -0.3041
   7623SM   O13 9981   1.226   4.637  10.123 -0.8329  0.1208  0.0711
   7623SM   O14 9982   0.983   4.704  10.150  0.1275  0.0341 -0.0254
   7623SM   O11 9983   1.090   4.716   9.932 -0.1813 -0.3599 -0.2094
   7623SM   O12 9984   1.163   4.868  10.106  1.0590  0.6334 -0.0632
   7623SM   C1S 9985   1.109   4.587   9.860  0.1709 -0.6471  0.1751
   7623SM   H1S 9986   1.055   4.503   9.908 -3.1664  2.4634  2.3714
   7623SM   H1T 9987   1.216   4.567   9.840 -0.1733 -0.4434 -2.1508
   7623SM    NF 9988   1.008   4.471   9.668  0.3950  0.6012  0.1564
   7623SM   HNF 9989   1.058   4.432   9.591  0.7721 -0.3216  0.8482
   7623SM   C2S 9990   1.053   4.600   9.718  0.5811 -0.8545 -0.1350
   7623SM   H2S 9991   0.967   4.670   9.723  2.9000  2.0810  2.0330
   7623SM   C3S 9992   1.150   4.683   9.625 -0.0276  0.1717  0.1842
   7623SM   H3S 9993   1.237   4.615   9.620  0.5512  0.5645  3.1451
   7623SM    O3 9994   1.214   4.795   9.691 -0.0164  0.0977  0.0728
   7623SM   HO3 9995   1.179   4.785   9.780  0.9880  0.3017  0.5041
   7623SM   C4S 9996   1.095   4.706   9.489  0.5339 -0.2208 -0.2128
   7623SM   H4S 9997   1.128   4.628   9.419  0.2682 -0.6538  0.1366
   7623SM   C5S 9998   1.038   4.816   9.437  1.4745  0.0179  0.0093
   7623SM   H5S 9999   1.016   4.904   9.499 -1.7192 -1.0487  0.6008
   7623SM   C6S10000   1.009   4.844   9.291 -0.4971 -0.5956  0.5202
   7623SM   H6S10001   1.042   4.948   9.269  0.4923 -1.2428 -1.2433
   7623SM   H6T10002   0.899   4.838   9.274 -0.5145 -1.1003  0.7905
   7623SM   C7S10003   1.070   4.745   9.186 -0.2955  0.0549  0.2722
   7623SM   H7S10004   1.020   4.647   9.204 -3.8469  1.9082  1.2934
   7623SM   H7T10005   1.180   4.741   9.201 -0.0325  2.5470 -0.5529
   7623SM   C8S10006   1.048   4.796   9.040  0.0273 -0.0681 -0.1922
   7623SM   H8S10007   1.103   4.891   9.020  2.8243 -1.6864 -0.6897
   7623SM   H8T10008   0.938   4.813   9.044 -0.0101 -0.4815  1.2342
   7623SM   C9S10009   1.096   4.698   8.927 -0.6490 -0.0267 -0.9060
   7623SM   H9S10010   1.035   4.605   8.929 -0.2867 -0.2588 -0.3297
   7623SM   H9T10011   1.200   4.661   8.944  0.2729  2.4094 -0.9091
   7623SM  C10S10012   1.093   4.748   8.786  0.1343  0.1476  0.7823
   7623SM  H10S10013   1.158   4.838   8.784  1.3216 -0.6971  0.0576
   7623SM  H10T10014   0.988   4.774   8.759 -0.1394  0.1921  1.8438
   7623SM  C11S10015   1.135   4.655   8.675 -0.1098 -0.3991  0.1134
   7623SM  H11S10016   1.089   4.555   8.691 -0.6027 -0.2938 -0.5856
   7623SM  H11T10017   1.246   4.653   8.673 -0.0908 -0.2528 -2.5251
   7623SM  C12S10018   1.091   4.703   8.534 -0.2827 -0.3890  0.7002
   7623SM  H12S10019   1.133   4.804   8.514  1.2481 -1.2257 -0.5098
   7623SM  H12T10020   0.980   4.714   8.540 -0.0656  1.3486  2.3061
   7623SM  C13S10021   1.132   4.600   8.424 -0.0916 -0.1390  0.2178
   7623SM  H13S10022   1.126   4.490   8.442 -2.0717 -0.3963 -1.5493
   7623SM  H13T10023   1.240   4.612   8.400  0.1059 -2.0686 -0.0511
   7623SM  C14S10024   1.064   4.644   8.294  0.0044 -0.6578 -0.3039
   7623SM  H14S10025   1.078   4.752   8.275 -0.6847 -0.6038 -0.5350
   7623SM  H14T10026   0.956   4.625   8.314  0.4245 -0.8268  2.0175
   7623SM  C15S10027   1.124   4.584   8.171  0.0154 -0.4481 -0.2007
   7623SM  H15S10028   1.232   4.561   8.176  0.5578  1.9580  0.6114
   7623SM  H15T10029   1.106   4.654   8.087  0.1713 -0.0856  0.0677
   7623SM  C16S10030   1.048   4.457   8.128  0.0820  0.0680 -0.1826
   7623SM  H16S10031   0.939   4.478   8.129  0.3853  1.8596 -1.0774
   7623SM  H16T10032   1.050   4.388   8.216 -0.2000 -0.1655 -0.3575
   7623SM  C17S10033   1.111   4.386   8.012 -0.0293  0.3834  0.5176
   7623SM  H17S10034   1.069   4.283   8.017  0.4607  0.2247  1.8383
   7623SM  H17T10035   1.222   4.382   8.003 -0.2267 -0.2608 -2.3010
   7623SM  C18S10036   1.066   4.451   7.873  0.2442 -0.5087  0.3502
   7623SM  H18S10037   1.090   4.389   7.784 -0.4660  1.7451 -1.5209
   7623SM  H18T10038   1.130   4.538   7.846  0.4329 -1.1893 -1.5563
   7623SM  H18U10039   0.956   4.468   7.876  0.5365  1.7468  0.1004
   7623SM   C1F10040   0.905   4.396   9.712 -0.9451 -0.4797 -0.7170
   7623SM    OF10041   0.846   4.428   9.813  0.2932 -0.0759 -0.0293
   7623SM   C2F10042   0.868   4.277   9.630 -0.0007  0.9318  0.7078
   7623SM   H2F10043   0.882   4.188   9.694 -1.5169  0.5545  0.5711
   7623SM   H2G10044   0.932   4.269   9.540  1.3031 -0.2191  1.6868
   7623SM   C3F10045   0.717   4.272   9.589  0.5185 -0.2207  0.3584
   7623SM   H3F10046   0.665   4.260   9.686 -2.8911 -0.0073 -1.2930
   7623SM   H3G10047   0.702   4.181   9.527  0.1704 -0.4822  0.8232
   7623SM   C4F10048   0.677   4.401   9.513  0.2895  0.2498 -0.2257
   7623SM   H4F10049   0.705   4.486   9.577 -0.6911  1.4936 -1.3854
   7623SM   H4G10050   0.572   4.399   9.477  0.0457  0.4226  0.4841
   7623SM   C5F10051   0.748   4.420   9.378  0.6084  0.2954  0.2448
   7623SM   H5F10052   0.755   4.323   9.324 -0.5882  0.2935  0.0527
   7623SM   H5G10053   0.848   4.464   9.396  0.5893  0.1775  0.6459
   7623SM   C6F10054   0.671   4.507   9.286  0.1708 -0.0822  0.4154
   7623SM   H6F10055   0.689   4.615   9.305 -0.5574  0.3814 -1.4161
   7623SM   H6G10056   0.563   4.490   9.308 -0.2188  0.0169 -1.3222
   7623SM   C7F10057   0.702   4.495   9.132  0.0434 -0.3976 -0.3457
   7623SM   H7F10058   0.656   4.404   9.089  0.1298 -0.9951  0.8012
   7623SM   H7G10059   0.811   4.477   9.140 -0.2529 -1.6495  1.1246
   7623SM   C8F10060   0.678   4.620   9.051 -0.2092 -0.1153  0.3891
   7623SM   H8F10061   0.738   4.708   9.082 -1.0331 -0.3077  2.7339
   7623SM   H8G10062   0.570   4.645   9.063  0.0336  1.6730 -0.8212
   7623SM   C9F10063   0.718   4.590   8.904  0.2001  0.0671  0.2062
   7623SM   H9F10064   0.658   4.501   8.877 -1.3997  0.4177  2.3579
   7623SM   H9G10065   0.827   4.567   8.896 -0.1543 -1.0879 -1.6056
   7623SM  C10F10066   0.677   4.705   8.805  0.2384 -0.0683 -0.8564
   7623SM  H10F10067   0.742   4.794   8.818 -0.0016  0.2037 -1.4912
   7623SM  H10G10068   0.574   4.739   8.830  1.2295  0.7433  2.8021
   7623SM  C11F10069   0.677   4.658   8.661  0.0166 -0.9948 -0.7235
   7623SM  H11F10070   0.598   4.590   8.623 -1.3944  0.6637 -0.8939
   7623SM  H11G10071   0.772   4.606   8.636  0.3292 -0.7345 -0.0887
   7623SM  C12F10072   0.670   4.791   8.573 -0.2195  0.0177 -0.1694
   7623SM  H12F10073   0.735   4.877   8.600 -2.5204  1.9434 -0.4387
   7623SM  H12G10074   0.572   4.839   8.595 -0.0137  0.2513  0.2538
   7623SM  C13F10075   0.688   4.767   8.421 -0.4160 -0.1247  0.6428
   7623SM  H13F10076   0.634   4.676   8.387  1.2697 -0.0551 -2.6339
   7623SM  H13G10077   0.795   4.745   8.402 -1.0424 -1.8028 -1.1856
   7623SM  C14F10078   0.647   4.886   8.338 -0.2207  0.1249  0.3504
   7623SM  H14F10079   0.707   4.978   8.355  0.5439 -0.5806  1.6139
   7623SM  H14G10080   0.545   4.914   8.370  0.9607 -0.6025  5.7956
   7623SM  C15F10081   0.631   4.859   8.187  0.0077 -0.2288 -0.7762
   7623SM  H15F10082   0.605   4.953   8.135 -1.2335  0.6807  1.3465
   7623SM  H15G10083   0.556   4.778   8.172 -0.1553 -0.4844  1.0921
   7623SM  C16F10084   0.759   4.803   8.132 -0.0526 -0.3801 -0.2547
   7623SM  H16F10085   0.765   4.693   8.148  0.5523 -0.4514 -0.9396
   7623SM  H16G10086   0.847   4.849   8.182 -0.3776  1.8719 -1.5871
   7623SM  C17F10087   0.765   4.850   7.987 -0.2557 -0.4402 -0.0766
   7623SM  H17F10088   0.756   4.961   7.981 -2.1319 -0.5147  0.8065
   7623SM  H17G10089   0.681   4.802   7.932  0.4899  0.1063 -1.7848
   7623SM  C18F10090   0.890   4.800   7.910 -0.7265  0.2053  0.8318
   7623SM  H18F10091   0.885   4.694   7.875 -0.9834  0.1771  0.9547
   7623SM  H18G10092   0.985   4.819   7.965 -1.1493  0.3619  1.5227
   7623SM  C19F10093   0.917   4.884   7.788  0.3929 -0.3250  0.2861
   7623SM  H19F10094   0.937   4.986   7.827  0.4861  0.1625 -0.9711
   7623SM  H19G10095   0.819   4.895   7.737 -0.0570  2.1091  1.5485
   7623SM  C20F10096   1.017   4.830   7.685  0.0741  0.8583 -0.0053
   7623SM  H20F10097   1.011   4.721   7.708  0.5588  0.7789 -0.2462
   7623SM  H20G10098   1.124   4.857   7.692  0.3892 -0.4922  0.6136
   7623SM  C21F10099   0.972   4.843   7.537 -0.5259 -0.4556 -0.3826
   7623SM  H21F10100   0.975   4.950   7.508  0.1863  0.0623  1.4488
   7623SM  H21G10101   0.872   4.797   7.525 -2.1400  2.4707  0.8301
   7623SM  C22F10102   1.070   4.771   7.452  0.3741  0.0476  0.4413
   7623SM  H22F10103   1.056   4.664   7.479 -0.0813  0.0581  0.2587
   7623SM  H22G10104   1.171   4.802   7.486 -0.2830  0.0301  2.5209
   7623SM  C23F10105   1.044   4.785   7.296  0.2646 -0.3974 -0.4739
   7623SM  H23F10106   1.105   4.871   7.259 -0.3762  1.1087  1.7764
   7623SM  H23G10107   0.936   4.805   7.280 -0.0456 -0.1389  1.6415
   7623SM  H23H10108   1.073   4.693   7.241 -2.8114 -2.6498  1.4159
   7723SM     N10109   0.442   2.065  10.080  0.4542 -0.3380 -0.3571
   7723SM   C1510110   0.384   2.161   9.983  0.1545  0.3763 -0.1808
   7723SM  H15A10111   0.338   2.246  10.031 -0.4007  1.6050 -2.6944
   7723SM  H15B10112   0.319   2.113   9.911  2.0000 -1.2274 -0.8669
   7723SM  H15C10113   0.464   2.202   9.923 -0.5730  1.0910 -0.6801
   7723SM   C1410114   0.506   2.140  10.190 -0.4894 -0.5735  0.3211
   7723SM  H14A10115   0.594   2.186  10.148  0.2478 -2.7802 -0.6715
   7723SM  H14B10116   0.523   2.072  10.272 -2.3198 -0.6488  0.6873
   7723SM  H14C10117   0.445   2.219  10.230 -0.5578 -0.0074 -0.8534
   7723SM   C1310118   0.335   1.986  10.149 -0.0571  0.2392  0.1707
   7723SM  H13A10119   0.372   1.905  10.211 -0.8289 -0.5752 -0.4073
   7723SM  H13B10120   0.269   1.932  10.084  1.1389 -1.4671  0.2864
   7723SM  H13C10121   0.275   2.040  10.220  0.0048 -0.2117  0.5744
   7723SM   C1210122   0.536   1.976  10.005  0.7309  0.0979 -0.6434
   7723SM  H12A10123   0.577   1.902  10.072 -1.4950 -1.8526 -1.2753
   7723SM  H12B10124   0.619   2.038   9.974  0.8596  1.3375  1.9798
   7723SM   C1110125   0.484   1.905   9.877  0.4559  0.5583  0.0306
   7723SM  H11A10126   0.562   1.864   9.809 -0.1412 -0.0560 -0.3005
   7723SM  H11B10127   0.428   1.968   9.804 -0.4695 -1.2590 -0.9075
   7723SM     P10128   0.467   1.651   9.973  0.1837 -0.3639  0.0904
   7723SM   O1310129   0.614   1.658   9.982 -0.1712 -0.6691 -0.6069
   7723SM   O1410130   0.389   1.607  10.091 -0.0428  0.0552 -0.0161
   7723SM   O1110131   0.431   1.555   9.854 -0.3868 -0.1407 -0.6674
   7723SM   O1210132   0.406   1.788   9.914 -0.0971  0.3111 -0.7230
   7723SM   C1S10133   0.306   1.541   9.788 -0.1481 -0.1211  0.0920
   7723SM   H1S10134   0.226   1.602   9.834 -0.4329 -1.4333  1.4492
   7723SM   H1T10135   0.270   1.436   9.794  1.3348 -0.9661 -3.4593
   7723SM    NF10136   0.173   1.566   9.578  0.0461  0.1883 -0.5128
   7723SM   HNF10137   0.132   1.480   9.548  2.0344 -0.2423 -2.2374
   7723SM   C2S10138   0.308   1.570   9.635 -0.1572 -0.2872  0.4646
   7723SM   H2S10139   0.349   1.669   9.606  1.4623 -1.2203 -0.6046
   7723SM   C3S10140   0.409   1.468   9.565 -0.4174 -0.5798 -0.4740
   7723SM   H3S10141   0.375   1.365   9.589  0.5622 -1.1194 -1.3229
   7723SM    O310142   0.539   1.474   9.630  0.4162 -0.3549 -0.3076
   7723SM   HO310143   0.530   1.526   9.711  1.0329 -1.3448  0.4245
   7723SM   C4S10144   0.421   1.477   9.414 -0.1067 -0.0880  0.6285
   7723SM   H4S10145   0.483   1.561   9.377 -1.5073  1.2444  1.1728
   7723SM   C5S10146   0.361   1.391   9.330 -0.8608  0.2330  0.2674
   7723SM   H5S10147   0.306   1.303   9.367  0.7373 -1.2538 -0.7245
   7723SM   C6S10148   0.377   1.404   9.181  0.4606  0.7913 -0.4338
   7723SM   H6S10149   0.442   1.484   9.138  1.7138  0.7074  1.1970
   7723SM   H6T10150   0.274   1.431   9.150 -0.3090  0.9128  1.9762
   7723SM   C7S10151   0.408   1.265   9.114 -0.4343  0.2854  0.5108
   7723SM   H7S10152   0.350   1.177   9.150 -0.3342  0.0613  0.1271
   7723SM   H7T10153   0.514   1.233   9.122 -0.1053  0.8831 -1.0923
   7723SM   C8S10154   0.379   1.280   8.960 -0.0424  0.5996 -0.2985
   7723SM   H8S10155   0.416   1.382   8.936  1.3819  0.2223  0.2109
   7723SM   H8T10156   0.270   1.281   8.941 -0.0525 -1.7803 -0.6446
   7723SM   C9S10157   0.452   1.178   8.879 -0.4656 -0.5112 -0.1694
   7723SM   H9S10158   0.426   1.076   8.915 -0.6287 -0.3508  0.1702
   7723SM   H9T10159   0.560   1.177   8.907 -0.9335 -0.0084  1.8051
   7723SM  C10S10160   0.426   1.188   8.722 -0.6436 -0.5343 -0.3980
   7723SM  H10S10161   0.493   1.116   8.672 -0.8989 -0.4887 -0.8079
   7723SM  H10T10162   0.465   1.290   8.699 -0.2576 -0.0259  2.1307
   7723SM  C11S10163   0.283   1.152   8.672 -0.0483 -0.1241  0.3803
   7723SM  H11S10164   0.205   1.189   8.742  0.2608  1.3387 -0.0118
   7723SM  H11T10165   0.273   1.042   8.663  0.6183 -0.4985  3.1970
   7723SM  C12S10166   0.250   1.218   8.536  0.1806  0.2513  0.0644
   7723SM  H12S10167   0.245   1.329   8.547 -0.7920  0.2643 -0.4589
   7723SM  H12T10168   0.154   1.178   8.498  0.6060 -1.5761  0.8066
   7723SM  C13S10169   0.346   1.186   8.429 -0.3236 -0.1583 -0.0935
   7723SM  H13S10170   0.367   1.077   8.430 -0.2000 -0.1363 -0.4415
   7723SM  H13T10171   0.444   1.234   8.451 -0.6045  0.9397 -1.0867
   7723SM  C14S10172   0.300   1.228   8.290  1.0269 -0.2874  0.4926
   7723SM  H14S10173   0.199   1.184   8.277  0.0717  0.5411  3.9258
   7723SM  H14T10174   0.374   1.179   8.224  1.6471  1.4633 -0.1706
   7723SM  C15S10175   0.297   1.381   8.267  0.5517  1.0249 -0.4552
   7723SM  H15S10176   0.390   1.433   8.296  0.9279  0.8059 -1.2253
   7723SM  H15T10177   0.225   1.418   8.342 -0.2186 -0.8161 -0.2459
   7723SM  C16S10178   0.257   1.411   8.125  0.1905  0.0452 -0.4491
   7723SM  H16S10179   0.148   1.397   8.113  0.0851  1.0576 -0.7879
   7723SM  H16T10180   0.318   1.354   8.052 -1.5535  0.0383 -1.9723
   7723SM  C17S10181   0.267   1.566   8.110 -0.3715  0.2882  0.0130
   7723SM  H17S10182   0.374   1.586   8.134  0.1732 -1.4398 -0.8100
   7723SM  H17T10183   0.206   1.611   8.191 -0.0792  1.0193 -0.1699
   7723SM  C18S10184   0.221   1.632   7.973 -0.3732  0.3510  0.0871
   7723SM  H18S10185   0.112   1.655   7.971 -0.8906 -1.8665 -0.9730
   7723SM  H18T10186   0.249   1.554   7.898  0.6120  0.5954  0.1986
   7723SM  H18U10187   0.282   1.721   7.949 -1.3133  0.8861 -0.3828
   7723SM   C1F10188   0.085   1.664   9.588  0.3512 -0.7635  0.2992
   7723SM    OF10189   0.117   1.769   9.643  0.3141  0.0268  0.2552
   7723SM   C2F10190  -0.048   1.649   9.531  0.0919 -0.0324  0.3612
   7723SM   H2F10191  -0.116   1.720   9.583  0.1733  1.5551 -1.5929
   7723SM   H2G10192  -0.094   1.552   9.557 -1.8809  0.7931  0.0811
   7723SM   C3F10193  -0.077   1.680   9.377  0.0761  0.2561  0.0485
   7723SM   H3F10194  -0.035   1.778   9.345 -1.7125  1.3141  0.7808
   7723SM   H3G10195  -0.188   1.678   9.368  0.1964  1.5761 -2.5198
   7723SM   C4F10196  -0.031   1.572   9.283  0.0769 -0.0102 -0.5165
   7723SM   H4F10197  -0.088   1.478   9.295 -0.0192 -0.0726 -1.4421
   7723SM   H4G10198   0.076   1.549   9.303 -0.4224  0.0995  2.8537
   7723SM   C5F10199  -0.052   1.612   9.133  0.2151 -0.0193 -0.4601
   7723SM   H5F10200   0.021   1.692   9.105 -0.5277  0.6285 -0.5891
   7723SM   H5G10201  -0.154   1.646   9.107  0.5975  1.6437  0.0858
   7723SM   C6F10202  -0.019   1.491   9.046  0.6622 -0.6833 -0.4345
   7723SM   H6F10203  -0.089   1.408   9.067  1.0906 -1.0128 -0.2876
   7723SM   H6G10204   0.081   1.447   9.067  1.3562  0.0268 -2.0852
   7723SM   C7F10205  -0.057   1.513   8.896 -1.1050 -0.4014 -0.4541
   7723SM   H7F10206   0.018   1.580   8.849 -1.2677 -0.5656 -0.9572
   7723SM   H7G10207  -0.157   1.563   8.896 -0.5277  0.7999  0.7120
   7723SM   C8F10208  -0.049   1.386   8.813  0.4846  0.2297  0.3600
   7723SM   H8F10209  -0.128   1.319   8.854  0.5666  0.5673  1.0673
   7723SM   H8G10210   0.043   1.325   8.826  0.0085 -0.1729  2.0909
   7723SM   C9F10211  -0.087   1.404   8.668  0.2248 -0.3455 -0.0954
   7723SM   H9F10212  -0.011   1.467   8.617 -0.7253  1.0622  0.1686
   7723SM   H9G10213  -0.185   1.453   8.651  0.2430 -0.9690 -2.2200
   7723SM  C10F10214  -0.107   1.276   8.587 -0.3003 -0.5139 -0.2513
   7723SM  H10F10215  -0.208   1.239   8.615 -0.6739  0.4400 -0.3026
   7723SM  H10G10216  -0.030   1.216   8.639  0.7998  1.1067  0.0440
   7723SM  C11F10217  -0.085   1.260   8.437  1.1767 -0.2863  0.4264
   7723SM  H11F10218  -0.070   1.154   8.408  0.9238  0.1029 -1.2468
   7723SM  H11G10219   0.006   1.313   8.401  0.4247  1.5070  1.0572
   7723SM  C12F10220  -0.203   1.317   8.357  0.7486  0.0230 -0.2727
   7723SM  H12F10221  -0.226   1.425   8.369 -1.4125 -0.3519 -0.6378
   7723SM  H12G10222  -0.298   1.268   8.386 -0.6486  2.4391 -0.5224
   7723SM  C13F10223  -0.172   1.295   8.213 -0.2057 -0.0056 -0.1031
   7723SM  H13F10224  -0.164   1.184   8.202 -1.3936  0.0459 -1.8402
   7723SM  H13G10225  -0.078   1.343   8.179 -1.7295  2.3829 -1.1892
   7723SM  C14F10226  -0.286   1.351   8.125 -0.2530 -0.5162 -0.1656
   7723SM  H14F10227  -0.292   1.461   8.143  0.1876 -0.8790  2.5720
   7723SM  H14G10228  -0.389   1.316   8.148 -0.7411  1.7809  1.5257
   7723SM  C15F10229  -0.264   1.312   7.973 -0.2044  0.1654  0.9493
   7723SM  H15F10230  -0.351   1.341   7.910 -1.1270 -1.6683  1.3216
   7723SM  H15G10231  -0.249   1.202   7.966  0.3956  0.2107  1.4241
   7723SM  C16F10232  -0.142   1.386   7.909 -0.2289 -0.2873 -0.2211
   7723SM  H16F10233  -0.061   1.355   7.978 -0.7496  1.0370  1.0559
   7723SM  H16G10234  -0.145   1.494   7.936 -0.5296 -0.3787  0.1308
   7723SM  C17F10235  -0.122   1.360   7.762 -0.4503 -0.4794  0.7888
   7723SM  H17F10236  -0.073   1.261   7.751  0.9061  0.3806 -1.7507
   7723SM  H17G10237  -0.048   1.438   7.730 -0.8235 -0.4931 -0.1409
   7723SM  C18F10238  -0.244   1.377   7.671 -0.2689 -0.1807  0.5096
   7723SM  H18F10239  -0.278   1.481   7.689  0.2340  0.1740 -0.5601
   7723SM  H18G10240  -0.328   1.312   7.704  0.3075 -1.5437 -0.5919
   7723SM  C19F10241  -0.211   1.369   7.519 -0.1808  0.1595  0.2836
   7723SM  H19F10242  -0.162   1.274   7.489  1.4841  1.7630 -2.5695
   7723SM  H19G10243  -0.141   1.451   7.488 -2.9136  2.2180 -0.8243
   7723SM  C20F10244  -0.342   1.391   7.432 -0.3125 -0.4369  0.3191
   7723SM  H20F10245  -0.359   1.498   7.457 -1.7593 -1.4500  4.3119
   7723SM  H20G10246  -0.433   1.342   7.472 -0.7555 -1.4357 -1.7578
   7723SM  C21F10247  -0.334   1.349   7.285 -0.2098 -0.4541  0.5546
   7723SM  H21F10248  -0.320   1.240   7.272  2.4166 -0.0055 -1.2557
   7723SM  H21G10249  -0.244   1.398   7.240 -0.2084  0.2608  1.3025
   7723SM  C22F10250  -0.444   1.405   7.182 -0.2384  0.2570 -0.0507
   7723SM  H22F10251  -0.448   1.515   7.193  0.7163  0.3029 -0.0569
   7723SM  H22G10252  -0.540   1.355   7.207 -1.1627  1.8384 -0.3405
   7723SM  C23F10253  -0.418   1.359   7.038 -0.0293 -0.4493  0.5510
   7723SM  H23F10254  -0.311   1.370   7.010 -0.3851  1.0022 -0.3175
   7723SM  H23G10255  -0.482   1.418   6.969  0.5404 -0.1074  0.3057
   7723SM  H23H10256  -0.454   1.254   7.038 -0.1192 -0.4323 -0.4980
   7823SM     N10257   0.869   6.363  10.071 -0.1160  0.3106 -0.1416
   7823SM   C1510258   0.804   6.364  10.204 -0.4433 -0.3030  0.0449
   7823SM  H15A10259   0.810   6.268  10.254  0.0327 -0.9349 -1.1758
   7823SM  H15B10260   0.699   6.375  10.181 -0.4657 -0.0461  0.2643
   7823SM  H15C10261   0.845   6.445  10.262  0.8055  0.2153 -1.5005
   7823SM   C1410262   1.019   6.335  10.083 -0.0662 -0.4381 -0.3124
   7823SM  H14A10263   1.054   6.292   9.990  2.3033 -1.0776  0.7881
   7823SM  H14B10264   1.024   6.272  10.171  0.8168 -0.2220 -0.2006
   7823SM  H14C10265   1.064   6.431  10.104 -0.3946 -0.4081  0.3003
   7823SM   C1310266   0.811   6.240   9.998 -0.0022 -0.5909  0.3212
   7823SM  H13A10267   0.703   6.241   9.992 -0.1791  3.9440  0.5966
   7823SM  H13B10268   0.840   6.150  10.050  3.2860 -1.4029 -2.5310
   7823SM  H13C10269   0.847   6.228   9.897 -1.5040 -1.3040 -0.1615
   7823SM   C1210270   0.834   6.489   9.992  0.0366 -0.0931  0.0216
   7823SM  H12A10271   0.726   6.489   9.983 -0.2569 -0.2951  2.7781
   7823SM  H12B10272   0.879   6.477   9.895  2.1867  1.5341  0.7385
   7823SM   C1110273   0.872   6.626  10.057 -0.3456 -0.6331  0.6329
   7823SM  H11A10274   0.806   6.644  10.144  0.5859  2.5103  0.8338
   7823SM  H11B10275   0.844   6.710   9.989 -0.7513 -0.9844  0.3621
   7823SM     P10276   1.116   6.724  10.036  0.2717 -0.3157 -0.3168
   7823SM   O1310277   1.068   6.860  10.064  0.1734 -0.1639 -0.1219
   7823SM   O1410278   1.253   6.689  10.078 -0.7944  0.5965  0.2380
   7823SM   O1110279   1.094   6.684   9.890  0.1906 -0.7868 -0.2844
   7823SM   O1210280   1.007   6.628  10.110 -0.1961 -0.0036  0.0244
   7823SM   C1S10281   1.133   6.558   9.839  0.0642 -0.1450  0.0933
   7823SM   H1S10282   1.069   6.472   9.871  0.2497 -0.4687 -0.3821
   7823SM   H1T10283   1.240   6.537   9.859 -0.0890  0.9395  2.2989
   7823SM    NF10284   1.111   6.423   9.628 -0.2310  0.3061  0.1033
   7823SM   HNF10285   1.187   6.398   9.567 -0.6789 -0.7079 -0.0701
   7823SM   C2S10286   1.107   6.555   9.683  0.0959  0.6372 -0.0951
   7823SM   H2S10287   1.002   6.592   9.674 -0.5848 -1.0350  0.5389
   7823SM   C3S10288   1.207   6.652   9.613  0.2718 -0.0620  0.4839
   7823SM   H3S10289   1.311   6.613   9.621 -0.1076 -1.3032 -0.3856
   7823SM    O310290   1.194   6.789   9.652  0.0839 -0.4777 -0.0253
   7823SM   HO310291   1.132   6.782   9.725 -0.6655 -2.2728 -0.7674
   7823SM   C4S10292   1.172   6.646   9.467  0.4445 -1.0046  0.0111
   7823SM   H4S10293   1.065   6.661   9.451  0.8566 -0.5241 -2.8494
   7823SM   C5S10294   1.238   6.601   9.359 -0.8478 -0.4413  0.0599
   7823SM   H5S10295   1.337   6.555   9.374  0.0066  0.7433 -1.6337
   7823SM   C6S10296   1.178   6.594   9.225  0.3037  0.2747  0.0782
   7823SM   H6S10297   1.249   6.610   9.141  1.1681 -1.0552  0.5144
   7823SM   H6T10298   1.090   6.659   9.206 -1.6007 -2.5286 -1.3886
   7823SM   C7S10299   1.134   6.445   9.204  0.2888  0.2840 -0.8632
   7823SM   H7S10300   1.069   6.422   9.291 -0.5980  0.0091 -1.5696
   7823SM   H7T10301   1.223   6.380   9.217  0.2379  0.5620  1.1052
   7823SM   C8S10302   1.057   6.424   9.073 -0.8066  0.2589 -1.0620
   7823SM   H8S10303   0.979   6.503   9.061 -1.2663 -0.1800 -0.9967
   7823SM   H8T10304   1.014   6.322   9.083  0.5587 -0.1894  0.7715
   7823SM   C9S10305   1.151   6.421   8.950 -0.0053 -0.1739  0.4871
   7823SM   H9S10306   1.189   6.317   8.940 -0.0579 -0.2057  0.6168
   7823SM   H9T10307   1.238   6.490   8.956 -1.3756  1.6604  0.0867
   7823SM  C10S10308   1.086   6.454   8.813 -0.6402  0.3534  0.3532
   7823SM  H10S10309   1.063   6.563   8.801 -1.7863 -0.0769 -1.9397
   7823SM  H10T10310   0.995   6.391   8.821 -0.9517  0.9758  2.3492
   7823SM  C11S10311   1.180   6.407   8.703  0.4795  0.0388 -0.3334
   7823SM  H11S10312   1.230   6.310   8.721  1.0757  0.0787 -1.6975
   7823SM  H11T10313   1.262   6.480   8.685  1.1828 -0.6586 -0.0065
   7823SM  C12S10314   1.107   6.406   8.574  0.6399  0.5406 -0.3501
   7823SM  H12S10315   1.022   6.477   8.578 -0.4119 -0.6958  2.7315
   7823SM  H12T10316   1.057   6.311   8.546  1.5334  0.6580 -2.6064
   7823SM  C13S10317   1.198   6.437   8.450 -0.3150  0.7489  0.5794
   7823SM  H13S10318   1.289   6.373   8.452 -0.2495  0.7653 -1.0417
   7823SM  H13T10319   1.238   6.541   8.444  1.5454  0.0011 -0.8038
   7823SM  C14S10320   1.128   6.403   8.318 -0.6830 -0.2151 -0.5309
   7823SM  H14S10321   1.162   6.454   8.226 -0.3021 -1.3205 -1.0252
   7823SM  H14T10322   1.022   6.436   8.320 -0.5013  0.4660 -1.5034
   7823SM  C15S10323   1.111   6.259   8.282 -0.2388  0.7063 -0.2724
   7823SM  H15S10324   1.025   6.211   8.332 -0.1723  1.4032  0.5277
   7823SM  H15T10325   1.196   6.201   8.325 -1.5265 -1.2877 -0.2681
   7823SM  C16S10326   1.095   6.242   8.124  0.3971  0.1776  0.0341
   7823SM  H16S10327   1.175   6.305   8.081  0.1972  0.4839  0.1064
   7823SM  H16T10328   0.989   6.271   8.105 -0.7720 -2.9548  0.9625
   7823SM  C17S10329   1.121   6.100   8.073  0.0888 -0.7367 -0.4031
   7823SM  H17S10330   1.037   6.035   8.106  2.6398 -2.2825  3.7434
   7823SM  H17T10331   1.217   6.078   8.124  0.2428  2.4833  0.9990
   7823SM  C18S10332   1.148   6.078   7.927 -0.0193 -0.1418  0.1992
   7823SM  H18S10333   1.055   6.093   7.868 -0.2979  1.0147  0.8818
   7823SM  H18T10334   1.174   5.970   7.926 -3.3213 -1.2283  3.8788
   7823SM  H18U10335   1.228   6.144   7.887  0.6776 -0.8023  0.5005
   7823SM   C1F10336   1.012   6.334   9.655  0.2906  0.1466 -0.3634
   7823SM    OF10337   0.906   6.375   9.704  0.5974 -0.7969 -0.2116
   7823SM   C2F10338   1.031   6.193   9.629  0.0454  0.8247 -0.7212
   7823SM   H2F10339   0.958   6.142   9.696  1.3136 -0.0380  0.0322
   7823SM   H2G10340   1.126   6.145   9.659 -1.9215 -2.5971  0.6510
   7823SM   C3F10341   0.976   6.164   9.490  0.4329 -0.0582 -0.1657
   7823SM   H3F10342   1.004   6.058   9.469  0.3547  0.3333 -2.6222
   7823SM   H3G10343   1.040   6.215   9.415  2.5570  0.7614  2.0823
   7823SM   C4F10344   0.825   6.199   9.472 -0.5607  0.1968  0.2679
   7823SM   H4F10345   0.799   6.306   9.458 -0.9278 -0.0783 -1.3722
   7823SM   H4G10346   0.765   6.159   9.556 -0.6638 -0.1362  0.0377
   7823SM   C5F10347   0.761   6.136   9.342  0.0381 -0.1131 -0.3042
   7823SM   H5F10348   0.651   6.144   9.355 -0.2992 -3.0216 -0.7488
   7823SM   H5G10349   0.773   6.026   9.339 -1.6881 -0.3645  0.8927
   7823SM   C6F10350   0.795   6.211   9.210  0.8535  0.1773  0.0782
   7823SM   H6F10351   0.905   6.206   9.196  0.5913 -0.6572 -2.0939
   7823SM   H6G10352   0.758   6.314   9.231 -1.8927 -0.5828 -0.6198
   7823SM   C7F10353   0.718   6.152   9.082  0.0390 -0.1656  0.0863
   7823SM   H7F10354   0.612   6.144   9.114 -0.1263 -0.6110 -0.5496
   7823SM   H7G10355   0.767   6.055   9.062  0.2893  0.4088 -2.5029
   7823SM   C8F10356   0.736   6.236   8.954  0.2585 -0.3749 -0.0777
   7823SM   H8F10357   0.839   6.278   8.954  0.0417  0.2248 -1.2644
   7823SM   H8G10358   0.664   6.320   8.968  2.3588  1.3788  0.6775
   7823SM   C9F10359   0.712   6.166   8.818  0.0484  0.0125  0.0904
   7823SM   H9F10360   0.615   6.113   8.825 -0.3468  0.8489  1.2574
   7823SM   H9G10361   0.800   6.099   8.808  2.4615  3.0281 -0.5509
   7823SM  C10F10362   0.712   6.257   8.691 -0.4043 -0.4007 -0.4560
   7823SM  H10F10363   0.803   6.319   8.699  0.1979 -1.2365 -0.6362
   7823SM  H10G10364   0.629   6.329   8.704  0.4127  0.4044  0.4185
   7823SM  C11F10365   0.710   6.181   8.560  0.3379 -0.4389  0.6921
   7823SM  H11F10366   0.616   6.121   8.552 -0.8666  1.5631 -1.2479
   7823SM  H11G10367   0.794   6.108   8.562  0.2619 -0.6504 -1.6224
   7823SM  C12F10368   0.728   6.271   8.441  0.5748 -0.3530 -0.3293
   7823SM  H12F10369   0.836   6.275   8.416  0.4334 -1.7026 -1.2410
   7823SM  H12G10370   0.706   6.374   8.477 -2.5182 -1.4431  1.3197
   7823SM  C13F10371   0.650   6.223   8.316 -0.4570 -0.3782 -0.8646
   7823SM  H13F10372   0.542   6.211   8.341  0.2106 -2.7757  1.3245
   7823SM  H13G10373   0.691   6.123   8.292 -1.7338 -0.9566 -0.6970
   7823SM  C14F10374   0.669   6.305   8.190  0.0364  0.1047  0.0305
   7823SM  H14F10375   0.777   6.327   8.170 -0.4694  1.6928 -1.1818
   7823SM  H14G10376   0.619   6.402   8.172 -1.0318 -0.7478 -1.8579
   7823SM  C15F10377   0.614   6.225   8.073  0.0916  0.7925 -0.1495
   7823SM  H15F10378   0.506   6.198   8.082  0.4715 -0.9233 -0.4403
   7823SM  H15G10379   0.668   6.128   8.075 -1.6804 -0.3287 -2.3704
   7823SM  C16F10380   0.629   6.307   7.942  0.7119 -0.2334  0.2848
   7823SM  H16F10381   0.722   6.365   7.957 -0.0365  0.8964  0.6647
   7823SM  H16G10382   0.539   6.371   7.932  2.5578  2.1498 -3.2832
   7823SM  C17F10383   0.624   6.232   7.804 -0.2136 -0.0630 -1.2045
   7823SM  H17F10384   0.714   6.168   7.800  0.5414  0.8920 -0.3232
   7823SM  H17G10385   0.630   6.309   7.724  0.4910  0.7590 -0.3875
   7823SM  C18F10386   0.497   6.141   7.783  0.4200 -0.1176  0.7307
   7823SM  H18F10387   0.479   6.085   7.877 -3.0419  0.1754  0.3520
   7823SM  H18G10388   0.509   6.073   7.696 -0.4753  0.0050  0.5064
   7823SM  C19F10389   0.368   6.226   7.759  0.3835 -0.1474  0.9801
   7823SM  H19F10390   0.398   6.315   7.699 -0.7002 -0.0190  0.6148
   7823SM  H19G10391   0.331   6.272   7.853 -0.8199  0.4201  0.2492
   7823SM  C20F10392   0.252   6.143   7.698 -0.1447  1.2541  0.0828
   7823SM  H20F10393   0.205   6.097   7.788  1.1534 -0.5688 -0.1232
   7823SM  H20G10394   0.285   6.053   7.642 -0.4799  0.8970  0.4508
   7823SM  C21F10395   0.170   6.208   7.591  0.5149  0.0003  0.4046
   7823SM  H21F10396   0.228   6.243   7.503 -1.7439 -0.7368 -1.4596
   7823SM  H21G10397   0.117   6.295   7.635  1.5535  0.6654  0.3881
   7823SM  C22F10398   0.055   6.112   7.549  0.0200 -0.4681 -0.3098
   7823SM  H22F10399  -0.021   6.171   7.495 -1.0318 -1.0733  0.4680
   7823SM  H22G10400   0.014   6.073   7.645  1.5607 -1.0436  0.1459
   7823SM  C23F10401   0.091   6.001   7.455 -0.3484 -0.2658  0.2049
   7823SM  H23F10402   0.172   5.943   7.504  1.6607  1.8133 -0.4373
   7823SM  H23G10403   0.117   6.045   7.356  0.9177 -1.2880  0.0572
   7823SM  H23H10404   0.009   5.928   7.445  0.1996 -1.0541  1.2805
   7923SM     N10405   5.733   0.305  10.242  0.2915 -0.0100  0.0870
   7923SM   C1510406   5.797   0.442  10.248  0.6908 -0.0241 -1.0883
   7923SM  H15A10407   5.723   0.517  10.272  1.6855  1.3932 -2.2569
   7923SM  H15B10408   5.836   0.476  10.153  0.2305  0.8932 -0.9605
   7923SM  H15C10409   5.889   0.442  10.305  0.9393  0.4256 -1.4816
   7923SM   C1410410   5.706   0.247  10.381  0.2953 -0.5142 -0.3365
   7923SM  H14A10411   5.796   0.233  10.439  0.4195  0.3014 -0.3262
   7923SM  H14B10412   5.658   0.150  10.378  0.2045 -0.4967  0.3476
   7923SM  H14C10413   5.644   0.318  10.433  2.4352  1.1562  0.0775
   7923SM   C1310414   5.600   0.321  10.179  0.1546  0.7662  0.4298
   7923SM  H13A10415   5.610   0.371  10.083 -0.6840  0.4420  0.1734
   7923SM  H13B10416   5.524   0.370  10.238 -2.5267  1.1957 -3.0515
   7923SM  H13C10417   5.557   0.225  10.157  3.0484  0.1089 -3.7373
   7923SM   C1210418   5.821   0.205  10.168 -0.0642  0.1349  0.2990
   7923SM  H12A10419   5.769   0.111  10.173 -0.3915  0.2614 -0.4906
   7923SM  H12B10420   5.918   0.208  10.215 -0.1354  0.3655  0.4326
   7923SM   C1110421   5.842   0.229  10.017 -0.1298  0.3075  0.3614
   7923SM  H11A10422   5.752   0.229   9.952  0.3166 -0.9416 -0.2879
   7923SM  H11B10423   5.891   0.144   9.966  1.4543  2.1665 -1.4200
   7923SM     P10424   6.087   0.322   9.977  0.4918 -0.6380 -0.1267
   7923SM   O1310425   6.149   0.457   9.997 -0.0887 -0.3550 -0.3920
   7923SM   O1410426   6.141   0.220  10.067  0.2569  0.0148  0.2785
   7923SM   O1110427   6.090   0.275   9.835 -0.2707  0.3695 -0.7363
   7923SM   O1210428   5.928   0.339   9.996 -0.2002 -0.3661  0.0739
   7923SM   C1S10429   6.073   0.354   9.725 -0.4507  0.1286  0.3467
   7923SM   H1S10430   6.147   0.435   9.709  2.4476 -2.5275 -0.7711
   7923SM   H1T10431   5.969   0.393   9.736  0.4708  2.4994  1.1015
   7923SM    NF10432   6.055   0.366   9.484  0.1077 -0.8078  0.2746
   7923SM   HNF10433   5.963   0.376   9.447  0.4556  0.9461 -0.1967
   7923SM   C2S10434   6.071   0.276   9.593 -0.7775  0.3293  0.3912
   7923SM   H2S10435   6.173   0.234   9.595 -0.4858  0.9626 -0.7313
   7923SM   C3S10436   5.972   0.152   9.594  0.9786 -0.3570 -0.2470
   7923SM   H3S10437   5.870   0.194   9.578  1.1847 -0.0112 -0.6797
   7923SM    O310438   5.969   0.076   9.716  0.0644 -0.5983  0.0466
   7923SM   HO310439   6.035   0.120   9.771  0.2666  0.6643 -1.1468
   7923SM   C4S10440   5.987   0.071   9.466 -0.1062  0.2852 -0.0978
   7923SM   H4S10441   5.910   0.089   9.389  0.8151 -1.9014 -1.6494
   7923SM   C5S10442   6.083  -0.020   9.436 -1.3857  0.6233 -0.1057
   7923SM   H5S10443   6.167  -0.039   9.505 -0.0744  3.4714 -0.7870
   7923SM   C6S10444   6.110  -0.105   9.316 -0.2195 -0.2761  0.5740
   7923SM   H6S10445   6.084  -0.212   9.323  2.0666 -0.8151  1.5639
   7923SM   H6T10446   6.220  -0.111   9.306  0.0867  0.5183  2.9289
   7923SM   C7S10447   6.061  -0.045   9.181 -0.3305  0.5165 -0.1010
   7923SM   H7S10448   6.079   0.064   9.189 -0.4547  0.4274  2.1626
   7923SM   H7T10449   5.951  -0.054   9.171 -0.2564  0.0800 -0.5584
   7923SM   C8S10450   6.116  -0.107   9.056 -0.1899 -0.0749 -0.1948
   7923SM   H8S10451   6.095  -0.216   9.054 -0.5538 -0.0056 -1.5140
   7923SM   H8T10452   6.227  -0.107   9.063 -0.2732 -0.3826  1.5030
   7923SM   C9S10453   6.047  -0.065   8.923 -0.2479 -0.0395 -0.1050
   7923SM   H9S10454   6.056   0.045   8.914  0.4988  0.3579  3.6184
   7923SM   H9T10455   5.938  -0.090   8.929  0.0582 -1.1158  3.4215
   7923SM  C10S10456   6.112  -0.141   8.812 -0.1651  0.7213  0.0010
   7923SM  H10S10457   6.103  -0.250   8.830 -2.4059  0.4974 -2.1062
   7923SM  H10T10458   6.223  -0.128   8.807 -0.1762  0.8048 -0.0269
   7923SM  C11S10459   6.046  -0.106   8.675 -0.0335 -0.4566  0.2596
   7923SM  H11S10460   6.045   0.005   8.662 -0.3391 -0.6044 -1.0582
   7923SM  H11T10461   5.939  -0.134   8.662 -0.0459  0.6442 -2.8231
   7923SM  C12S10462   6.118  -0.153   8.546  0.3418  0.1772  0.4528
   7923SM  H12S10463   6.102  -0.260   8.522  2.5982 -0.4811  1.5992
   7923SM  H12T10464   6.227  -0.134   8.555  0.8202 -0.4586 -2.6628
   7923SM  C13S10465   6.065  -0.058   8.434  0.6344  0.0857 -0.2435
   7923SM  H13S10466   6.096   0.047   8.455  0.9767  0.4921 -2.5708
   7923SM  H13T10467   5.955  -0.063   8.418  0.9266  0.1957 -2.5394
   7923SM  C14S10468   6.129  -0.084   8.292  0.0610 -0.4669 -0.7163
   7923SM  H14S10469   6.132  -0.195   8.278 -0.3214 -0.3806 -1.5441
   7923SM  H14T10470   6.235  -0.052   8.290 -0.2217  0.4867 -1.4081
   7923SM  C15S10471   6.056  -0.007   8.180 -0.0110 -0.0842 -0.2223
   7923SM  H15S10472   6.046   0.102   8.199 -0.9234 -0.2891  0.4974
   7923SM  H15T10473   5.951  -0.039   8.168  0.3708 -1.3744 -0.2136
   7923SM  C16S10474   6.127  -0.038   8.046 -0.6582 -0.2137 -0.5505
   7923SM  H16S10475   6.119  -0.147   8.025  0.7017 -0.3712 -0.2895
   7923SM  H16T10476   6.236  -0.020   8.051 -0.8482  2.3686 -2.9705
   7923SM  C17S10477   6.065   0.046   7.937  0.2368 -0.5401  0.0271
   7923SM  H17S10478   6.061   0.152   7.970 -1.2565  0.1575 -2.1768
   7923SM  H17T10479   5.960   0.020   7.910  0.3821 -0.9709 -0.1221
   7923SM  C18S10480   6.151   0.035   7.816  0.3423  0.0598 -0.1196
   7923SM  H18S10481   6.124   0.117   7.746  0.6208  0.0878 -0.1977
   7923SM  H18T10482   6.142  -0.065   7.769  1.0343 -0.2712  0.4422
   7923SM  H18U10483   6.261   0.035   7.836  0.3702  4.2968  0.6808
   7923SM   C1F10484   6.156   0.441   9.438 -0.2531 -0.4237  0.1880
   7923SM    OF10485   6.269   0.425   9.487 -0.2201  0.1493 -0.3844
   7923SM   C2F10486   6.123   0.544   9.339 -0.0596  0.4566  0.2867
   7923SM   H2F10487   6.148   0.645   9.376 -1.9526  1.1448 -0.1909
   7923SM   H2G10488   6.017   0.529   9.307 -0.4110 -0.6138  1.8070
   7923SM   C3F10489   6.208   0.527   9.215 -0.0465 -0.5140  0.3455
   7923SM   H3F10490   6.309   0.507   9.256 -0.1098  1.2166  1.4433
   7923SM   H3G10491   6.198   0.628   9.169  0.1224 -0.4459  0.4547
   7923SM   C4F10492   6.163   0.414   9.116 -0.9207 -0.5756 -0.1841
   7923SM   H4F10493   6.055   0.427   9.094 -1.3861  0.7384  2.3905
   7923SM   H4G10494   6.162   0.316   9.167 -0.1699  0.1504  1.2996
   7923SM   C5F10495   6.261   0.393   9.000  0.0597  0.2998  0.2695
   7923SM   H5F10496   6.366   0.382   9.035  1.1243  0.3725 -2.6303
   7923SM   H5G10497   6.256   0.489   8.945  1.3670  0.2477  0.0335
   7923SM   C6F10498   6.249   0.287   8.888 -0.1588  0.7037 -0.3239
   7923SM   H6F10499   6.144   0.252   8.895  0.2660 -0.2746  3.2871
   7923SM   H6G10500   6.320   0.204   8.909  1.6562  2.4104  0.6045
   7923SM   C7F10501   6.274   0.339   8.741  1.4118 -0.3753 -0.2517
   7923SM   H7F10502   6.379   0.368   8.720  1.1176  1.1411  0.2374
   7923SM   H7G10503   6.210   0.429   8.730  0.3842 -1.1246 -0.5456
   7923SM   C8F10504   6.216   0.249   8.629  0.4634 -0.1740 -0.1781
   7923SM   H8F10505   6.106   0.240   8.631  0.5085 -0.7074  1.5109
   7923SM   H8G10506   6.263   0.149   8.637 -1.3380 -1.0137  0.4215
   7923SM   C9F10507   6.245   0.309   8.487  0.1665  0.8012 -0.1652
   7923SM   H9F10508   6.204   0.408   8.459  1.6706  0.7568 -2.9484
   7923SM   H9G10509   6.201   0.239   8.413  1.8884 -0.0194 -0.4726
   7923SM  C10F10510   6.397   0.304   8.456 -0.1050 -0.2028  0.4251
   7923SM  H10F10511   6.426   0.197   8.462 -0.3100 -0.3208 -0.6033
   7923SM  H10G10512   6.458   0.373   8.519 -1.5922  1.9420 -0.3790
   7923SM  C11F10513   6.420   0.365   8.313 -0.2986  0.6676  0.1091
   7923SM  H11F10514   6.372   0.463   8.293 -0.6562 -0.0660 -3.1531
   7923SM  H11G10515   6.364   0.299   8.244  0.1222 -0.4996  0.8329
   7923SM  C12F10516   6.567   0.374   8.264  0.1251  0.8495 -0.1646
   7923SM  H12F10517   6.621   0.280   8.289 -1.1086  0.2776  0.4467
   7923SM  H12G10518   6.628   0.449   8.319  1.5199 -1.1551  1.2092
   7923SM  C13F10519   6.576   0.405   8.115 -0.6861 -0.1814  0.0325
   7923SM  H13F10520   6.527   0.499   8.084 -0.7721 -0.3080 -0.2221
   7923SM  H13G10521   6.526   0.326   8.055 -0.5114  0.7190 -1.3480
   7923SM  C14F10522   6.713   0.430   8.051 -0.0472 -0.3658 -0.9914
   7923SM  H14F10523   6.775   0.346   8.090 -2.5270 -0.6645  2.8277
   7923SM  H14G10524   6.750   0.528   8.087  0.0818 -0.8942  0.3392
   7923SM  C15F10525   6.717   0.432   7.901 -0.0167  0.1968  0.3834
   7923SM  H15F10526   6.658   0.514   7.854 -0.8116  0.7140  2.1866
   7923SM  H15G10527   6.674   0.340   7.856 -0.0987  0.7976 -0.8281
   7923SM  C16F10528   6.854   0.424   7.843 -0.2745  0.4529 -0.3811
   7923SM  H16F10529   6.913   0.335   7.874 -0.2865  0.7248  0.4647
   7923SM  H16G10530   6.914   0.511   7.876 -0.8602  0.9688 -0.6594
   7923SM  C17F10531   6.864   0.451   7.690  0.1495  0.6776 -0.0882
   7923SM  H17F10532   6.968   0.469   7.655  0.0047  2.5583  0.3318
   7923SM  H17G10533   6.816   0.548   7.665  2.1696  1.4749 -1.1731
   7923SM  C18F10534   6.804   0.333   7.606 -0.7931  0.1106 -0.8032
   7923SM  H18F10535   6.693   0.323   7.612 -0.7424  0.1228  0.3247
   7923SM  H18G10536   6.845   0.233   7.632 -1.7289 -0.5355 -1.7116
   7923SM  C19F10537   6.836   0.357   7.457  0.6295  0.3317 -0.2795
   7923SM  H19F10538   6.935   0.312   7.436  0.1680 -1.6721  1.4544
   7923SM  H19G10539   6.836   0.462   7.421 -2.2233  0.0786 -1.2754
   7923SM  C20F10540   6.742   0.270   7.363 -0.2572 -0.6918 -0.2805
   7923SM  H20F10541   6.640   0.298   7.397  0.0306 -0.8749  0.7985
   7923SM  H20G10542   6.760   0.165   7.395 -1.1739 -0.0730  2.5705
   7923SM  C21F10543   6.765   0.295   7.218  0.2680 -0.0031 -0.2809
   7923SM  H21F10544   6.769   0.405   7.201  0.8500 -0.4131 -3.3854
   7923SM  H21G10545   6.679   0.269   7.152 -2.2665  0.8887  2.4275
   7923SM  C22F10546   6.899   0.241   7.159 -0.0543 -0.1041  0.4806
   7923SM  H22F10547   6.977   0.262   7.235 -3.1536  0.9655  3.6371
   7923SM  H22G10548   6.922   0.295   7.064  2.8379 -0.6210  0.7984
   7923SM  C23F10549   6.892   0.086   7.135  0.6037 -0.6649 -0.3422
   7923SM  H23F10550   6.994   0.047   7.116 -0.4277 -2.5918 -2.3032
   7923SM  H23G10551   6.834   0.071   7.042  0.0528 -1.7002  0.1478
   7923SM  H23H10552   6.850   0.028   7.220  1.0921 -3.5293 -1.9310
   8023SM     N10553   0.202   6.734  10.134 -0.6548 -0.0428  0.1399
   8023SM   C1510554   0.282   6.811  10.026 -0.0341 -0.5575 -0.5725
   8023SM  H15A10555   0.357   6.755   9.973  1.0817 -0.1651  0.5578
   8023SM  H15B10556   0.333   6.891  10.076 -1.8260  1.4396 -1.7445
   8023SM  H15C10557   0.225   6.864   9.950  1.2067 -0.4134 -1.4338
   8023SM   C1410558   0.107   6.820  10.201 -0.0544 -0.3570  0.2165
   8023SM  H14A10559   0.043   6.864  10.126  0.1546 -0.4999 -0.0516
   8023SM  H14B10560   0.154   6.901  10.254  0.2038  1.0758 -2.0901
   8023SM  H14C10561   0.048   6.759  10.268  0.2680 -2.0315 -0.9471
   8023SM   C1310562   0.123   6.628  10.064 -0.5024 -0.2553  0.2769
   8023SM  H13A10563   0.186   6.567  10.001  0.0961  1.2639 -0.6769
   8023SM  H13B10564   0.053   6.683  10.002  0.1402 -0.9235 -1.0763
   8023SM  H13C10565   0.062   6.564  10.127 -0.2856 -2.6666 -1.8001
   8023SM   C1210566   0.300   6.665  10.220 -0.3159  0.0189  0.2259
   8023SM  H12A10567   0.242   6.592  10.274 -2.1127  0.4952 -0.9513
   8023SM  H12B10568   0.342   6.731  10.294  0.4259 -0.2431  0.0419
   8023SM   C1110569   0.413   6.586  10.147 -0.1951  0.9779 -0.0454
   8023SM  H11A10570   0.472   6.532  10.224  0.6422  0.8180 -0.7833
   8023SM  H11B10571   0.481   6.659  10.098 -2.0048  2.3853 -0.6108
   8023SM     P10572   0.444   6.390   9.971  0.3624  0.2991 -0.1173
   8023SM   O1310573   0.549   6.457   9.889  1.1176 -0.4725  0.2630
   8023SM   O1410574   0.491   6.279  10.055 -0.0858 -0.0270 -0.6581
   8023SM   O1110575   0.335   6.331   9.878  0.8260  0.0779 -0.0951
   8023SM   O1210576   0.361   6.494  10.049 -0.5549  0.1712 -0.1224
   8023SM   C1S10577   0.257   6.420   9.791 -0.6903 -0.3064 -0.5180
   8023SM   H1S10578   0.233   6.518   9.837 -1.2680 -0.9590  0.6194
   8023SM   H1T10579   0.154   6.377   9.793 -0.6615 -0.4765  2.9063
   8023SM    NF10580   0.230   6.532   9.570  0.7207 -0.0993 -0.3775
   8023SM   HNF10581   0.153   6.504   9.514 -0.5331 -1.4374  1.8716
   8023SM   C2S10582   0.299   6.428   9.642 -0.9827 -0.6065 -0.1747
   8023SM   H2S10583   0.405   6.460   9.646 -1.4098  0.8082  2.1965
   8023SM   C3S10584   0.301   6.288   9.569 -1.2304 -0.1213 -0.0606
   8023SM   H3S10585   0.198   6.248   9.568 -2.1676  2.1478 -1.0596
   8023SM    O310586   0.376   6.188   9.627 -0.6826 -0.1714 -0.4340
   8023SM   HO310587   0.385   6.220   9.718  2.5096 -1.7898 -0.0546
   8023SM   C4S10588   0.351   6.304   9.436  0.1808  0.4460  0.0626
   8023SM   H4S10589   0.439   6.371   9.433  0.0305  0.8089  2.2221
   8023SM   C5S10590   0.292   6.257   9.321 -0.3992  0.0733 -0.0745
   8023SM   H5S10591   0.197   6.201   9.320 -0.6894  0.5566  0.0038
   8023SM   C6S10592   0.354   6.293   9.193 -0.1687  0.1113 -0.0065
   8023SM   H6S10593   0.397   6.198   9.156  0.7311  0.4985  0.0183
   8023SM   H6T10594   0.441   6.361   9.207  0.3978 -0.3189 -1.3027
   8023SM   C7S10595   0.257   6.347   9.086  0.1406 -0.6110 -0.3703
   8023SM   H7S10596   0.195   6.432   9.122 -0.7904 -0.8696 -1.3095
   8023SM   H7T10597   0.181   6.267   9.076 -0.5161  0.2051 -2.4651
   8023SM   C8S10598   0.326   6.377   8.949 -0.0276 -0.6754 -0.1412
   8023SM   H8S10599   0.398   6.297   8.919 -0.0943 -0.9814  0.4906
   8023SM   H8T10600   0.375   6.476   8.939 -1.7305  0.1169 -1.0396
   8023SM   C9S10601   0.224   6.394   8.832  0.3125 -0.0222 -0.2592
   8023SM   H9S10602   0.160   6.484   8.840 -1.1376 -1.0737  0.3249
   8023SM   H9T10603   0.149   6.312   8.825 -1.3460  1.3267  0.8382
   8023SM  C10S10604   0.299   6.389   8.701  0.0191 -0.2016  0.0982
   8023SM  H10S10605   0.364   6.299   8.689 -0.4167 -0.4338 -0.5370
   8023SM  H10T10606   0.367   6.476   8.693  1.3140 -1.2975 -1.4449
   8023SM  C11S10607   0.203   6.391   8.581 -0.7571 -0.3336 -0.0946
   8023SM  H11S10608   0.134   6.475   8.601  1.4699  1.4751  0.4056
   8023SM  H11T10609   0.160   6.289   8.590 -0.8552 -0.1946  1.1093
   8023SM  C12S10610   0.269   6.423   8.442 -0.4038  0.3615  0.0161
   8023SM  H12S10611   0.341   6.341   8.423  1.1816  1.5791  0.5764
   8023SM  H12T10612   0.313   6.525   8.440 -0.8182  0.5644  0.7696
   8023SM  C13S10613   0.156   6.432   8.335  0.3154  0.1365  0.1509
   8023SM  H13S10614   0.095   6.523   8.351 -1.6320 -0.6227 -2.2734
   8023SM  H13T10615   0.099   6.338   8.353  1.7719 -0.9782 -0.7283
   8023SM  C14S10616   0.226   6.436   8.201 -0.0559 -0.1669  0.2962
   8023SM  H14S10617   0.304   6.357   8.190 -0.8816 -0.7355 -2.1195
   8023SM  H14T10618   0.283   6.530   8.192 -2.8580  1.6051 -0.0516
   8023SM  C15S10619   0.122   6.439   8.085 -0.1893 -0.8902 -0.6756
   8023SM  H15S10620   0.178   6.452   7.990  1.1058 -0.2723  0.1457
   8023SM  H15T10621   0.059   6.527   8.108 -1.1491 -2.1330  1.8037
   8023SM  C16S10622   0.044   6.309   8.084 -0.3751 -0.2055  0.1093
   8023SM  H16S10623  -0.027   6.294   8.169 -0.7715 -1.4953 -0.4192
   8023SM  H16T10624   0.121   6.230   8.088 -0.7477 -0.5340  1.7066
   8023SM  C17S10625  -0.037   6.296   7.958  0.0950  0.2836 -0.2511
   8023SM  H17S10626  -0.096   6.202   7.969 -0.3969  0.6009 -0.1686
   8023SM  H17T10627   0.025   6.291   7.865  2.2529 -1.8269  1.1670
   8023SM  C18S10628  -0.145   6.401   7.927  0.2563 -0.1304 -0.1350
   8023SM  H18S10629  -0.206   6.422   8.018  3.5122 -0.0331  2.2373
   8023SM  H18T10630  -0.214   6.378   7.844  0.2747 -1.0670  0.1036
   8023SM  H18U10631  -0.080   6.490   7.907  3.2529 -1.8381  1.2218
   8023SM   C1F10632   0.235   6.659   9.609 -0.2163 -0.5920 -0.2732
   8023SM    OF10633   0.331   6.704   9.673  0.1629 -0.6913  0.2130
   8023SM   C2F10634   0.115   6.752   9.582 -0.3110  1.1675 -0.2097
   8023SM   H2F10635   0.127   6.818   9.671  0.6390 -0.1258  0.6583
   8023SM   H2G10636   0.017   6.701   9.571 -0.4526  1.3220  0.3271
   8023SM   C3F10637   0.141   6.838   9.451  0.1975  0.4844 -0.5179
   8023SM   H3F10638   0.241   6.885   9.463 -0.2421  1.2928  0.0243
   8023SM   H3G10639   0.057   6.910   9.449 -2.5846 -2.4749  0.5123
   8023SM   C4F10640   0.126   6.760   9.321  0.2019  0.4810  0.0086
   8023SM   H4F10641   0.032   6.701   9.317  0.5206  0.0004 -0.4316
   8023SM   H4G10642   0.206   6.684   9.314 -3.4469 -3.6830 -0.9079
   8023SM   C5F10643   0.155   6.839   9.196 -0.2620  0.0112  0.8527
   8023SM   H5F10644   0.237   6.913   9.208 -0.7204  0.5555  0.6977
   8023SM   H5G10645   0.067   6.906   9.185 -0.3819 -0.2375  0.2442
   8023SM   C6F10646   0.165   6.764   9.066  0.4068 -0.1315 -0.2778
   8023SM   H6F10647   0.072   6.703   9.056 -1.0083  1.6758  1.0607
   8023SM   H6G10648   0.252   6.695   9.072  0.0577 -0.6202 -0.7330
   8023SM   C7F10649   0.196   6.846   8.936 -0.1734 -0.7594 -0.2789
   8023SM   H7F10650   0.284   6.907   8.965 -1.8647  2.0626 -0.6945
   8023SM   H7G10651   0.116   6.922   8.923 -1.3922 -1.9131  0.2385
   8023SM   C8F10652   0.217   6.768   8.801  0.0776 -0.3996  0.0678
   8023SM   H8F10653   0.131   6.703   8.775  1.0551 -1.1483 -1.4453
   8023SM   H8G10654   0.310   6.707   8.812 -0.4000 -0.9469  1.2347
   8023SM   C9F10655   0.234   6.866   8.679  0.6285  0.1943 -0.2572
   8023SM   H9F10656   0.318   6.938   8.684  1.1631 -0.5025  1.7833
   8023SM   H9G10657   0.146   6.932   8.667 -0.3962 -1.1485 -0.3954
   8023SM  C10F10658   0.245   6.777   8.552  0.6979 -0.0399  0.1994
   8023SM  H10F10659   0.157   6.710   8.546  0.9065 -0.2205 -1.2166
   8023SM  H10G10660   0.335   6.712   8.562  1.2045  0.5930 -0.1560
   8023SM  C11F10661   0.271   6.866   8.427 -0.0300 -0.4972  0.5176
   8023SM  H11F10662   0.370   6.914   8.438 -1.1711  1.7391  1.6853
   8023SM  H11G10663   0.200   6.951   8.436  0.8213  0.3324 -0.3368
   8023SM  C12F10664   0.257   6.791   8.295  0.2636  0.3172 -0.3640
   8023SM  H12F10665   0.162   6.734   8.284  0.6259  0.0349 -2.5787
   8023SM  H12G10666   0.339   6.716   8.299 -1.9314 -2.1667  0.6166
   8023SM  C13F10667   0.286   6.878   8.175 -0.3401 -0.2612 -0.3157
   8023SM  H13F10668   0.390   6.917   8.175 -0.0344 -1.0166  1.0845
   8023SM  H13G10669   0.217   6.965   8.173 -0.4352 -0.3451 -1.0632
   8023SM  C14F10670   0.288   6.805   8.043 -0.6528  0.2598 -0.2450
   8023SM  H14F10671   0.206   6.731   8.028  0.1240 -0.8539  0.8426
   8023SM  H14G10672   0.384   6.750   8.033 -1.3540 -0.6059 -3.2782
   8023SM  C15F10673   0.285   6.908   7.927 -0.2078 -0.2006  0.5321
   8023SM  H15F10674   0.340   6.994   7.972 -1.6709  0.4443  1.1555
   8023SM  H15G10675   0.185   6.948   7.902 -0.1135  0.3750  1.0610
   8023SM  C16F10676   0.350   6.855   7.796  0.0730 -0.2756 -0.3849
   8023SM  H16F10677   0.333   6.745   7.795 -1.6609 -0.0747  1.0582
   8023SM  H16G10678   0.461   6.862   7.795  0.1618 -0.7862 -3.3449
   8023SM  C17F10679   0.305   6.939   7.676  0.0431  0.5089 -0.1990
   8023SM  H17F10680   0.365   7.033   7.680 -1.1703  1.2767  2.5853
   8023SM  H17G10681   0.196   6.956   7.690 -0.4123 -1.8763 -0.4541
   8023SM  C18F10682   0.323   6.856   7.547 -0.4532  0.6826  0.0914
   8023SM  H18F10683   0.241   6.781   7.549 -1.3284  1.4780 -2.4164
   8023SM  H18G10684   0.425   6.812   7.546 -0.7927 -0.1400  0.5855
   8023SM  C19F10685   0.313   6.940   7.421 -0.0066 -0.0235 -0.3267
   8023SM  H19F10686   0.250   7.031   7.432 -0.0470  0.3622 -3.0146
   8023SM  H19G10687   0.266   6.874   7.346  1.9934  0.0054 -1.6752
   8023SM  C20F10688   0.447   6.999   7.361 -0.6468 -0.3389  0.5222
   8023SM  H20F10689   0.519   6.923   7.323 -2.0014 -0.8116 -1.2634
   8023SM  H20G10690   0.498   7.064   7.435  0.7921  1.1955 -1.6727
   8023SM  C21F10691   0.404   7.092   7.244 -0.2710  0.7376  0.5748
   8023SM  H21F10692   0.316   7.151   7.277 -1.6968  0.4042 -2.3441
   8023SM  H21G10693   0.378   7.044   7.147  0.9165 -2.1499  1.5644
   8023SM  C22F10694   0.504   7.203   7.213  0.2554  0.6825 -0.0334
   8023SM  H22F10695   0.589   7.171   7.149  2.0640  3.7564  0.6258
   8023SM  H22G10696   0.553   7.248   7.302 -0.8199  0.2644  0.7890
   8023SM  C23F10697   0.437   7.325   7.144  0.1357  0.6264  0.3245
   8023SM  H23F10698   0.393   7.316   7.043  1.8248 -0.9284 -0.3231
   8023SM  H23G10699   0.512   7.407   7.136  1.0752 -0.3620 -1.2993
   8023SM  H23H10700   0.359   7.367   7.213  0.2355  1.3178  0.0280
   8123SM     N10701   3.760   3.248   5.249  0.1042 -0.3010  0.1160
   8123SM   C1510702   3.877   3.158   5.249 -0.0125 -0.2367 -0.2412
   8123SM  H15A10703   3.904   3.146   5.145  1.9193 -1.0559  0.3054
   8123SM  H15B10704   3.844   3.058   5.270  0.8653 -0.5959 -0.5073
   8123SM  H15C10705   3.963   3.196   5.303  0.2301 -1.8543  0.5509
   8123SM   C1410706   3.796   3.385   5.220  0.5512  0.0671  0.1725
   8123SM  H14A10707   3.858   3.437   5.292 -0.2566  3.8342 -1.5599
   8123SM  H14B10708   3.702   3.439   5.230  1.3375  1.1510  2.5795
   8123SM  H14C10709   3.847   3.400   5.126  1.3490 -0.7721  0.4622
   8123SM   C1310710   3.663   3.201   5.143  0.3981  0.0149 -1.0315
   8123SM  H13A10711   3.571   3.256   5.145  0.6211  0.3652  0.6307
   8123SM  H13B10712   3.652   3.094   5.155 -0.7520  0.4291  2.9505
   8123SM  H13C10713   3.709   3.219   5.046 -0.0088  0.4029 -1.1561
   8123SM   C1210714   3.692   3.235   5.378 -0.7063 -0.4764  0.5493
   8123SM  H12A10715   3.766   3.242   5.456 -2.7008  0.6279  2.4681
   8123SM  H12B10716   3.662   3.132   5.392 -0.6473 -0.5347  0.2527
   8123SM   C1110717   3.569   3.326   5.410 -0.8960 -0.1359  0.5156
   8123SM  H11A10718   3.603   3.432   5.415  0.5241 -0.5755  0.5769
   8123SM  H11B10719   3.518   3.293   5.504  0.3096 -0.0660  1.2149
   8123SM     P10720   3.378   3.431   5.251  0.3796 -0.2942 -0.0388
   8123SM   O1310721   3.453   3.506   5.147 -0.0583  0.1881 -0.6016
   8123SM   O1410722   3.248   3.373   5.213 -0.1079  0.0492  0.6743
   8123SM   O1110723   3.354   3.522   5.381  0.0863 -0.3468  0.0246
   8123SM   O1210724   3.474   3.316   5.309  0.4574 -0.5107  0.7434
   8123SM   C1S10725   3.278   3.487   5.499 -0.5389  0.1335  0.3960
   8123SM   H1S10726   3.236   3.384   5.494 -1.9127  0.7242 -0.9823
   8123SM   H1T10727   3.190   3.554   5.505 -0.1240  0.7836 -0.5459
   8123SM    NF10728   3.266   3.470   5.746  0.0754  0.4757  0.3099
   8123SM   HNF10729   3.208   3.548   5.769 -0.8035 -0.1420  0.2619
   8123SM   C2S10730   3.352   3.503   5.630 -0.4012 -0.3408 -0.1554
   8123SM   H2S10731   3.443   3.439   5.635  1.2359  1.7666 -1.0254
   8123SM   C3S10732   3.421   3.636   5.642 -0.1255 -0.3392 -0.1986
   8123SM   H3S10733   3.346   3.718   5.638  2.4202  2.1527 -0.7926
   8123SM    O310734   3.505   3.674   5.536  0.0082  0.1305 -0.0199
   8123SM   HO310735   3.462   3.632   5.460  1.3437 -0.1294 -0.6699
   8123SM   C4S10736   3.496   3.647   5.766 -0.2561 -0.7917 -0.3269
   8123SM   H4S10737   3.554   3.554   5.774 -1.9811 -1.7626  1.9534
   8123SM   C5S10738   3.475   3.732   5.871 -0.7024  0.0574  0.3775
   8123SM   H5S10739   3.385   3.796   5.865 -2.2639 -2.0916 -0.4514
   8123SM   C6S10740   3.535   3.706   6.009  0.4002  0.3542  0.5118
   8123SM   H6S10741   3.595   3.792   6.047 -2.6025  2.8251  0.0290
   8123SM   H6T10742   3.602   3.619   5.994  0.1029  0.1623  0.2997
   8123SM   C7S10743   3.421   3.675   6.108 -0.4420 -0.1201  0.0413
   8123SM   H7S10744   3.368   3.586   6.068 -1.5829  1.1228 -1.3041
   8123SM   H7T10745   3.350   3.759   6.127 -0.6159 -0.4370  0.8437
   8123SM   C8S10746   3.489   3.640   6.246  0.1899  0.4930 -0.2069
   8123SM   H8S10747   3.523   3.737   6.290  1.2514  0.9178 -1.8505
   8123SM   H8T10748   3.573   3.567   6.247 -0.4276 -0.2263  0.3924
   8123SM   C9S10749   3.400   3.567   6.355 -0.1716  0.0775  0.5252
   8123SM   H9S10750   3.368   3.471   6.309 -0.6806  1.5533 -2.4805
   8123SM   H9T10751   3.304   3.623   6.359 -1.0970 -1.5085  1.1437
   8123SM  C10S10752   3.456   3.558   6.494  0.0929  0.2589  0.6047
   8123SM  H10S10753   3.539   3.484   6.484 -0.2524 -0.0496 -0.0471
   8123SM  H10T10754   3.380   3.497   6.549 -0.0367 -1.4353 -1.3295
   8123SM  C11S10755   3.497   3.677   6.570 -0.0281 -0.6295 -0.4982
   8123SM  H11S10756   3.405   3.731   6.600 -0.9047 -1.8829 -0.8702
   8123SM  H11T10757   3.570   3.739   6.513  1.5392 -1.4652  0.5370
   8123SM  C12S10758   3.556   3.643   6.706 -0.3081 -0.3189 -0.5702
   8123SM  H12S10759   3.582   3.736   6.761 -2.4095  0.2005 -0.3670
   8123SM  H12T10760   3.650   3.585   6.695  0.7864  0.8238  1.9066
   8123SM  C13S10761   3.463   3.554   6.794 -0.2109  0.6423  0.5267
   8123SM  H13S10762   3.453   3.458   6.740 -1.8347  0.4150  1.1527
   8123SM  H13T10763   3.360   3.595   6.798 -1.1948 -1.6360  0.3879
   8123SM  C14S10764   3.522   3.533   6.937  0.0261 -0.2715 -0.1779
   8123SM  H14S10765   3.518   3.631   6.989 -0.8775 -0.4651  0.1331
   8123SM  H14T10766   3.631   3.511   6.927  0.2932  0.4596  0.9807
   8123SM  C15S10767   3.465   3.419   7.022 -0.4413  0.2908 -0.6897
   8123SM  H15S10768   3.526   3.388   7.110 -3.2594  0.0598  1.3386
   8123SM  H15T10769   3.467   3.325   6.962 -1.3151 -0.3818  0.2872
   8123SM  C16S10770   3.322   3.453   7.063 -0.2756 -0.2005 -0.8876
   8123SM  H16S10771   3.260   3.443   6.971  0.2489  0.6975 -1.3538
   8123SM  H16T10772   3.327   3.556   7.103  2.0507  0.5689 -2.9073
   8123SM  C17S10773   3.273   3.349   7.167  0.0758  0.2209  0.6263
   8123SM  H17S10774   3.173   3.385   7.201  0.4024 -0.2206  2.1532
   8123SM  H17T10775   3.339   3.365   7.255 -0.8943 -0.4449  1.5053
   8123SM  C18S10776   3.268   3.205   7.119 -0.3181 -0.5656 -0.3418
   8123SM  H18S10777   3.371   3.164   7.107 -0.3985  0.0595 -4.4326
   8123SM  H18T10778   3.211   3.192   7.025 -0.0905  1.0073 -0.7149
   8123SM  H18U10779   3.212   3.158   7.203 -1.0900  1.0970  0.1204
   8123SM   C1F10780   3.237   3.342   5.786  0.7570 -0.0557  0.6856
   8123SM    OF10781   3.298   3.254   5.733 -0.7777 -0.1257 -0.1281
   8123SM   C2F10782   3.148   3.307   5.900 -0.3866 -0.2182  0.2941
   8123SM   H2F10783   3.057   3.368   5.881  0.4043  1.4528  1.4996
   8123SM   H2G10784   3.198   3.336   5.995  0.2443 -2.2747  0.6296
   8123SM   C3F10785   3.114   3.151   5.904 -0.6203  0.0798 -0.3446
   8123SM   H3F10786   3.214   3.105   5.915  0.1024  1.9861  1.7585
   8123SM   H3G10787   3.067   3.116   5.810  2.2700 -0.6685 -1.5886
   8123SM   C4F10788   3.031   3.113   6.026 -0.4592 -0.1732 -0.0821
   8123SM   H4F10789   3.000   3.008   6.004 -2.4464  0.4613 -0.4945
   8123SM   H4G10790   2.935   3.169   6.034 -1.1996 -1.5442  1.0383
   8123SM   C5F10791   3.101   3.127   6.157  0.0757  0.2730  0.0630
   8123SM   H5F10792   3.105   3.236   6.178 -2.6110  0.2873  0.9186
   8123SM   H5G10793   3.206   3.092   6.162 -0.6478 -2.0643 -0.0664
   8123SM   C6F10794   3.025   3.069   6.277  0.5826 -0.0047  0.6659
   8123SM   H6F10795   2.994   2.964   6.260 -1.3316  0.9196 -2.4478
   8123SM   H6G10796   2.927   3.121   6.280 -0.0321 -0.9825 -1.2365
   8123SM   C7F10797   3.109   3.079   6.408 -0.1495  0.7918 -0.5881
   8123SM   H7F10798   3.170   3.172   6.414 -1.5595  1.7342 -0.4505
   8123SM   H7G10799   3.189   3.004   6.388 -0.2232  0.8480 -1.0925
   8123SM   C8F10800   3.034   3.044   6.537 -0.4737  0.9156 -0.1691
   8123SM   H8F10801   2.967   2.960   6.511 -0.1174  0.3178  0.7664
   8123SM   H8G10802   2.969   3.133   6.548 -1.0770  0.4229  0.3409
   8123SM   C9F10803   3.122   3.032   6.659 -0.4096  0.4760 -0.0872
   8123SM   H9F10804   3.188   3.119   6.679  1.0648 -0.2073 -1.7364
   8123SM   H9G10805   3.192   2.950   6.636  1.2891  1.0252  2.6726
   8123SM  C10F10806   3.059   2.973   6.793  0.1004 -0.6041 -0.0776
   8123SM  H10F10807   2.993   2.888   6.763 -0.9585  0.2475 -0.2050
   8123SM  H10G10808   2.995   3.050   6.840 -0.9030  0.5880 -3.1435
   8123SM  C11F10809   3.154   2.932   6.902 -0.1364 -0.7899  0.6722
   8123SM  H11F10810   3.200   3.027   6.936 -2.5360  0.5006  0.5651
   8123SM  H11G10811   3.235   2.866   6.865  1.0249  1.0947 -0.2752
   8123SM  C12F10812   3.089   2.863   7.023  0.0676 -0.0918 -0.0425
   8123SM  H12F10813   3.026   2.777   6.992 -1.7870  0.9591  0.6131
   8123SM  H12G10814   3.014   2.930   7.070 -1.0293 -1.9886  1.0087
   8123SM  C13F10815   3.193   2.809   7.124  0.3368  0.4052  0.4960
   8123SM  H13F10816   3.291   2.863   7.127 -0.5796  2.3757 -1.8456
   8123SM  H13G10817   3.226   2.726   7.059  1.6381 -0.0968  1.7432
   8123SM  C14F10818   3.133   2.765   7.255  0.3634  0.4600 -0.1934
   8123SM  H14F10819   3.044   2.706   7.225 -1.1447  1.9554  1.1192
   8123SM  H14G10820   3.097   2.853   7.313 -1.1401 -0.7011  0.7147
   8123SM  C15F10821   3.228   2.685   7.341  0.1510  0.0206  0.4544
   8123SM  H15F10822   3.307   2.757   7.373 -1.1912  1.7238  0.0818
   8123SM  H15G10823   3.269   2.603   7.279 -0.0577  0.3653 -0.1403
   8123SM  C16F10824   3.157   2.643   7.463 -0.7146  0.4972 -0.8981
   8123SM  H16F10825   3.071   2.577   7.440 -0.9826  0.7104 -0.5179
   8123SM  H16G10826   3.120   2.736   7.511  0.5457  1.6264 -2.0009
   8123SM  C17F10827   3.266   2.572   7.548 -0.2655  0.2969 -0.1270
   8123SM  H17F10828   3.255   2.609   7.652 -0.7778 -0.5657  0.1332
   8123SM  H17G10829   3.371   2.586   7.514 -0.4507  1.1785 -0.3754
   8123SM  C18F10830   3.252   2.415   7.555  1.1460  1.5983 -0.2079
   8123SM  H18F10831   3.157   2.409   7.613  1.1482 -1.4941 -0.3787
   8123SM  H18G10832   3.324   2.376   7.630  0.6649  1.3063  0.1081
   8123SM  C19F10833   3.242   2.338   7.426 -0.3482 -1.1942 -0.2421
   8123SM  H19F10834   3.153   2.379   7.374  0.1962 -1.9615 -1.8595
   8123SM  H19G10835   3.221   2.231   7.449  0.5812 -1.2570  0.3456
   8123SM  C20F10836   3.369   2.347   7.339  0.3528 -0.7095  0.0105
   8123SM  H20F10837   3.397   2.454   7.332  0.0796 -0.6234  0.1922
   8123SM  H20G10838   3.365   2.319   7.231 -2.1268 -1.1589  0.1569
   8123SM  C21F10839   3.491   2.259   7.408  0.3507 -0.3591 -0.3628
   8123SM  H21F10840   3.460   2.154   7.392  2.4522 -1.3401  1.4569
   8123SM  H21G10841   3.498   2.275   7.518  0.5448  0.1151 -0.4416
   8123SM  C22F10842   3.620   2.302   7.347  0.3568  0.0549  0.2967
   8123SM  H22F10843   3.636   2.411   7.362  0.3653 -0.1846  2.4150
   8123SM  H22G10844   3.613   2.291   7.237 -0.1971 -1.7754  0.4849
   8123SM  C23F10845   3.741   2.227   7.401  0.1614 -0.0813  0.1534
   8123SM  H23F10846   3.745   2.118   7.377  1.2320  0.4248 -2.2910
   8123SM  H23G10847   3.735   2.257   7.508 -0.4806  1.6308 -0.3370
   8123SM  H23H10848   3.831   2.280   7.363  1.4721 -2.5839 -0.4831
   8223SM     N10849   4.303   4.797   5.315 -0.8111  0.2846 -0.2021
   8223SM   C1510850   4.177   4.781   5.389  0.0687  0.5349  0.3384
   8223SM  H15A10851   4.113   4.866   5.369  0.7735  1.2235  0.9699
   8223SM  H15B10852   4.187   4.763   5.494 -2.2113  0.5960  0.6243
   8223SM  H15C10853   4.128   4.687   5.367  0.0384  0.7716 -0.6660
   8223SM   C1410854   4.368   4.923   5.369  0.4098  0.1124 -0.6536
   8223SM  H14A10855   4.471   4.929   5.337  0.2701  0.1421 -1.0988
   8223SM  H14B10856   4.365   4.913   5.477 -1.0956 -1.3873 -0.7887
   8223SM  H14C10857   4.322   5.014   5.333  1.7758  1.5672  1.0524
   8223SM   C1310858   4.399   4.688   5.349 -0.6882  0.5659 -0.7181
   8223SM  H13A10859   4.409   4.684   5.456  0.1441 -2.1713 -0.8111
   8223SM  H13B10860   4.497   4.720   5.315 -0.3155  1.3523  1.0184
   8223SM  H13C10861   4.363   4.594   5.309  0.4228  0.4170 -1.4284
   8223SM   C1210862   4.289   4.801   5.166  0.7303 -0.4127  0.8267
   8223SM  H12A10863   4.384   4.803   5.116 -0.4093 -1.7187 -1.5665
   8223SM  H12B10864   4.252   4.898   5.138  2.8434  0.3949  0.6321
   8223SM   C1110865   4.204   4.690   5.100  0.3955 -0.4123  0.7523
   8223SM  H11A10866   4.210   4.702   4.990 -1.6228 -0.1734  0.6379
   8223SM  H11B10867   4.098   4.693   5.131  0.4274 -2.4845  1.1794
   8223SM     P10868   4.217   4.429   5.064 -0.1129 -0.3760  0.2717
   8223SM   O1310869   4.079   4.435   5.016  0.4391  0.6334  0.4711
   8223SM   O1410870   4.326   4.397   4.965  0.0175  0.0921 -0.5850
   8223SM   O1110871   4.217   4.316   5.174 -0.1262  0.3312  0.5443
   8223SM   O1210872   4.246   4.560   5.146  0.2205 -0.6118  0.0173
   8223SM   C1S10873   4.124   4.329   5.285  0.0462  0.0428  0.2854
   8223SM   H1S10874   4.017   4.321   5.256  0.3482 -0.5000 -0.7466
   8223SM   H1T10875   4.134   4.430   5.331  1.5408 -0.8113  1.9544
   8223SM    NF10876   4.044   4.215   5.492  0.5968  0.0854  0.2153
   8223SM   HNF10877   4.037   4.277   5.570 -1.5232 -0.7972  0.7882
   8223SM   C2S10878   4.157   4.236   5.404 -0.2605  0.4777 -0.0737
   8223SM   H2S10879   4.180   4.146   5.343  2.1432  1.9264 -1.4780
   8223SM   C3S10880   4.287   4.272   5.468  0.3299 -0.0835 -0.3169
   8223SM   H3S10881   4.284   4.372   5.516 -1.2010 -0.1422 -0.2298
   8223SM    O310882   4.393   4.275   5.373 -0.0330 -0.1442  0.3164
   8223SM   HO310883   4.341   4.293   5.294 -0.0570  1.3876  0.6377
   8223SM   C4S10884   4.310   4.172   5.587 -0.0739 -0.8424 -0.0387
   8223SM   H4S10885   4.319   4.235   5.677 -1.6445 -0.7827  0.0900
   8223SM   C5S10886   4.335   4.043   5.591 -0.3940 -0.1772  0.2824
   8223SM   H5S10887   4.338   3.987   5.496 -0.3582 -0.4827  0.4648
   8223SM   C6S10888   4.370   3.957   5.710 -0.1519 -0.3690 -0.2388
   8223SM   H6S10889   4.481   3.961   5.709 -0.0413  1.4909  3.2781
   8223SM   H6T10890   4.334   3.855   5.684  0.4965 -0.3093 -1.4389
   8223SM   C7S10891   4.317   3.998   5.845  0.2297  0.8035  0.0583
   8223SM   H7S10892   4.208   3.976   5.844 -0.1569  1.9904  3.5791
   8223SM   H7T10893   4.338   4.101   5.881 -1.9259  0.8995  1.2477
   8223SM   C8S10894   4.379   3.906   5.961  0.0257 -0.8356 -0.4424
   8223SM   H8S10895   4.490   3.904   5.960  0.0747  0.8231 -0.6977
   8223SM   H8T10896   4.352   3.799   5.950 -0.0343 -1.0416  1.4000
   8223SM   C9S10897   4.338   3.944   6.101 -0.8904  0.3442 -0.1993
   8223SM   H9S10898   4.229   3.949   6.119 -0.3599 -0.1346  4.2891
   8223SM   H9T10899   4.379   4.040   6.141 -0.0234 -0.1353  0.0944
   8223SM  C10S10900   4.398   3.843   6.203  0.5802  0.1055  0.1190
   8223SM  H10S10901   4.509   3.853   6.202  0.4070  2.6089 -0.6794
   8223SM  H10T10902   4.356   3.745   6.170 -0.2422 -0.1342  1.7517
   8223SM  C11S10903   4.337   3.859   6.348 -0.3631 -0.5475 -0.2954
   8223SM  H11S10904   4.235   3.816   6.352 -1.2848  1.5378 -0.3484
   8223SM  H11T10905   4.318   3.966   6.371  1.1666 -0.2184 -0.4408
   8223SM  C12S10906   4.435   3.794   6.454  0.5772 -0.7849  0.7523
   8223SM  H12S10907   4.540   3.829   6.439  0.2655 -0.5776 -1.1999
   8223SM  H12T10908   4.428   3.685   6.430 -2.7432 -0.4414 -0.3414
   8223SM  C13S10909   4.397   3.810   6.597  0.4869 -0.0361  0.3150
   8223SM  H13S10910   4.286   3.810   6.599  0.4908  0.2024  0.5831
   8223SM  H13T10911   4.438   3.905   6.637 -0.6830  1.3971 -1.7070
   8223SM  C14S10912   4.461   3.692   6.684 -0.4026 -0.1996  0.0737
   8223SM  H14S10913   4.572   3.702   6.685 -0.3423 -0.8310  0.7652
   8223SM  H14T10914   4.432   3.599   6.630  2.1509  0.2569 -2.3557
   8223SM  C15S10915   4.425   3.696   6.833 -0.3008 -0.2320  0.1516
   8223SM  H15S10916   4.315   3.687   6.845 -0.1203 -2.6910  0.5499
   8223SM  H15T10917   4.456   3.798   6.865 -0.3465 -0.3712  0.6471
   8223SM  C16S10918   4.496   3.600   6.932 -0.0969 -0.7914 -0.7985
   8223SM  H16S10919   4.600   3.630   6.957 -0.9031  3.1858 -1.5025
   8223SM  H16T10920   4.481   3.504   6.879 -1.0829 -0.6985 -0.7093
   8223SM  C17S10921   4.429   3.606   7.066 -0.2067  0.9584 -0.5608
   8223SM  H17S10922   4.324   3.570   7.059  0.2449 -0.5818  0.0753
   8223SM  H17T10923   4.421   3.712   7.099  0.4298  0.8479 -0.0160
   8223SM  C18S10924   4.502   3.522   7.172  0.1833  0.2984 -0.1660
   8223SM  H18S10925   4.441   3.526   7.265  0.8146 -0.5171  0.3003
   8223SM  H18T10926   4.607   3.559   7.185 -0.2031  2.0035 -1.5234
   8223SM  H18U10927   4.511   3.415   7.144  0.3601 -0.0363  1.0963
   8223SM   C1F10928   3.925   4.163   5.461 -0.4591 -0.2197 -0.5200
   8223SM    OF10929   3.907   4.103   5.357  0.0897  0.3890  0.3239
   8223SM   C2F10930   3.816   4.190   5.557 -0.2268  1.0746  1.1723
   8223SM   H2F10931   3.729   4.196   5.488  0.6486 -0.8357 -0.1961
   8223SM   H2G10932   3.845   4.284   5.609  0.0680  1.3532  0.5220
   8223SM   C3F10933   3.787   4.066   5.654  0.5794  0.3497 -0.3182
   8223SM   H3F10934   3.757   3.980   5.591  0.4580 -0.1367  0.3994
   8223SM   H3G10935   3.696   4.104   5.703  0.3022  2.2726 -2.1687
   8223SM   C4F10936   3.894   4.030   5.756 -0.5488  0.6601  0.2835
   8223SM   H4F10937   3.937   4.111   5.818 -0.6514  0.6083  0.4210
   8223SM   H4G10938   3.975   3.988   5.692 -0.5099  2.7917 -1.1818
   8223SM   C5F10939   3.857   3.919   5.853  0.0679  0.0165 -0.0231
   8223SM   H5F10940   3.854   3.819   5.806 -0.2865 -1.3300  2.7093
   8223SM   H5G10941   3.749   3.928   5.877  0.0626 -1.2403  0.4999
   8223SM   C6F10942   3.935   3.918   5.977  0.0196 -0.0664 -0.4045
   8223SM   H6F10943   3.916   4.008   6.039  1.5168 -1.3239  2.0583
   8223SM   H6G10944   4.045   3.915   5.960 -0.2011 -1.2874 -1.7770
   8223SM   C7F10945   3.900   3.804   6.072  0.2990  0.4871 -0.4119
   8223SM   H7F10946   3.911   3.703   6.026 -1.5375 -0.4780  1.1368
   8223SM   H7G10947   3.793   3.817   6.099 -0.5940 -0.3190 -3.2036
   8223SM   C8F10948   3.993   3.809   6.197 -0.2283 -0.1945 -0.2993
   8223SM   H8F10949   3.984   3.908   6.245 -0.7544 -0.6673  0.5978
   8223SM   H8G10950   4.100   3.789   6.173 -0.3189 -0.7975 -0.2272
   8223SM   C9F10951   3.936   3.715   6.315  0.4718  0.4478  0.4021
   8223SM   H9F10952   3.965   3.615   6.275  0.9843  1.3948 -1.7819
   8223SM   H9G10953   3.826   3.727   6.328  0.3578  0.0041 -0.1170
   8223SM  C10F10954   4.012   3.727   6.448  0.4911  0.3684  0.1151
   8223SM  H10F10955   4.027   3.833   6.479  1.9458  1.1239 -2.7867
   8223SM  H10G10956   4.108   3.672   6.440  0.0694 -0.6425  1.5431
   8223SM  C11F10957   3.935   3.659   6.564  0.3012  0.2357  0.5026
   8223SM  H11F10958   3.915   3.555   6.531 -2.1362  0.0978  2.1265
   8223SM  H11G10959   3.837   3.709   6.584 -1.2110 -2.1422 -0.5452
   8223SM  C12F10960   4.025   3.649   6.690  0.3451  0.1959  0.0866
   8223SM  H12F10961   4.058   3.754   6.707  1.9004 -0.4563  1.3261
   8223SM  H12G10962   4.116   3.588   6.672 -0.0065  0.0222 -1.2244
   8223SM  C13F10963   3.943   3.588   6.803  0.0633 -0.5146 -0.5926
   8223SM  H13F10964   3.940   3.477   6.803 -0.4232 -0.5921  2.2449
   8223SM  H13G10965   3.839   3.627   6.796  0.2617  0.0783 -0.3631
   8223SM  C14F10966   4.007   3.627   6.940 -0.1268  0.3241 -0.4833
   8223SM  H14F10967   4.012   3.738   6.929 -4.7743  0.8758  0.7197
   8223SM  H14G10968   4.113   3.594   6.943  0.0660  0.9085 -0.6934
   8223SM  C15F10969   3.921   3.592   7.058  0.2256  1.0621 -0.0125
   8223SM  H15F10970   3.843   3.672   7.065  1.3288  2.1259  0.4880
   8223SM  H15G10971   3.981   3.616   7.148  3.0791 -2.0462 -0.8996
   8223SM  C16F10972   3.881   3.440   7.071 -0.5409 -0.1865 -0.1107
   8223SM  H16F10973   3.807   3.414   6.992 -0.9530  1.4675 -0.2893
   8223SM  H16G10974   3.831   3.424   7.169  0.0920 -3.3554 -0.1927
   8223SM  C17F10975   3.997   3.345   7.075 -0.5267 -0.0029 -0.1969
   8223SM  H17F10976   4.076   3.362   7.000 -0.8463  0.1807 -0.4957
   8223SM  H17G10977   3.962   3.244   7.045 -1.9686  0.6509 -0.8314
   8223SM  C18F10978   4.064   3.342   7.213  0.2683  0.9537  0.0890
   8223SM  H18F10979   4.005   3.273   7.278  2.5859 -0.9846  0.2654
   8223SM  H18G10980   4.079   3.445   7.251  2.0016  0.1095  1.8338
   8223SM  C19F10981   4.204   3.266   7.208 -1.1636 -0.6924 -0.7000
   8223SM  H19F10982   4.260   3.290   7.115 -0.1490  0.4949  0.1893
   8223SM  H19G10983   4.180   3.158   7.195  1.3100 -1.1630 -2.0459
   8223SM  C20F10984   4.299   3.281   7.336  0.6638 -0.7499  0.0735
   8223SM  H20F10985   4.242   3.249   7.426  1.0166 -0.8109  0.2781
   8223SM  H20G10986   4.311   3.391   7.345 -1.3660 -0.5457  0.7299
   8223SM  C21F10987   4.435   3.216   7.339  0.9799  0.0199  0.3031
   8223SM  H21F10988   4.489   3.234   7.244 -0.9770 -2.0127 -1.3033
   8223SM  H21G10989   4.422   3.107   7.352  0.7829  0.1440  1.1905
   8223SM  C22F10990   4.512   3.266   7.467  0.2658 -0.1091  0.5046
   8223SM  H22F10991   4.453   3.247   7.559  0.8607  0.2748  0.9622
   8223SM  H22G10992   4.522   3.376   7.466  0.5590 -0.1143  1.7406
   8223SM  C23F10993   4.651   3.195   7.463  0.2729 -0.5712 -0.8479
   8223SM  H23F10994   4.697   3.247   7.376 -1.4947  0.5188 -1.1912
   8223SM  H23G10995   4.642   3.086   7.446  1.9495 -0.8660 -0.0099
   8223SM  H23H10996   4.706   3.206   7.559  1.4718 -0.4234 -1.5407
   8323SM     N10997   4.019   4.124   4.835 -0.1862 -0.1454  0.2748
   8323SM   C1510998   4.102   4.226   4.758  0.4266 -0.4822  0.2493
   8323SM  H15A10999   4.098   4.329   4.788 -0.6237 -0.5360  0.3356
   8323SM  H15B11000   4.055   4.241   4.662  0.0386  0.5463  0.5893
   8323SM  H15C11001   4.205   4.202   4.738  0.5051 -1.1519  1.3998
   8323SM   C1411002   3.876   4.164   4.856 -0.0517 -0.9779  0.3625
   8323SM  H14A11003   3.833   4.182   4.758 -0.8615 -4.0882  0.0416
   8323SM  H14B11004   3.871   4.258   4.910  3.0789  0.4141 -1.5034
   8323SM  H14C11005   3.810   4.096   4.907 -1.3568 -0.6001 -0.7535
   8323SM   C1311006   4.016   3.999   4.757  0.0547  0.1440 -0.5109
   8323SM  H13A11007   4.025   3.910   4.817 -0.2684 -0.8337 -1.8709
   8323SM  H13B11008   4.104   4.010   4.694  0.0418 -1.2064 -0.7989
   8323SM  H13C11009   3.936   3.992   4.685 -1.1689 -2.7162  0.9939
   8323SM   C1211010   4.077   4.105   4.974  0.0617 -0.3566  0.4072
   8323SM  H12A11011   4.054   4.192   5.035 -2.2339  1.0395 -2.2042
   8323SM  H12B11012   4.185   4.110   4.965 -0.0415 -0.2139 -0.9943
   8323SM   C1111013   4.035   3.989   5.058 -0.0578  0.6220 -0.7302
   8323SM  H11A11014   3.929   4.012   5.082 -0.3146  0.7762 -1.9833
   8323SM  H11B11015   4.087   3.997   5.156  0.3424 -1.8977 -0.6704
   8323SM     P11016   3.979   3.744   5.044  0.7689 -0.0047  0.1337
   8323SM   O1311017   3.845   3.785   5.074 -0.2350  0.0743 -0.3719
   8323SM   O1411018   4.003   3.627   4.954  0.5810 -0.0497  0.2850
   8323SM   O1111019   4.055   3.712   5.175  0.1562 -0.1781 -0.2285
   8323SM   O1211020   4.059   3.865   4.991 -0.4344  0.0629 -0.8307
   8323SM   C1S11021   4.175   3.643   5.190  0.9220  0.0613  0.4385
   8323SM   H1S11022   4.254   3.687   5.125  0.0347  0.6103 -0.2897
   8323SM   H1T11023   4.161   3.536   5.163  1.7597  0.5262 -2.0688
   8323SM    NF11024   4.362   3.621   5.338 -0.0232  0.2933 -0.2602
   8323SM   HNF11025   4.392   3.529   5.362 -0.8210 -0.0139 -0.4171
   8323SM   C2S11026   4.223   3.646   5.341 -0.5940 -0.8744  0.2418
   8323SM   H2S11027   4.214   3.752   5.374 -1.0142 -0.7877 -0.1452
   8323SM   C3S11028   4.137   3.558   5.441  0.5554  0.3092  0.3448
   8323SM   H3S11029   4.135   3.454   5.402  1.7410 -0.4275  2.1473
   8323SM    O311030   3.997   3.595   5.427 -0.2603 -0.9126 -0.0426
   8323SM   HO311031   3.998   3.650   5.349 -3.1896  0.3955  0.6900
   8323SM   C4S11032   4.174   3.545   5.588  0.2960 -0.0035  0.4903
   8323SM   H4S11033   4.254   3.616   5.615  0.0674 -0.0946  1.4653
   8323SM   C5S11034   4.153   3.437   5.669 -0.7046 -0.0390 -0.3945
   8323SM   H5S11035   4.100   3.352   5.624  0.2393  1.0768 -3.9865
   8323SM   C6S11036   4.214   3.423   5.806 -0.1646  0.4233 -0.3537
   8323SM   H6S11037   4.301   3.356   5.792 -1.6649 -2.0391  1.3352
   8323SM   H6T11038   4.137   3.371   5.868  0.1691  0.9742  0.5376
   8323SM   C7S11039   4.281   3.541   5.882  1.1115  0.6532 -0.2610
   8323SM   H7S11040   4.198   3.614   5.896 -1.2785 -2.0175  0.5582
   8323SM   H7T11041   4.357   3.602   5.829  1.5859  1.8328  1.6696
   8323SM   C8S11042   4.329   3.498   6.020 -0.3406 -0.2912 -0.1453
   8323SM   H8S11043   4.404   3.569   6.059  1.0195 -2.3708  1.2473
   8323SM   H8T11044   4.387   3.404   6.006 -0.8487 -0.4772 -1.1795
   8323SM   C9S11045   4.212   3.483   6.126  0.5518 -0.1977 -0.1661
   8323SM   H9S11046   4.148   3.402   6.085  1.0485 -0.4459 -0.4566
   8323SM   H9T11047   4.154   3.577   6.139  0.5639 -0.4341  1.8626
   8323SM  C10S11048   4.280   3.443   6.256  0.3906 -0.1174  0.2274
   8323SM  H10S11049   4.354   3.511   6.304  1.9838 -1.1309 -0.7190
   8323SM  H10T11050   4.335   3.352   6.223  2.4054  1.0203  0.2954
   8323SM  C11S11051   4.187   3.391   6.364  0.2934  0.5130  0.3946
   8323SM  H11S11052   4.137   3.305   6.315  1.4309 -1.3457  2.3221
   8323SM  H11T11053   4.124   3.480   6.381  1.4328  1.3797  0.1928
   8323SM  C12S11054   4.266   3.343   6.487 -0.4821 -1.0623  0.5357
   8323SM  H12S11055   4.298   3.439   6.533  2.3019 -1.1123 -1.0799
   8323SM  H12T11056   4.357   3.291   6.451 -0.1194  1.4904 -2.7987
   8323SM  C13S11057   4.176   3.263   6.586 -0.2246  0.1489  0.0447
   8323SM  H13S11058   4.138   3.167   6.544 -2.7211  0.8167  0.6701
   8323SM  H13T11059   4.089   3.327   6.611 -0.9887 -1.1656  0.8645
   8323SM  C14S11060   4.247   3.234   6.722 -0.8545 -0.3751  0.2483
   8323SM  H14S11061   4.173   3.177   6.782 -0.4486 -1.8495 -0.5934
   8323SM  H14T11062   4.260   3.334   6.770 -0.8785  0.1773 -0.8556
   8323SM  C15S11063   4.382   3.163   6.734  0.1542  0.4237  0.2422
   8323SM  H15S11064   4.452   3.217   6.667 -2.2325  0.9071 -2.0294
   8323SM  H15T11065   4.371   3.060   6.693 -2.1156  1.0241 -0.7918
   8323SM  C16S11066   4.434   3.164   6.877 -0.0084  0.2801 -0.5839
   8323SM  H16S11067   4.367   3.112   6.949  1.1673  2.4139  2.2410
   8323SM  H16T11068   4.441   3.270   6.910 -2.5006  0.8172 -1.5895
   8323SM  C17S11069   4.571   3.094   6.881 -0.3711 -0.1974 -0.4014
   8323SM  H17S11070   4.633   3.132   6.797 -0.3879 -0.0081 -0.3287
   8323SM  H17T11071   4.554   2.986   6.859  1.3699 -0.2882 -1.4665
   8323SM  C18S11072   4.631   3.109   7.013 -0.2520  0.0575  0.4058
   8323SM  H18S11073   4.668   3.213   7.020 -0.6401  0.1847  0.6116
   8323SM  H18T11074   4.719   3.044   7.030 -1.2854 -0.6442  3.9343
   8323SM  H18U11075   4.562   3.074   7.093  0.7053 -1.5601  0.5495
   8323SM   C1F11076   4.450   3.708   5.290 -0.5922 -0.1954  0.1360
   8323SM    OF11077   4.417   3.820   5.249 -0.1470 -0.3405  0.1423
   8323SM   C2F11078   4.593   3.664   5.291  0.2304  0.0021  0.6069
   8323SM   H2F11079   4.629   3.689   5.189  2.2756 -1.3535  0.9224
   8323SM   H2G11080   4.592   3.553   5.300 -1.4851  0.0826  1.6001
   8323SM   C3F11081   4.672   3.734   5.393 -0.0672  0.3470  0.4070
   8323SM   H3F11082   4.680   3.842   5.368  2.4843 -0.0075 -0.6644
   8323SM   H3G11083   4.777   3.701   5.377 -1.0913 -1.7604 -3.5109
   8323SM   C4F11084   4.621   3.718   5.542  0.3836 -0.1377  0.4893
   8323SM   H4F11085   4.589   3.612   5.551  0.8148 -0.2834  0.3593
   8323SM   H4G11086   4.534   3.786   5.559 -0.7849 -0.6998 -2.5789
   8323SM   C5F11087   4.731   3.733   5.649  0.4850 -0.4346 -0.3494
   8323SM   H5F11088   4.750   3.842   5.660 -1.4830 -0.2624  2.3531
   8323SM   H5G11089   4.826   3.679   5.633  0.4194 -0.8992  0.7621
   8323SM   C6F11090   4.674   3.691   5.788  0.6674  0.2522 -0.3212
   8323SM   H6F11091   4.629   3.589   5.789 -0.1277  0.5919 -0.6276
   8323SM   H6G11092   4.582   3.753   5.798  1.8159  2.3583 -2.1142
   8323SM   C7F11093   4.765   3.717   5.903 -0.2183 -0.4256 -0.8514
   8323SM   H7F11094   4.783   3.827   5.905  0.9308 -0.6157  0.7674
   8323SM   H7G11095   4.851   3.647   5.891 -0.7254 -1.6991  2.0694
   8323SM   C8F11096   4.696   3.676   6.035  0.1735 -0.1170 -0.7406
   8323SM   H8F11097   4.621   3.601   6.002 -0.7635 -0.3643  1.7784
   8323SM   H8G11098   4.644   3.767   6.073 -0.5738 -0.7271 -0.2896
   8323SM   C9F11099   4.787   3.615   6.137 -0.0709 -0.7728  0.3978
   8323SM   H9F11100   4.871   3.688   6.146 -0.7294  0.6030 -3.0405
   8323SM   H9G11101   4.815   3.517   6.092 -0.3476  0.1559 -1.9612
   8323SM  C10F11102   4.722   3.601   6.273 -0.5459 -0.6366  0.3140
   8323SM  H10F11103   4.632   3.540   6.250 -1.4144  0.6211  0.3258
   8323SM  H10G11104   4.690   3.701   6.308  2.4357 -0.2797  2.4202
   8323SM  C11F11105   4.818   3.535   6.377  0.0065 -0.3184 -0.0752
   8323SM  H11F11106   4.915   3.579   6.346 -0.3773  0.2548 -0.5075
   8323SM  H11G11107   4.829   3.425   6.372 -1.4264 -0.4391 -2.9037
   8323SM  C12F11108   4.777   3.575   6.517  0.1080 -0.3850 -0.1695
   8323SM  H12F11109   4.674   3.535   6.532  0.0998  0.1150  1.2898
   8323SM  H12G11110   4.781   3.684   6.537 -0.5472 -0.6077  1.3899
   8323SM  C13F11111   4.875   3.513   6.616 -0.4108  0.2287  0.2592
   8323SM  H13F11112   4.975   3.560   6.612 -1.3389  2.5400  1.8632
   8323SM  H13G11113   4.890   3.405   6.592  0.3008  0.1819  0.8708
   8323SM  C14F11114   4.824   3.513   6.761 -1.1280 -0.5799  0.2132
   8323SM  H14F11115   4.724   3.465   6.761 -1.8367  0.5570 -3.2051
   8323SM  H14G11116   4.812   3.623   6.778  0.8867 -0.1312 -0.9423
   8323SM  C15F11117   4.910   3.468   6.867 -0.1498  0.4224 -0.4065
   8323SM  H15F11118   4.997   3.536   6.857  1.4413 -1.8302 -3.7929
   8323SM  H15G11119   4.938   3.360   6.863 -1.3334  0.0509  0.5136
   8323SM  C16F11120   4.838   3.492   7.011 -0.7742  0.4535  1.1201
   8323SM  H16F11121   4.763   3.411   7.009  0.9669 -1.2083  0.2955
   8323SM  H16G11122   4.792   3.593   7.023 -0.0472  0.7301  1.6300
   8323SM  C17F11123   4.941   3.469   7.126 -0.1053  0.2738  0.1096
   8323SM  H17F11124   5.036   3.519   7.098 -0.0815 -0.2516 -0.7978
   8323SM  H17G11125   4.965   3.361   7.130 -0.0176  0.2885 -0.0017
   8323SM  C18F11126   4.887   3.504   7.262  0.1430 -0.0306  1.0040
   8323SM  H18F11127   4.915   3.421   7.331  1.7263 -0.4525 -0.0971
   8323SM  H18G11128   4.776   3.511   7.264  0.1086 -0.5651  2.1618
   8323SM  C19F11129   4.959   3.629   7.318 -0.4786  0.0986 -0.6781
   8323SM  H19F11130   4.975   3.712   7.246  0.9345  1.6932  1.3392
   8323SM  H19G11131   5.064   3.603   7.345 -1.1165 -2.5761 -0.4825
   8323SM  C20F11132   4.887   3.683   7.440 -0.2473  0.6945  0.0761
   8323SM  H20F11133   4.885   3.603   7.516 -1.0059 -1.1384 -1.7912
   8323SM  H20G11134   4.780   3.704   7.420 -1.3477 -2.2809  2.2578
   8323SM  C21F11135   4.953   3.807   7.497 -0.0619 -0.2260  0.0234
   8323SM  H21F11136   4.968   3.879   7.413 -2.1363 -0.4047 -0.5588
   8323SM  H21G11137   5.054   3.780   7.533 -0.2848 -0.5671  0.3955
   8323SM  C22F11138   4.875   3.868   7.616  0.7835 -0.5005 -0.7456
   8323SM  H22F11139   4.954   3.939   7.647  1.2033 -1.1988 -0.1704
   8323SM  H22G11140   4.863   3.788   7.692  0.5550 -0.6646 -0.9519
   8323SM  C23F11141   4.748   3.943   7.586  0.4713 -0.5074 -0.5396
   8323SM  H23F11142   4.678   3.955   7.671 -1.2697 -2.7299 -1.5286
   8323SM  H23G11143   4.689   3.878   7.517 -2.4793  0.2892  1.0642
   8323SM  H23H11144   4.764   4.041   7.536  0.8897  0.0809  0.7152
   8423SM     N11145   4.649   2.228   4.493 -0.4584 -0.3609  0.3589
   8423SM   C1511146   4.700   2.085   4.519  0.2879  0.5089 -0.1510
   8423SM  H15A11147   4.618   2.017   4.500  1.2022 -1.1489  1.5347
   8423SM  H15B11148   4.719   2.063   4.623  0.0994 -2.3349 -0.6373
   8423SM  H15C11149   4.787   2.059   4.462  0.3372  0.9065 -0.2608
   8423SM   C1411150   4.750   2.327   4.524 -0.3312 -0.2421  0.1201
   8423SM  H14A11151   4.765   2.336   4.630 -2.0988  0.6368  0.3260
   8423SM  H14B11152   4.724   2.425   4.487  1.7952  0.8936  1.4001
   8423SM  H14C11153   4.843   2.299   4.476 -0.5755 -1.0873  0.1266
   8423SM   C1311154   4.618   2.234   4.343  0.0784 -0.0873  0.5296
   8423SM  H13A11155   4.525   2.182   4.321 -1.0784  2.4850 -1.0689
   8423SM  H13B11156   4.703   2.185   4.298  0.3051  1.5496 -0.9168
   8423SM  H13C11157   4.617   2.333   4.301  0.6679 -0.9701 -1.7063
   8423SM   C1211158   4.521   2.248   4.571  0.8189  0.4329  0.1636
   8423SM  H12A11159   4.449   2.179   4.531  1.2106  1.6786 -2.9943
   8423SM  H12B11160   4.478   2.343   4.544 -0.7602 -0.3465 -0.1374
   8423SM   C1111161   4.530   2.237   4.729  0.1605 -0.3608  0.2946
   8423SM  H11A11162   4.431   2.261   4.772  0.6679  1.3940  0.5563
   8423SM  H11B11163   4.603   2.314   4.760  0.1352 -0.0487 -0.4129
   8423SM     P11164   4.462   1.988   4.759  0.3093  0.2421 -0.8304
   8423SM   O1311165   4.344   2.030   4.681  0.2565  0.3202 -0.8135
   8423SM   O1411166   4.540   1.874   4.712  0.0276  0.0218 -0.0077
   8423SM   O1111167   4.416   1.957   4.911 -0.4250  0.0506  0.4021
   8423SM   O1211168   4.573   2.106   4.764 -0.0407  0.4420  0.4482
   8423SM   C1S11169   4.500   1.880   4.993  0.0125  0.1418  0.4927
   8423SM   H1S11170   4.604   1.918   4.982 -0.9320  2.8421  0.1233
   8423SM   H1T11171   4.501   1.771   4.969 -1.1103  0.5683 -1.7138
   8423SM    NF11172   4.573   1.833   5.231 -1.2667 -0.1355 -0.3309
   8423SM   HNF11173   4.534   1.765   5.292 -2.1554  1.2392  0.6848
   8423SM   C2S11174   4.474   1.905   5.145  0.3574  0.3648  0.0442
   8423SM   H2S11175   4.492   2.014   5.161  0.4754  0.3053  0.3278
   8423SM   C3S11176   4.327   1.883   5.183 -0.1779 -0.1862  0.0776
   8423SM   H3S11177   4.314   1.772   5.187  0.4898 -0.2552  0.7222
   8423SM    O311178   4.232   1.940   5.094 -0.1369  0.0591 -0.5005
   8423SM   HO311179   4.283   1.969   5.018 -0.6092  0.4619 -0.6643
   8423SM   C4S11180   4.291   1.929   5.321  0.0222  0.6536  0.4639
   8423SM   H4S11181   4.308   2.033   5.350 -0.0807  0.4610  1.2422
   8423SM   C5S11182   4.222   1.854   5.413 -0.2661  0.0042 -0.7476
   8423SM   H5S11183   4.174   1.758   5.392  0.0099 -0.1187 -0.8197
   8423SM   C6S11184   4.200   1.903   5.556 -0.0487 -0.0169  0.8855
   8423SM   H6S11185   4.093   1.885   5.579 -0.1857  0.7431  0.8859
   8423SM   H6T11186   4.211   2.012   5.575  0.4663 -0.0918  1.0405
   8423SM   C7S11187   4.298   1.823   5.646 -0.2483  0.7087  0.1633
   8423SM   H7S11188   4.401   1.842   5.610 -0.5163 -0.1884 -1.1862
   8423SM   H7T11189   4.279   1.713   5.648  1.1679  0.4117 -0.8961
   8423SM   C8S11190   4.279   1.864   5.793 -0.6835  0.1168 -0.1711
   8423SM   H8S11191   4.176   1.852   5.832  0.3943 -1.7058  2.3818
   8423SM   H8T11192   4.294   1.973   5.810  1.6440 -0.2996  0.8230
   8423SM   C9S11193   4.369   1.783   5.887 -0.3967 -0.3200  0.0907
   8423SM   H9S11194   4.475   1.816   5.878 -0.0019 -1.3567  0.7881
   8423SM   H9T11195   4.370   1.676   5.856  2.3328  0.5723 -3.7207
   8423SM  C10S11196   4.341   1.807   6.032 -0.5306 -0.2202 -0.1996
   8423SM  H10S11197   4.236   1.779   6.057 -1.1627  2.5025  0.5532
   8423SM  H10T11198   4.343   1.916   6.054 -1.0644 -0.2820  0.2091
   8423SM  C11S11199   4.442   1.736   6.125 -0.9197  0.4108  0.6381
   8423SM  H11S11200   4.541   1.757   6.080 -0.9207 -2.1084 -0.7552
   8423SM  H11T11201   4.417   1.627   6.125 -0.9488  0.4138  1.1694
   8423SM  C12S11202   4.447   1.779   6.270 -0.9685  0.1833  0.3450
   8423SM  H12S11203   4.472   1.886   6.257  3.2423 -0.7803 -1.0978
   8423SM  H12T11204   4.535   1.735   6.321 -0.1096  1.9487  0.4549
   8423SM  C13S11205   4.325   1.744   6.359 -0.2838 -0.0560  0.0377
   8423SM  H13S11206   4.293   1.638   6.349 -1.3397  0.4079 -2.3441
   8423SM  H13T11207   4.240   1.789   6.303 -0.7863 -1.7327 -0.6156
   8423SM  C14S11208   4.314   1.794   6.502  0.0682 -0.2065  0.2403
   8423SM  H14S11209   4.209   1.785   6.538  0.0200 -4.2613 -0.4303
   8423SM  H14T11210   4.358   1.896   6.509  0.0712 -0.1995  0.1241
   8423SM  C15S11211   4.384   1.696   6.597 -0.3998  0.4081  0.1953
   8423SM  H15S11212   4.492   1.719   6.596 -0.4150  0.5223 -1.0144
   8423SM  H15T11213   4.370   1.591   6.563  0.4987  1.3477 -3.5588
   8423SM  C16S11214   4.329   1.686   6.745 -0.5821  0.0816 -0.1696
   8423SM  H16S11215   4.359   1.592   6.796 -1.3743 -0.7818 -1.2460
   8423SM  H16T11216   4.218   1.693   6.755 -0.5262  0.6502  0.1323
   8423SM  C17S11217   4.391   1.797   6.829  0.0709 -0.1492  0.9548
   8423SM  H17S11218   4.407   1.889   6.769  2.1850 -1.2260 -0.2557
   8423SM  H17T11219   4.494   1.760   6.849  0.9076  1.5215 -0.0808
   8423SM  C18S11220   4.318   1.822   6.956 -0.7861  0.0627 -0.4399
   8423SM  H18S11221   4.302   1.731   7.018  0.4027  1.1255  1.5467
   8423SM  H18T11222   4.217   1.868   6.947 -0.5650  1.3379  2.4518
   8423SM  H18U11223   4.383   1.886   7.021 -2.8482  0.4593  1.3557
   8423SM   C1F11224   4.706   1.844   5.223  0.2398 -0.2173 -0.2534
   8423SM    OF11225   4.762   1.938   5.165 -0.7303  0.3969 -0.3234
   8423SM   C2F11226   4.785   1.741   5.294  0.3471 -0.9573  0.1452
   8423SM   H2F11227   4.796   1.652   5.229  2.1891 -0.6827  0.0233
   8423SM   H2G11228   4.741   1.707   5.390  1.7394 -1.1732  0.7274
   8423SM   C3F11229   4.931   1.788   5.329 -0.2497 -0.3153  0.3458
   8423SM   H3F11230   4.980   1.829   5.239 -0.6560 -1.3238 -0.3534
   8423SM   H3G11231   4.977   1.691   5.357 -0.1321 -0.6339 -0.9065
   8423SM   C4F11232   4.937   1.879   5.457  0.3330 -0.2531  0.3691
   8423SM   H4F11233   4.881   1.975   5.448  3.8559  2.3161  3.1866
   8423SM   H4G11234   5.043   1.908   5.474  0.0295  0.3582  1.2576
   8423SM   C5F11235   4.896   1.798   5.584  0.4376 -0.7554  0.7133
   8423SM   H5F11236   4.953   1.703   5.594  1.2248 -0.4257 -0.4381
   8423SM   H5G11237   4.789   1.767   5.574  0.5391 -1.0856  0.6281
   8423SM   C6F11238   4.920   1.882   5.712  0.1122  0.3386  0.0886
   8423SM   H6F11239   4.865   1.978   5.694  2.6021  1.5107 -1.8511
   8423SM   H6G11240   5.028   1.903   5.725  0.9368 -2.3994 -1.5875
   8423SM   C7F11241   4.879   1.806   5.844  0.0778  0.6073 -0.0046
   8423SM   H7F11242   4.949   1.726   5.876 -0.9855  0.5901  2.5062
   8423SM   H7G11243   4.774   1.769   5.840  0.1798  0.2736  0.3987
   8423SM   C8F11244   4.869   1.904   5.969  0.0394  0.1860 -0.2817
   8423SM   H8F11245   4.796   1.980   5.933 -0.1184 -1.3102 -3.4937
   8423SM   H8G11246   4.962   1.962   5.987 -0.1334  0.9286 -1.7246
   8423SM   C9F11247   4.824   1.833   6.103  1.4446  0.4201 -0.3272
   8423SM   H9F11248   4.733   1.776   6.073  1.2764  0.6075 -0.1739
   8423SM   H9G11249   4.788   1.903   6.182  0.0985 -1.2254  0.5949
   8423SM  C10F11250   4.926   1.748   6.170  0.1722 -0.4648  0.1015
   8423SM  H10F11251   5.012   1.810   6.203 -0.4619 -0.1521  1.2473
   8423SM  H10G11252   4.963   1.672   6.098  0.0977 -1.9286  1.5612
   8423SM  C11F11253   4.876   1.668   6.296 -0.1538 -1.2328 -0.2173
   8423SM  H11F11254   4.948   1.586   6.317  2.1082  1.1993  2.1980
   8423SM  H11G11255   4.773   1.629   6.280  0.6767 -3.5030 -0.4711
   8423SM  C12F11256   4.883   1.755   6.419  0.1983 -0.5177 -0.1003
   8423SM  H12F11257   4.807   1.836   6.423  0.9368  0.1643  3.2459
   8423SM  H12G11258   4.986   1.795   6.414  1.3229 -3.3261 -1.6682
   8423SM  C13F11259   4.868   1.670   6.549 -0.2257 -0.0125 -0.1039
   8423SM  H13F11260   4.932   1.579   6.549 -0.9374 -0.5206 -0.0839
   8423SM  H13G11261   4.762   1.636   6.555 -0.6672  1.4955  1.4793
   8423SM  C14F11262   4.896   1.750   6.678  0.3613 -0.1064  0.0737
   8423SM  H14F11263   4.849   1.850   6.671  1.6274  0.7293  2.4089
   8423SM  H14G11264   5.003   1.768   6.702  0.5990 -0.7989 -0.4373
   8423SM  C15F11265   4.831   1.675   6.797 -0.6791  0.6582 -0.3066
   8423SM  H15F11266   4.878   1.575   6.805 -1.8054 -0.1536 -2.8256
   8423SM  H15G11267   4.722   1.668   6.774 -0.8867  0.5340  0.6883
   8423SM  C16F11268   4.848   1.772   6.910  0.1903 -0.5494  0.4206
   8423SM  H16F11269   4.821   1.876   6.883  0.2192 -0.8972 -1.0555
   8423SM  H16G11270   4.956   1.776   6.935  1.0545  1.8133 -2.9091
   8423SM  C17F11271   4.764   1.741   7.036 -0.9709 -0.6696 -0.4618
   8423SM  H17F11272   4.796   1.643   7.076  0.9543 -0.1249 -0.5163
   8423SM  H17G11273   4.658   1.738   7.003 -0.9150 -1.4558 -0.5889
   8423SM  C18F11274   4.777   1.839   7.155  0.5231  0.3460 -0.0779
   8423SM  H18F11275   4.734   1.939   7.137 -0.0988  0.3235  1.2043
   8423SM  H18G11276   4.883   1.867   7.171  0.7206 -0.3507 -0.1095
   8423SM  C19F11277   4.707   1.775   7.279 -0.5322  1.2641  0.4524
   8423SM  H19F11278   4.713   1.834   7.373 -0.2089 -0.0538  1.2971
   8423SM  H19G11279   4.768   1.685   7.303 -1.5772 -0.1970 -1.9737
   8423SM  C20F11280   4.557   1.740   7.246 -0.4046  0.2724  0.4418
   8423SM  H20F11281   4.557   1.666   7.163  1.4909  2.1480 -1.3603
   8423SM  H20G11282   4.502   1.831   7.216 -0.9418 -0.1077  0.2687
   8423SM  C21F11283   4.475   1.670   7.357 -0.2124  0.7512  0.8033
   8423SM  H21F11284   4.527   1.582   7.400 -0.4270 -0.1012 -0.6280
   8423SM  H21G11285   4.382   1.627   7.315 -0.3062 -0.0416  1.7829
   8423SM  C22F11286   4.428   1.763   7.464 -0.7330 -0.2291  0.4203
   8423SM  H22F11287   4.377   1.849   7.416 -2.6263 -1.7972 -0.5452
   8423SM  H22G11288   4.523   1.788   7.516 -0.0099  0.4266 -1.1785
   8423SM  C23F11289   4.337   1.704   7.570  1.1220  0.0379  0.6239
   8423SM  H23F11290   4.240   1.672   7.527  1.3536  1.0992 -0.7229
   8423SM  H23G11291   4.316   1.779   7.649 -1.9898 -0.4080  0.3180
   8423SM  H23H11292   4.385   1.613   7.613  0.6294  0.2225  1.5930
   8523SM     N11293   5.505   4.429   4.985 -0.0492  0.0531 -0.5210
   8523SM   C1511294   5.439   4.378   4.859 -0.4445 -0.7059  0.0005
   8523SM  H15A11295   5.507   4.353   4.779 -1.3126  0.9176 -1.2887
   8523SM  H15B11296   5.390   4.461   4.812  0.3115 -0.2750 -0.0534
   8523SM  H15C11297   5.370   4.297   4.877 -1.2925 -0.1802 -0.7906
   8523SM   C1411298   5.606   4.533   4.944  0.6614 -0.3338  0.1032
   8523SM  H14A11299   5.678   4.493   4.873  1.1775 -1.2712  1.1147
   8523SM  H14B11300   5.650   4.575   5.033 -1.3845  3.4688 -0.5000
   8523SM  H14C11301   5.553   4.619   4.907  2.2396  0.2310 -0.9477
   8523SM   C1311302   5.395   4.483   5.073  0.0361  0.7693 -0.4036
   8523SM  H13A11303   5.427   4.531   5.164 -0.2610  0.8226 -0.3263
   8523SM  H13B11304   5.328   4.404   5.103 -0.5542  0.9235 -1.2822
   8523SM  H13C11305   5.344   4.557   5.013  0.9419  0.8826 -1.0623
   8523SM   C1211306   5.583   4.314   5.060 -0.0217 -0.6174 -0.1817
   8523SM  H12A11307   5.515   4.236   5.090 -0.8618  0.1868  0.0845
   8523SM  H12B11308   5.629   4.349   5.151  2.2068 -1.6248 -0.8390
   8523SM   C1111309   5.700   4.239   4.986 -0.3385  0.0741  1.2478
   8523SM  H11A11310   5.758   4.166   5.048 -0.5092 -0.4631  0.7879
   8523SM  H11B11311   5.776   4.318   4.968  2.1050 -2.2230  0.8932
   8523SM     P11312   5.598   4.043   4.854  0.1303  0.0065  0.2780
   8523SM   O1311313   5.506   4.053   4.734 -0.0793  0.1115 -0.3506
   8523SM   O1411314   5.696   3.931   4.848 -0.2526  0.2267  0.2928
   8523SM   O1111315   5.506   4.037   4.984  0.3138 -0.2417  0.3580
   8523SM   O1211316   5.667   4.181   4.862  0.0131  0.3984 -0.4852
   8523SM   C1S11317   5.387   3.960   4.989 -0.0121  0.7067 -1.0116
   8523SM   H1S11318   5.388   3.863   4.934 -2.9824  0.8448 -1.5143
   8523SM   H1T11319   5.297   4.014   4.953  0.6357  1.2105 -1.9112
   8523SM    NF11320   5.225   3.844   5.156 -0.4878 -0.0771 -0.3111
   8523SM   HNF11321   5.151   3.883   5.211  0.4061  0.0945  0.8138
   8523SM   C2S11322   5.351   3.920   5.144  0.3510 -0.8966  0.3759
   8523SM   H2S11323   5.438   3.858   5.176  0.2585 -2.6878 -2.4949
   8523SM   C3S11324   5.349   4.049   5.234  0.0437  0.4262 -0.4630
   8523SM   H3S11325   5.290   4.131   5.187  2.4712  1.2759 -2.2468
   8523SM    O311326   5.484   4.095   5.244 -0.1606  0.0506 -0.1167
   8523SM   HO311327   5.526   4.057   5.167 -1.7182  0.6777 -1.3165
   8523SM   C4S11328   5.311   4.016   5.373  0.1079  0.1265  0.2533
   8523SM   H4S11329   5.372   3.948   5.434 -0.5134 -2.5957 -1.9336
   8523SM   C5S11330   5.199   4.055   5.430 -0.0386 -1.2548  0.6021
   8523SM   H5S11331   5.133   4.124   5.376 -2.2008 -2.9231  0.9243
   8523SM   C6S11332   5.140   4.017   5.562  0.3187  0.0886 -0.1741
   8523SM   H6S11333   5.058   3.943   5.556  0.2832 -0.3549  3.5583
   8523SM   H6T11334   5.092   4.109   5.604  1.3062  1.4324 -1.8389
   8523SM   C7S11335   5.247   3.967   5.662 -0.2678 -0.2603  0.2282
   8523SM   H7S11336   5.336   4.032   5.672 -0.2182 -0.6397  3.0197
   8523SM   H7T11337   5.299   3.875   5.624  1.7930  0.9307  0.0101
   8523SM   C8S11338   5.193   3.958   5.803 -0.4181 -0.0226  0.1549
   8523SM   H8S11339   5.104   3.892   5.812 -0.9672  0.8596  1.4743
   8523SM   H8T11340   5.162   4.063   5.824 -2.4143 -0.2902 -1.1631
   8523SM   C9S11341   5.298   3.905   5.904  0.9495 -0.0718 -0.1316
   8523SM   H9S11342   5.392   3.962   5.886  0.0533  1.5848  0.1682
   8523SM   H9T11343   5.312   3.796   5.893 -2.6764 -0.6248 -0.5634
   8523SM  C10S11344   5.260   3.939   6.047  0.2225 -0.0178 -1.1889
   8523SM  H10S11345   5.150   3.923   6.052  0.3003 -0.4851 -0.8623
   8523SM  H10T11346   5.289   4.044   6.069 -0.2342 -0.0597 -0.3230
   8523SM  C11S11347   5.327   3.848   6.142 -0.6739 -0.2492  0.6393
   8523SM  H11S11348   5.436   3.865   6.151 -0.1976 -3.0363  1.3803
   8523SM  H11T11349   5.314   3.743   6.106 -1.2072 -0.2760  0.8888
   8523SM  C12S11350   5.281   3.860   6.283 -0.0404  0.0207 -0.8883
   8523SM  H12S11351   5.173   3.834   6.291  0.1009 -0.2940  0.1915
   8523SM  H12T11352   5.291   3.968   6.309 -3.0181 -0.2710  2.0695
   8523SM  C13S11353   5.368   3.783   6.386 -0.6320 -0.6254  0.8149
   8523SM  H13S11354   5.471   3.822   6.375 -0.8659 -0.5190 -1.3930
   8523SM  H13T11355   5.368   3.674   6.363  1.3144 -0.7682  1.3238
   8523SM  C14S11356   5.297   3.799   6.526 -0.2706  0.5505  0.7671
   8523SM  H14S11357   5.194   3.764   6.504 -1.8359  4.8300  0.2880
   8523SM  H14T11358   5.296   3.910   6.537 -1.4066  0.9720 -2.3722
   8523SM  C15S11359   5.381   3.725   6.635 -0.3127  0.0549 -0.0262
   8523SM  H15S11360   5.492   3.738   6.636  0.1173 -2.7777 -0.7151
   8523SM  H15T11361   5.370   3.618   6.606  1.9305 -0.5797  1.1732
   8523SM  C16S11362   5.321   3.752   6.772 -0.0599  0.2295 -1.0995
   8523SM  H16S11363   5.210   3.757   6.770 -0.0620  0.2773 -0.8845
   8523SM  H16T11364   5.357   3.853   6.800  0.5659  0.0257 -1.1378
   8523SM  C17S11365   5.363   3.666   6.889  0.7375 -0.0257  0.1642
   8523SM  H17S11366   5.473   3.686   6.893  0.4697  1.4205  1.0812
   8523SM  H17T11367   5.349   3.560   6.860 -0.3286  0.6788 -2.1200
   8523SM  C18S11368   5.282   3.712   7.016  0.0722  0.2409 -0.1155
   8523SM  H18S11369   5.306   3.639   7.096 -0.3335 -0.6215 -0.7665
   8523SM  H18T11370   5.174   3.710   6.987  0.1362  0.1646 -0.3557
   8523SM  H18U11371   5.311   3.816   7.042  4.5407 -0.4835 -1.3242
   8523SM   C1F11372   5.225   3.717   5.122  0.2765 -0.8150  0.2890
   8523SM    OF11373   5.335   3.668   5.086 -0.2144  0.3645 -0.8256
   8523SM   C2F11374   5.100   3.643   5.127 -0.1328  0.1447 -0.2387
   8523SM   H2F11375   5.099   3.557   5.056 -1.4856 -0.2585  0.2358
   8523SM   H2G11376   5.004   3.697   5.114 -0.0296 -0.0280 -1.9294
   8523SM   C3F11377   5.104   3.568   5.264  0.7205  0.3575 -0.1503
   8523SM   H3F11378   5.175   3.482   5.266 -0.6309 -0.8141 -0.9642
   8523SM   H3G11379   5.003   3.524   5.269  0.6476  0.5011 -0.3704
   8523SM   C4F11380   5.103   3.657   5.392  0.0061 -0.7093 -0.4495
   8523SM   H4F11381   5.019   3.730   5.392  1.1277  0.6412 -0.1029
   8523SM   H4G11382   5.196   3.718   5.403 -0.1785 -0.7838  2.2630
   8523SM   C5F11383   5.099   3.558   5.513  0.1793 -0.2942  0.4472
   8523SM   H5F11384   5.177   3.480   5.500  0.8548  0.7542 -2.7968
   8523SM   H5G11385   4.996   3.519   5.503  0.0217 -0.3654  2.0636
   8523SM   C6F11386   5.111   3.616   5.654 -0.3782 -0.7607 -0.4503
   8523SM   H6F11387   5.033   3.693   5.671 -0.4090 -1.1598  1.5239
   8523SM   H6G11388   5.214   3.657   5.655 -0.6829  0.0110  0.0247
   8523SM   C7F11389   5.098   3.509   5.767  0.5218 -0.4225 -0.0623
   8523SM   H7F11390   5.140   3.421   5.713 -0.7221  0.1170 -2.0040
   8523SM   H7G11391   4.989   3.487   5.770  0.4850 -0.2717 -0.2834
   8523SM   C8F11392   5.158   3.546   5.899  0.1021 -0.3767  0.8432
   8523SM   H8F11393   5.123   3.641   5.943 -0.2678 -0.2136  0.2123
   8523SM   H8G11394   5.268   3.540   5.886  0.0330  1.7493 -1.4358
   8523SM   C9F11395   5.122   3.449   6.015 -0.5201  1.2559 -1.2400
   8523SM   H9F11396   5.128   3.345   5.978  2.2465  1.5226 -1.7416
   8523SM   H9G11397   5.019   3.482   6.039  0.2670  3.1983 -0.2895
   8523SM  C10F11398   5.216   3.465   6.139  0.0187 -0.0940  0.5817
   8523SM  H10F11399   5.210   3.565   6.186  0.2350 -0.0854  0.5931
   8523SM  H10G11400   5.322   3.440   6.115 -0.8729 -3.4535 -0.4472
   8523SM  C11F11401   5.185   3.362   6.244  0.0188 -0.3693  0.4532
   8523SM  H11F11402   5.228   3.261   6.228 -0.1779 -0.0682 -2.3137
   8523SM  H11G11403   5.077   3.334   6.240  0.2559 -1.1360 -0.9001
   8523SM  C12F11404   5.234   3.404   6.386 -0.4077 -0.3496 -0.4535
   8523SM  H12F11405   5.169   3.493   6.402 -0.7686 -0.5736 -0.6550
   8523SM  H12G11406   5.341   3.433   6.385 -0.5126  0.1478  0.8577
   8523SM  C13F11407   5.207   3.305   6.490  0.5388 -0.0852  0.4721
   8523SM  H13F11408   5.255   3.205   6.479  1.9802  0.5431  0.8320
   8523SM  H13G11409   5.099   3.282   6.479  0.8603 -1.7234  0.4599
   8523SM  C14F11410   5.218   3.360   6.628 -0.1212 -0.4179 -0.5812
   8523SM  H14F11411   5.136   3.431   6.652 -0.5919 -0.1985 -2.6611
   8523SM  H14G11412   5.309   3.416   6.658 -0.8454  0.4041  0.1487
   8523SM  C15F11413   5.192   3.237   6.722 -0.1669 -0.0182 -0.1495
   8523SM  H15F11414   5.248   3.147   6.690 -0.7969  0.3687 -2.5895
   8523SM  H15G11415   5.083   3.216   6.713 -0.2832  0.3241  0.4136
   8523SM  C16F11416   5.231   3.272   6.872 -0.3282 -0.4215  0.7175
   8523SM  H16F11417   5.179   3.367   6.895  0.4986  0.8572 -2.2548
   8523SM  H16G11418   5.341   3.281   6.872 -0.4420  1.4452  0.1191
   8523SM  C17F11419   5.194   3.159   6.965  1.0282  0.4746  0.6521
   8523SM  H17F11420   5.242   3.070   6.918  1.3677  0.2049  1.4793
   8523SM  H17G11421   5.084   3.148   6.964  0.9307  0.6668 -3.2310
   8523SM  C18F11422   5.252   3.178   7.102  0.3525 -0.9610  0.1253
   8523SM  H18F11423   5.246   3.289   7.109  1.0739 -0.8713 -0.5272
   8523SM  H18G11424   5.357   3.145   7.112  0.3367 -1.0253  0.0757
   8523SM  C19F11425   5.162   3.115   7.213  0.2418  0.6134 -0.0978
   8523SM  H19F11426   5.182   3.006   7.202  0.9495  0.8362 -1.2272
   8523SM  H19G11427   5.060   3.154   7.195 -0.3279 -1.2498 -1.2341
   8523SM  C20F11428   5.205   3.162   7.347 -0.0736 -0.3143 -0.8592
   8523SM  H20F11429   5.208   3.273   7.349 -1.4439 -0.2289 -1.9160
   8523SM  H20G11430   5.310   3.127   7.358 -0.0916 -0.5724 -1.5032
   8523SM  C21F11431   5.130   3.107   7.466 -0.6908  0.0157 -0.0156
   8523SM  H21F11432   5.181   3.132   7.561 -1.4513 -0.5969  0.5600
   8523SM  H21G11433   5.122   2.996   7.462 -0.2218 -0.0180 -0.0941
   8523SM  C22F11434   4.992   3.173   7.490 -0.0299  1.1676 -0.0113
   8523SM  H22F11435   4.943   3.099   7.556  0.0317 -0.8515 -2.0919
   8523SM  H22G11436   4.935   3.180   7.394 -3.0368 -1.3367  1.3985
   8523SM  C23F11437   5.007   3.307   7.567  0.6587  0.2870  0.1151
   8523SM  H23F11438   4.912   3.363   7.565 -0.6133 -1.7942 -1.7605
   8523SM  H23G11439   5.080   3.370   7.511  0.8495  0.3434  0.4219
   8523SM  H23H11440   5.032   3.287   7.674  0.5810  0.4360  0.1603
   8623SM     N11441   3.619   2.148   4.744  0.4711 -0.4299  0.4652
   8623SM   C1511442   3.668   2.082   4.620  0.3692  0.8015 -0.4468
   8623SM  H15A11443   3.664   1.976   4.639 -2.4661  1.2174  2.0855
   8623SM  H15B11444   3.770   2.113   4.605  1.2887 -1.3356  0.9270
   8623SM  H15C11445   3.610   2.103   4.532  0.5127 -0.2682 -0.8045
   8623SM   C1411446   3.650   2.293   4.736 -0.4250  0.5512  0.2846
   8623SM  H14A11447   3.629   2.339   4.641 -2.8201 -0.0202  0.4902
   8623SM  H14B11448   3.755   2.296   4.764 -0.6804 -0.6692  1.4952
   8623SM  H14C11449   3.595   2.352   4.808 -0.3672  2.2824 -1.0225
   8623SM   C1311450   3.464   2.133   4.753  0.1115 -0.2880  0.5461
   8623SM  H13A11451   3.421   2.166   4.847 -0.6053 -2.4911  1.0476
   8623SM  H13B11452   3.430   2.031   4.739  1.2198 -0.6086  0.1154
   8623SM  H13C11453   3.419   2.194   4.676  0.4019 -1.5389 -0.6517
   8623SM   C1211454   3.679   2.090   4.869 -0.1246  0.0924 -0.3146
   8623SM  H12A11455   3.786   2.105   4.866 -0.0672  0.1788  1.3238
   8623SM  H12B11456   3.681   1.983   4.857 -2.6494 -0.1938  1.2672
   8623SM   C1111457   3.622   2.108   5.015  0.1629  0.0192  0.6981
   8623SM  H11A11458   3.613   2.217   5.033  0.5294  0.0670  0.6186
   8623SM  H11B11459   3.702   2.070   5.083  1.1249  0.7950  0.0271
   8623SM     P11460   3.487   1.903   5.095 -0.3383  0.0144  0.0219
   8623SM   O1311461   3.352   1.847   5.067 -0.1670  0.1740 -0.7690
   8623SM   O1411462   3.604   1.827   5.043  0.0495 -0.6001 -0.2781
   8623SM   O1111463   3.511   1.919   5.245  0.1151  0.0961 -0.1936
   8623SM   O1211464   3.493   2.055   5.035  0.2947  0.1442  0.1056
   8623SM   C1S11465   3.455   2.037   5.318  0.2620 -1.2187 -0.2717
   8623SM   H1S11466   3.345   2.051   5.323  0.4463  0.6943  5.2249
   8623SM   H1T11467   3.492   2.134   5.279 -1.3389 -0.5374 -0.1635
   8623SM    NF11468   3.426   2.122   5.547  0.3229  0.1001 -0.2733
   8623SM   HNF11469   3.475   2.198   5.588  2.9158 -1.2655 -0.6284
   8623SM   C2S11470   3.499   2.027   5.461  0.5625 -0.7434 -0.6291
   8623SM   H2S11471   3.463   1.927   5.492  2.3261 -1.4086 -0.5989
   8623SM   C3S11472   3.656   2.030   5.484  0.1012 -0.6209 -0.1089
   8623SM   H3S11473   3.695   2.133   5.472 -1.1773 -0.0549  0.3859
   8623SM    O311474   3.733   1.954   5.392 -0.5333 -0.0526  0.7231
   8623SM   HO311475   3.659   1.927   5.336 -0.7394 -1.3882  1.5948
   8623SM   C4S11476   3.696   1.999   5.623 -0.1770 -0.0246  0.1059
   8623SM   H4S11477   3.670   1.898   5.656  0.5173  0.1396  1.2124
   8623SM   C5S11478   3.753   2.088   5.712  0.1092  0.5247 -0.1126
   8623SM   H5S11479   3.787   2.187   5.678 -2.2394  1.1663 -0.7505
   8623SM   C6S11480   3.794   2.051   5.850  0.0705 -0.0173  0.4979
   8623SM   H6S11481   3.711   2.072   5.921 -1.2170  0.2955 -1.0265
   8623SM   H6T11482   3.882   2.113   5.877  1.7259 -1.7536 -0.6581
   8623SM   C7S11483   3.842   1.905   5.881 -0.0225 -0.1683 -0.2852
   8623SM   H7S11484   3.916   1.873   5.805  1.5133  0.3876  0.9394
   8623SM   H7T11485   3.750   1.845   5.864 -0.7544  0.7891  0.2050
   8623SM   C8S11486   3.898   1.903   6.022  0.8793  0.2687  0.0826
   8623SM   H8S11487   3.843   1.965   6.097  1.1693  1.4923 -0.6768
   8623SM   H8T11488   4.002   1.936   6.006  1.6217 -2.7040 -1.9338
   8623SM   C9S11489   3.899   1.759   6.078 -0.3769 -0.3377 -0.0893
   8623SM   H9S11490   3.968   1.706   6.009  2.8582  2.4727  0.7189
   8623SM   H9T11491   3.799   1.711   6.082  0.8242 -3.0172  0.5604
   8623SM  C10S11492   3.958   1.752   6.222  0.2428 -0.6186  0.3802
   8623SM  H10S11493   4.055   1.807   6.223  0.6015 -1.2299 -0.0689
   8623SM  H10T11494   3.980   1.646   6.248  3.1654  0.0433  1.0329
   8623SM  C11S11495   3.862   1.813   6.326 -0.5903 -0.4213  0.3360
   8623SM  H11S11496   3.769   1.755   6.312  0.1465 -0.8750 -3.8723
   8623SM  H11T11497   3.846   1.918   6.294 -0.0579 -0.6034 -0.5800
   8623SM  C12S11498   3.926   1.820   6.464 -0.7106  0.1572  0.2289
   8623SM  H12S11499   4.030   1.852   6.446 -1.4153  0.3641 -4.7905
   8623SM  H12T11500   3.937   1.716   6.502  2.3966  0.1522 -0.4389
   8623SM  C13S11501   3.855   1.916   6.559  0.4067 -0.4585 -0.6470
   8623SM  H13S11502   3.745   1.905   6.544  0.6396  0.3800 -3.5698
   8623SM  H13T11503   3.881   2.018   6.522 -0.1614  0.1081  0.4561
   8623SM  C14S11504   3.897   1.889   6.701  0.6984  0.1067 -0.7762
   8623SM  H14S11505   4.007   1.901   6.696  0.7537  0.1004  0.3710
   8623SM  H14T11506   3.882   1.782   6.726 -3.0291  0.1721 -2.0381
   8623SM  C15S11507   3.844   1.973   6.818  0.7370 -0.1875  0.0806
   8623SM  H15S11508   3.736   1.956   6.839  0.5792  1.0654  0.3506
   8623SM  H15T11509   3.848   2.083   6.807 -1.5190  0.0038  0.6617
   8623SM  C16S11510   3.910   1.940   6.951 -0.2982  0.4252 -1.1255
   8623SM  H16S11511   4.018   1.964   6.937  0.0158  0.1858  0.5829
   8623SM  H16T11512   3.898   1.837   6.993 -1.6303  0.3416 -1.6690
   8623SM  C17S11513   3.855   2.033   7.069  0.3429  0.5309 -0.3373
   8623SM  H17S11514   3.748   2.006   7.087  1.1571 -1.4996  2.0155
   8623SM  H17T11515   3.868   2.137   7.031 -0.4442  0.0040 -2.1801
   8623SM  C18S11516   3.921   2.009   7.203 -0.0700  0.2986  0.0932
   8623SM  H18S11517   3.906   2.092   7.275 -0.0222 -1.2928  2.0248
   8623SM  H18T11518   4.029   2.005   7.176  0.0580 -0.9170  0.7276
   8623SM  H18U11519   3.895   1.912   7.250  1.2801 -0.8304 -1.3564
   8623SM   C1F11520   3.296   2.129   5.567  0.0408 -0.0569  0.3313
   8623SM    OF11521   3.227   2.036   5.532  0.5314  0.5401 -0.1949
   8623SM   C2F11522   3.238   2.254   5.624  0.4131  0.1919 -0.5050
   8623SM   H2F11523   3.168   2.287   5.544  2.1723  2.1443 -1.3080
   8623SM   H2G11524   3.316   2.328   5.649  1.1563  0.0860 -2.3413
   8623SM   C3F11525   3.158   2.215   5.755  0.6604 -0.5167 -0.3227
   8623SM   H3F11526   3.064   2.160   5.737 -0.8447  1.3518  1.2961
   8623SM   H3G11527   3.119   2.313   5.790 -0.7994 -1.0852 -0.3069
   8623SM   C4F11528   3.236   2.162   5.873  0.8551 -0.0757 -0.6324
   8623SM   H4F11529   3.310   2.242   5.897 -2.5727  3.4598 -0.8544
   8623SM   H4G11530   3.290   2.067   5.852 -1.1241 -0.8357 -2.6331
   8623SM   C5F11531   3.144   2.152   5.997  0.1581  0.0666  0.6482
   8623SM   H5F11532   3.082   2.060   5.996  0.3857 -0.1046  1.4254
   8623SM   H5G11533   3.082   2.242   6.017 -0.6242  0.4192 -2.7902
   8623SM   C6F11534   3.237   2.141   6.123 -0.1612  0.6245  0.4012
   8623SM   H6F11535   3.264   2.245   6.152 -1.8169  1.2400 -0.1237
   8623SM   H6G11536   3.327   2.088   6.087 -1.9717 -2.5873  0.2146
   8623SM   C7F11537   3.182   2.071   6.242  0.6300 -0.6875  1.0069
   8623SM   H7F11538   3.268   2.056   6.311  0.2961 -1.5487  1.2525
   8623SM   H7G11539   3.136   1.975   6.209 -0.1823 -0.1806  0.6395
   8623SM   C8F11540   3.066   2.155   6.296 -0.1729  0.3017 -0.5028
   8623SM   H8F11541   2.974   2.094   6.289  0.1085 -0.2729  0.5098
   8623SM   H8G11542   3.048   2.252   6.244 -0.9954  1.2679  1.4521
   8623SM   C9F11543   3.091   2.201   6.442  0.1077  0.0502  0.4773
   8623SM   H9F11544   3.191   2.248   6.449  0.3126  0.1903 -2.2546
   8623SM   H9G11545   3.089   2.111   6.506 -1.3646 -1.0640 -1.0483
   8623SM  C10F11546   2.986   2.299   6.490  0.1977 -0.0970  0.1991
   8623SM  H10F11547   2.985   2.387   6.422  1.2444 -2.6426 -3.3762
   8623SM  H10G11548   3.017   2.349   6.585  1.2169  3.6322 -1.9110
   8623SM  C11F11549   2.845   2.242   6.503 -0.0058  0.0861  0.0415
   8623SM  H11F11550   2.829   2.177   6.591 -0.3141 -0.2769 -0.2746
   8623SM  H11G11551   2.816   2.186   6.411  1.1330  0.4095 -0.5324
   8623SM  C12F11552   2.738   2.357   6.505 -0.8256 -0.4600  0.3820
   8623SM  H12F11553   2.735   2.412   6.408  2.0836 -0.4648  0.2268
   8623SM  H12G11554   2.760   2.437   6.578 -0.4868  0.2469 -0.4814
   8623SM  C13F11555   2.600   2.290   6.535  0.2193 -0.2062  0.2162
   8623SM  H13F11556   2.598   2.205   6.465 -0.9371 -0.4137  0.4834
   8623SM  H13G11557   2.532   2.367   6.493  1.4862 -0.1724 -1.9125
   8623SM  C14F11558   2.569   2.245   6.682  0.5818  0.3300  0.1273
   8623SM  H14F11559   2.565   2.332   6.751  0.7298  0.2521  0.2338
   8623SM  H14G11560   2.653   2.188   6.727 -0.4088 -1.8465 -0.6709
   8623SM  C15F11561   2.437   2.166   6.688 -0.3189  0.8808 -0.4661
   8623SM  H15F11562   2.457   2.068   6.641 -3.3183  0.4729 -1.1317
   8623SM  H15G11563   2.372   2.221   6.617 -0.4085  1.1867 -0.1510
   8623SM  C16F11564   2.383   2.160   6.832  0.2668 -0.3589  0.1604
   8623SM  H16F11565   2.322   2.251   6.850 -0.6504 -0.9676  0.1399
   8623SM  H16G11566   2.463   2.160   6.909 -2.3594 -1.4950  3.0670
   8623SM  C17F11567   2.299   2.032   6.852  0.6648  0.2990 -0.1866
   8623SM  H17F11568   2.262   1.992   6.755 -0.6228  0.3715  0.2614
   8623SM  H17G11569   2.200   2.039   6.902 -0.9753 -3.0582 -2.5671
   8623SM  C18F11570   2.380   1.920   6.928 -0.1964  0.1321  0.1102
   8623SM  H18F11571   2.433   1.969   7.012  1.4114  1.1375 -1.4037
   8623SM  H18G11572   2.462   1.889   6.859  1.7465  0.2238  2.2705
   8623SM  C19F11573   2.296   1.800   6.985  0.0443 -0.4989 -0.2791
   8623SM  H19F11574   2.252   1.737   6.905 -0.3696 -0.8036  0.1890
   8623SM  H19G11575   2.218   1.828   7.059  0.0365 -2.0721  0.3417
   8623SM  C20F11576   2.383   1.713   7.073 -0.2240  0.3415 -0.1946
   8623SM  H20F11577   2.450   1.763   7.147  2.5385 -1.7823 -1.0617
   8623SM  H20G11578   2.445   1.651   7.005 -1.2367 -1.1920  0.2511
   8623SM  C21F11579   2.294   1.619   7.154 -0.5404 -0.4259 -0.0416
   8623SM  H21F11580   2.237   1.547   7.093  0.1793 -0.7432 -0.3526
   8623SM  H21G11581   2.216   1.678   7.206 -0.2797  1.4039 -1.6101
   8623SM  C22F11582   2.372   1.547   7.267  0.1288  0.0131 -0.1771
   8623SM  H22F11583   2.420   1.614   7.341  2.4528  0.4746 -1.9738
   8623SM  H22G11584   2.457   1.486   7.227 -1.2954 -1.7069 -0.7258
   8623SM  C23F11585   2.287   1.443   7.345  0.4859 -0.5864  0.6464
   8623SM  H23F11586   2.219   1.382   7.282 -0.4640  0.4466  0.6303
   8623SM  H23G11587   2.229   1.502   7.420 -1.9269  1.1264 -2.3217
   8623SM  H23H11588   2.352   1.378   7.408  1.8433  0.7171  0.6445
   8723SM     N11589   4.082   1.046   4.616 -0.1575 -0.1339  0.2669
   8723SM   C1511590   4.204   1.090   4.692  0.7376  0.2294 -0.1722
   8723SM  H15A11591   4.293   1.047   4.648  2.0209  0.3902  2.1282
   8723SM  H15B11592   4.197   1.048   4.791 -0.7956 -1.2769 -0.8673
   8723SM  H15C11593   4.216   1.198   4.699  0.7920  0.2284 -0.2430
   8723SM   C1411594   4.096   1.080   4.470  0.6711  0.5747  0.0248
   8723SM  H14A11595   4.027   1.013   4.421 -1.3412  1.7233  1.1587
   8723SM  H14B11596   4.197   1.057   4.442  0.9688 -1.9382  2.7293
   8723SM  H14C11597   4.078   1.183   4.440 -2.1598 -0.6755 -3.2752
   8723SM   C1311598   4.072   0.897   4.629 -0.0969 -0.2328  0.1498
   8723SM  H13A11599   3.986   0.858   4.578 -0.0548  1.7910 -1.6477
   8723SM  H13B11600   4.072   0.869   4.733 -0.0399  0.0558  0.2302
   8723SM  H13C11601   4.159   0.848   4.587  1.4577  2.0775  0.4439
   8723SM   C1211602   3.950   1.105   4.678 -0.2144 -0.3144  0.3141
   8723SM  H12A11603   3.861   1.053   4.643 -0.0341  0.9145 -2.1936
   8723SM  H12B11604   3.951   1.206   4.640  1.0896 -0.1468  0.7507
   8723SM   C1111605   3.930   1.122   4.831 -0.2977 -0.0908  0.2961
   8723SM  H11A11606   3.953   1.026   4.883  1.2889  0.4711  0.6995
   8723SM  H11B11607   3.821   1.135   4.847 -0.0141 -0.2266  2.6508
   8723SM     P11608   4.102   1.232   5.002  0.4609 -0.0708 -0.4102
   8723SM   O1311609   4.170   1.102   4.980 -0.2407  0.0390  0.2173
   8723SM   O1411610   4.185   1.358   4.992  0.6012  0.2587 -0.0244
   8723SM   O1111611   4.031   1.242   5.141 -0.5115 -0.0857  0.4723
   8723SM   O1211612   3.987   1.240   4.898 -0.2470  0.5558 -0.3136
   8723SM   C1S11613   3.937   1.348   5.179  0.2781 -0.3954 -0.1813
   8723SM   H1S11614   3.842   1.318   5.129  1.4018 -2.5293 -1.1679
   8723SM   H1T11615   3.965   1.444   5.131 -0.1957 -0.6605 -1.0089
   8723SM    NF11616   3.803   1.455   5.356 -0.7632  0.7648 -0.1556
   8723SM   HNF11617   3.831   1.551   5.358 -1.0389  0.9156 -1.8667
   8723SM   C2S11618   3.918   1.365   5.334  0.1854  0.4962  0.2641
   8723SM   H2S11619   3.893   1.268   5.382  1.0892 -0.0422 -0.3406
   8723SM   C3S11620   4.048   1.411   5.402 -0.3398  0.5521  0.6501
   8723SM   H3S11621   4.072   1.510   5.358  1.3342 -0.5372 -1.0436
   8723SM    O311622   4.157   1.324   5.356 -0.7406 -0.6112 -0.4629
   8723SM   HO311623   4.130   1.284   5.273  1.1047 -0.9656 -0.9518
   8723SM   C4S11624   4.035   1.402   5.550 -0.2727 -0.4697 -0.9800
   8723SM   H4S11625   4.037   1.297   5.585  0.6936  0.2856  1.4630
   8723SM   C5S11626   4.028   1.498   5.647 -0.6480 -0.1884  0.3386
   8723SM   H5S11627   4.031   1.606   5.628  1.5111 -0.1852  0.4857
   8723SM   C6S11628   4.016   1.463   5.792  0.2399  0.3588  0.0574
   8723SM   H6S11629   4.034   1.354   5.804 -1.8032 -0.3653 -2.4244
   8723SM   H6T11630   3.916   1.488   5.833 -0.3659  0.2306 -1.2689
   8723SM   C7S11631   4.135   1.511   5.877 -0.3955  0.1418  0.0350
   8723SM   H7S11632   4.140   1.621   5.897  2.7971 -0.0373  0.8114
   8723SM   H7T11633   4.228   1.480   5.824 -0.3414  1.2025 -0.5285
   8723SM   C8S11634   4.146   1.450   6.015 -0.3056  0.0073 -0.4183
   8723SM   H8S11635   4.043   1.445   6.057 -0.1383 -0.4754 -0.0646
   8723SM   H8T11636   4.215   1.501   6.085 -0.3280 -0.3859 -0.1072
   8723SM   C9S11637   4.189   1.304   6.024 -0.0214  0.1640 -0.5817
   8723SM   H9S11638   4.251   1.288   5.934  0.0384  3.7138 -1.3394
   8723SM   H9T11639   4.102   1.237   6.010 -0.1078 -0.7276  3.1978
   8723SM  C10S11640   4.258   1.265   6.152  0.1741  0.3012 -0.6624
   8723SM  H10S11641   4.343   1.334   6.169  0.2729 -0.3175  1.6168
   8723SM  H10T11642   4.303   1.163   6.152  1.5431  0.8694  0.4894
   8723SM  C11S11643   4.162   1.274   6.279  0.3206 -0.3262  0.1558
   8723SM  H11S11644   4.080   1.200   6.271  2.5542 -2.9818  0.3830
   8723SM  H11T11645   4.105   1.369   6.286  0.0184 -0.5236  0.4204
   8723SM  C12S11646   4.234   1.255   6.402 -0.4143 -0.1624  0.1457
   8723SM  H12S11647   4.302   1.341   6.420 -0.4410  0.2744 -1.6413
   8723SM  H12T11648   4.284   1.156   6.406 -1.1534 -0.5058  1.0977
   8723SM  C13S11649   4.142   1.246   6.523 -0.5055  0.3388 -0.1880
   8723SM  H13S11650   4.096   1.145   6.527  1.2207 -0.8362 -4.6379
   8723SM  H13T11651   4.060   1.318   6.502  1.8088  3.1916 -0.1429
   8723SM  C14S11652   4.210   1.250   6.657 -0.3978  0.1931 -0.1620
   8723SM  H14S11653   4.228   1.359   6.664 -0.3611  0.2185 -0.6572
   8723SM  H14T11654   4.306   1.194   6.654 -1.8375 -2.6687  1.4984
   8723SM  C15S11655   4.127   1.213   6.777  0.1796 -0.4683  0.1896
   8723SM  H15S11656   4.087   1.111   6.761  0.0188 -0.5595  1.0999
   8723SM  H15T11657   4.047   1.289   6.786 -0.7203 -1.5320  1.6034
   8723SM  C16S11658   4.216   1.207   6.900  0.8882  0.5451 -0.8112
   8723SM  H16S11659   4.254   1.310   6.915  1.4170  0.0951  1.3856
   8723SM  H16T11660   4.297   1.133   6.882  0.9409  0.8673 -1.9176
   8723SM  C17S11661   4.146   1.168   7.025 -0.0490 -0.6258  0.4672
   8723SM  H17S11662   4.105   1.068   7.000  1.7073 -1.1778 -0.4435
   8723SM  H17T11663   4.057   1.222   7.062 -0.7859 -1.4244 -0.0840
   8723SM  C18S11664   4.243   1.147   7.143 -0.2916 -0.1071 -0.8372
   8723SM  H18S11665   4.200   1.082   7.222 -1.7548  1.5853 -0.1771
   8723SM  H18T11666   4.258   1.242   7.199 -0.0576 -1.1065  0.8774
   8723SM  H18U11667   4.343   1.111   7.111 -0.6040 -0.1808 -1.7527
   8723SM   C1F11668   3.675   1.421   5.351  0.1491 -0.2330 -0.1182
   8723SM    OF11669   3.642   1.304   5.330  0.6454  0.0114  0.4907
   8723SM   C2F11670   3.577   1.537   5.366 -0.8771  0.2453 -0.4176
   8723SM   H2F11671   3.471   1.503   5.368 -0.8708  0.0814  3.1782
   8723SM   H2G11672   3.591   1.612   5.285 -2.7772  0.7269 -0.3398
   8723SM   C3F11673   3.596   1.612   5.497  0.2016  0.9455 -0.6600
   8723SM   H3F11674   3.535   1.704   5.479  0.5995  1.0448 -1.5260
   8723SM   H3G11675   3.694   1.660   5.517  0.0234  1.2079 -0.4090
   8723SM   C4F11676   3.535   1.536   5.618 -0.1570 -0.2505  0.2862
   8723SM   H4F11677   3.550   1.426   5.614 -1.1420 -0.4617  1.6380
   8723SM   H4G11678   3.426   1.547   5.600 -0.1505 -3.3221 -2.6334
   8723SM   C5F11679   3.587   1.581   5.754  0.4460 -0.9063 -0.0138
   8723SM   H5F11680   3.638   1.678   5.736 -2.1669  1.5168  4.0822
   8723SM   H5G11681   3.669   1.517   5.794  2.1409  0.9240 -0.3907
   8723SM   C6F11682   3.477   1.607   5.854  0.2482 -0.4764 -0.6354
   8723SM   H6F11683   3.401   1.527   5.863 -1.9825  1.5709 -0.3988
   8723SM   H6G11684   3.428   1.702   5.825  2.4111  1.4042  1.3936
   8723SM   C7F11685   3.539   1.627   5.997  0.2226 -0.2956 -0.4746
   8723SM   H7F11686   3.614   1.706   5.979  1.5045 -1.6099 -1.0910
   8723SM   H7G11687   3.599   1.539   6.027 -0.7867 -1.2458 -1.1538
   8723SM   C8F11688   3.433   1.666   6.102  0.6008 -0.1903 -0.7288
   8723SM   H8F11689   3.359   1.584   6.119  0.6059 -0.1418 -0.4679
   8723SM   H8G11690   3.380   1.753   6.057  1.6741  1.8242  1.6699
   8723SM   C9F11691   3.482   1.701   6.246  0.2143  0.5442  0.2241
   8723SM   H9F11692   3.559   1.780   6.230  0.0238  0.5488 -0.7329
   8723SM   H9G11693   3.542   1.618   6.289  0.5000  0.9862  0.6970
   8723SM  C10F11694   3.370   1.769   6.334 -1.3084 -0.4125  0.6790
   8723SM  H10F11695   3.289   1.695   6.346 -0.0723 -1.8883  0.2968
   8723SM  H10G11696   3.328   1.853   6.275 -0.5897 -1.6636 -1.7611
   8723SM  C11F11697   3.421   1.824   6.465  0.0461 -0.1431 -0.1866
   8723SM  H11F11698   3.489   1.908   6.438 -0.5603  0.9097  1.4414
   8723SM  H11G11699   3.484   1.745   6.511  0.9083  0.0126 -1.0488
   8723SM  C12F11700   3.305   1.870   6.560 -0.3895  0.3398 -0.2477
   8723SM  H12F11701   3.255   1.772   6.577  1.0347 -0.0633  2.1039
   8723SM  H12G11702   3.238   1.946   6.515  0.1903  1.6787  1.0680
   8723SM  C13F11703   3.342   1.919   6.697  0.1974  0.0951  0.5479
   8723SM  H13F11704   3.370   2.026   6.686 -2.4033  0.7389 -0.6677
   8723SM  H13G11705   3.436   1.870   6.731  0.4034  0.3020  0.2869
   8723SM  C14F11706   3.234   1.882   6.801 -1.1095 -0.7762 -0.0322
   8723SM  H14F11707   3.216   1.773   6.790  0.1797 -1.0146  0.0605
   8723SM  H14G11708   3.131   1.924   6.800 -0.6289  0.6565  2.3497
   8723SM  C15F11709   3.266   1.926   6.945  0.3590 -0.2807  0.0026
   8723SM  H15F11710   3.258   2.036   6.962 -1.2436 -0.1189 -1.5952
   8723SM  H15G11711   3.371   1.894   6.961  0.5219 -1.7690 -3.2874
   8723SM  C16F11712   3.176   1.855   7.044 -0.1116 -0.5883 -0.1164
   8723SM  H16F11713   3.160   1.745   7.031 -1.9404 -0.3061 -0.5486
   8723SM  H16G11714   3.072   1.894   7.045  0.2302  0.3412  0.5064
   8723SM  C17F11715   3.227   1.886   7.181  0.3462  0.2191 -1.1730
   8723SM  H17F11716   3.231   1.995   7.200 -0.0426  0.2143 -1.0519
   8723SM  H17G11717   3.332   1.857   7.203 -0.3424 -0.1852  2.0382
   8723SM  C18F11718   3.131   1.814   7.283  0.4456  0.5871  0.6091
   8723SM  H18F11719   3.149   1.704   7.274 -0.4701  0.4571  0.2319
   8723SM  H18G11720   3.030   1.844   7.246  1.0164  2.3062  0.3769
   8723SM  C19F11721   3.155   1.860   7.423  0.6788 -0.8734  0.2222
   8723SM  H19F11722   3.148   1.971   7.428  0.8633 -0.8665  0.3370
   8723SM  H19G11723   3.256   1.826   7.452  0.8209 -0.3307  0.3820
   8723SM  C20F11724   3.048   1.800   7.513  0.4537  0.1159 -0.0134
   8723SM  H20F11725   3.063   1.691   7.524  0.5628  0.1366  0.0454
   8723SM  H20G11726   2.945   1.815   7.475  0.3312  0.3770  0.4107
   8723SM  C21F11727   3.046   1.836   7.661 -0.3314 -0.2080 -0.0434
   8723SM  H21F11728   3.030   1.945   7.669 -0.1600  0.0003 -2.0491
   8723SM  H21G11729   3.146   1.820   7.707 -2.2470  0.2411  4.9571
   8723SM  C22F11730   2.944   1.761   7.748  0.6198  0.4299 -0.0433
   8723SM  H22F11731   2.945   1.652   7.727  1.6414  0.2443  0.8485
   8723SM  H22G11732   2.844   1.804   7.728  0.6973  0.3967 -0.5230
   8723SM  C23F11733   2.956   1.769   7.900 -0.3621  0.4186 -0.4419
   8723SM  H23F11734   2.870   1.723   7.953  0.4176 -0.1593  0.3342
   8723SM  H23G11735   2.959   1.870   7.947 -1.7578 -0.4766  1.6873
   8723SM  H23H11736   3.047   1.712   7.926 -1.0997  0.1630  1.7930
   8823SM     N11737   0.524   1.768   4.922 -0.1020 -0.3478 -0.1047
   8823SM   C1511738   0.492   1.627   4.963  0.5385  1.2029 -0.0050
   8823SM  H15A11739   0.587   1.584   4.991  0.5760  0.4624 -1.2075
   8823SM  H15B11740   0.453   1.569   4.881  1.5275 -0.7953  0.8840
   8823SM  H15C11741   0.421   1.615   5.043  0.0664  1.5367 -0.3604
   8823SM   C1411742   0.655   1.784   4.847 -0.7396 -0.0159 -0.0358
   8823SM  H14A11743   0.672   1.890   4.836 -0.5779  0.1923  1.9999
   8823SM  H14B11744   0.654   1.758   4.742 -0.4851  0.6200 -0.2033
   8823SM  H14C11745   0.744   1.750   4.899  0.2828  1.9413 -0.4045
   8823SM   C1311746   0.416   1.821   4.834  0.5411 -0.1012 -0.4559
   8823SM  H13A11747   0.314   1.827   4.870 -0.6736  1.6226 -3.7404
   8823SM  H13B11748   0.404   1.754   4.750 -2.6479 -0.4936  0.1702
   8823SM  H13C11749   0.441   1.921   4.803  1.7326 -0.1777  0.2050
   8823SM   C1211750   0.533   1.850   5.044 -0.1040 -0.1312  0.3423
   8823SM  H12A11751   0.609   1.824   5.116 -0.4198  3.1429  2.0551
   8823SM  H12B11752   0.442   1.826   5.097 -0.7600 -3.2086 -1.8987
   8823SM   C1111753   0.550   2.009   5.041  0.5764  0.1369  0.3037
   8823SM  H11A11754   0.533   2.066   5.134  1.7483  2.4482 -0.8184
   8823SM  H11B11755   0.483   2.062   4.970  1.3655  0.0780 -0.5085
   8823SM     P11756   0.725   2.139   4.906 -0.1648  0.0180  0.2582
   8823SM   O1311757   0.705   2.074   4.775  0.1864 -0.4012  0.4994
   8823SM   O1411758   0.665   2.274   4.924 -0.5598 -0.2518 -0.3789
   8823SM   O1111759   0.879   2.164   4.934  0.2528  0.0071  0.0635
   8823SM   O1211760   0.681   2.040   5.013 -0.2727 -0.4193  0.7044
   8823SM   C1S11761   0.927   2.223   5.058 -0.5244 -0.0968 -0.0574
   8823SM   H1S11762   0.855   2.209   5.141 -2.3467  0.8526 -1.4099
   8823SM   H1T11763   0.949   2.332   5.051  3.0288 -0.7100 -0.3086
   8823SM    NF11764   1.108   2.222   5.230  0.3301  1.0787  0.0027
   8823SM   HNF11765   1.174   2.296   5.231  1.4772  0.1335 -1.4574
   8823SM   C2S11766   1.069   2.167   5.099 -0.4219 -0.3745 -0.4660
   8823SM   H2S11767   1.062   2.057   5.108  1.8581 -0.4183  2.6811
   8823SM   C3S11768   1.182   2.199   4.990 -0.5334  0.3571  0.2305
   8823SM   H3S11769   1.194   2.309   4.980  1.9738  0.0782 -0.6329
   8823SM    O311770   1.151   2.153   4.859 -0.3972  0.4008 -0.1863
   8823SM   HO311771   1.058   2.129   4.863 -0.3763 -0.0342 -1.6619
   8823SM   C4S11772   1.320   2.140   5.022 -0.0353  0.0173 -0.1255
   8823SM   H4S11773   1.329   2.031   5.018  2.0581  0.1192  0.6494
   8823SM   C5S11774   1.431   2.210   5.039 -0.6180  0.4001 -0.8273
   8823SM   H5S11775   1.428   2.320   5.041 -1.1986  0.3899 -0.9660
   8823SM   C6S11776   1.565   2.141   5.069  0.5169 -0.1664 -0.4386
   8823SM   H6S11777   1.593   2.175   5.171  1.2894  0.6991 -0.9252
   8823SM   H6T11778   1.641   2.194   5.007  1.2416  1.0217  1.3775
   8823SM   C7S11779   1.577   1.985   5.063  0.0317  0.1346 -0.2894
   8823SM   H7S11780   1.529   1.936   4.976 -0.6466  1.4665 -0.6896
   8823SM   H7T11781   1.524   1.939   5.148 -0.8756 -0.0779 -0.9567
   8823SM   C8S11782   1.728   1.930   5.064  0.2852 -0.2350 -0.2673
   8823SM   H8S11783   1.793   1.992   4.999  0.8891 -0.8868 -0.2918
   8823SM   H8T11784   1.730   1.824   5.030  1.5077 -0.0912 -0.6779
   8823SM   C9S11785   1.796   1.929   5.204  0.4421 -0.2688 -0.1987
   8823SM   H9S11786   1.816   2.035   5.233  2.0083  0.0990 -2.3937
   8823SM   H9T11787   1.890   1.881   5.168  0.7124  0.4112 -0.4102
   8823SM  C10S11788   1.709   1.864   5.314  0.6807  0.2153 -0.7156
   8823SM  H10S11789   1.663   1.770   5.277 -0.2297  0.5343 -0.4037
   8823SM  H10T11790   1.623   1.928   5.343 -0.3406 -1.7419  0.8395
   8823SM  C11S11791   1.779   1.841   5.444  0.6380  0.7828  0.6119
   8823SM  H11S11792   1.858   1.917   5.464  0.1325  1.8260 -1.1375
   8823SM  H11T11793   1.836   1.748   5.422 -0.3274  0.5863 -1.1941
   8823SM  C12S11794   1.680   1.834   5.563 -0.4449 -0.7067 -0.2235
   8823SM  H12S11795   1.599   1.759   5.550 -0.0606 -1.0213 -0.8898
   8823SM  H12T11796   1.625   1.930   5.561  1.5584  0.4722 -1.4167
   8823SM  C13S11797   1.757   1.821   5.693  0.2727 -0.3271 -0.3946
   8823SM  H13S11798   1.858   1.867   5.685  0.4340 -0.5212  0.3892
   8823SM  H13T11799   1.772   1.711   5.698 -3.2941 -0.8762  0.4170
   8823SM  C14S11800   1.697   1.876   5.818  0.2159  0.3479  0.0263
   8823SM  H14S11801   1.596   1.829   5.821  0.5672 -0.4181  0.0301
   8823SM  H14T11802   1.696   1.987   5.810  1.0878  0.2942 -1.1107
   8823SM  C15S11803   1.754   1.834   5.953 -0.2023  0.3056 -0.1349
   8823SM  H15S11804   1.858   1.872   5.964  0.6798 -0.7263 -3.5990
   8823SM  H15T11805   1.760   1.723   5.956  1.2960  0.3851  1.3659
   8823SM  C16S11806   1.660   1.866   6.066  0.1652 -0.5269  0.2150
   8823SM  H16S11807   1.558   1.829   6.042  0.4080 -0.1824 -1.4506
   8823SM  H16T11808   1.653   1.977   6.072 -1.2406 -0.6236  0.6004
   8823SM  C17S11809   1.693   1.815   6.203  0.4032  0.7553  0.3928
   8823SM  H17S11810   1.712   1.706   6.195  2.5858  1.2293 -2.6491
   8823SM  H17T11811   1.603   1.838   6.263 -1.0285  1.8670 -2.0053
   8823SM  C18S11812   1.822   1.866   6.270 -0.2410  0.3562 -0.8744
   8823SM  H18S11813   1.839   1.821   6.370 -2.1918  0.6580 -0.3632
   8823SM  H18T11814   1.814   1.976   6.287 -0.1554 -0.0159  2.0116
   8823SM  H18U11815   1.910   1.844   6.207 -1.2105 -1.2325 -1.7296
   8823SM   C1F11816   1.044   2.189   5.336 -0.4003 -0.4153  0.0733
   8823SM    OF11817   0.951   2.109   5.340 -0.2578 -0.6477  0.9167
   8823SM   C2F11818   1.092   2.260   5.461 -0.2379 -0.0731 -1.1499
   8823SM   H2F11819   1.094   2.368   5.435  0.9113  0.9513  2.5131
   8823SM   H2G11820   1.197   2.226   5.478  0.0401  1.5880  1.1273
   8823SM   C3F11821   0.999   2.229   5.589  0.5229 -0.3506  0.3195
   8823SM   H3F11822   0.976   2.122   5.606 -1.7385 -0.0338 -0.4332
   8823SM   H3G11823   0.900   2.277   5.573  1.0818  0.7399 -0.0152
   8823SM   C4F11824   1.060   2.300   5.719  0.6198 -0.3601  0.1982
   8823SM   H4F11825   1.072   2.407   5.691 -0.1111 -0.4807 -0.6372
   8823SM   H4G11826   1.160   2.257   5.739 -0.2606 -2.3530  0.5615
   8823SM   C5F11827   0.972   2.278   5.837  0.5883 -0.5161  0.3088
   8823SM   H5F11828   0.982   2.175   5.877  0.5535  0.2705  2.4936
   8823SM   H5G11829   0.865   2.292   5.807 -0.1224 -3.6825  1.0483
   8823SM   C6F11830   1.014   2.372   5.951  0.2083  0.2809 -0.1488
   8823SM   H6F11831   1.027   2.479   5.922 -1.5090  1.7034  3.6623
   8823SM   H6G11832   1.117   2.343   5.981 -0.7702 -1.2514  1.9771
   8823SM   C7F11833   0.922   2.363   6.075  0.6564 -0.6741 -0.3139
   8823SM   H7F11834   0.913   2.255   6.099  0.2279 -0.7063 -0.6206
   8823SM   H7G11835   0.825   2.391   6.028  0.5152 -0.0124  0.3413
   8823SM   C8F11836   0.965   2.445   6.189 -0.2584 -0.0606 -0.1923
   8823SM   H8F11837   0.983   2.550   6.157  0.4239 -0.6625 -1.8967
   8823SM   H8G11838   1.069   2.412   6.210  0.1445 -0.1982 -2.1717
   8823SM   C9F11839   0.867   2.433   6.304  0.5101 -0.1407 -0.5722
   8823SM   H9F11840   0.763   2.428   6.264  0.6451 -1.9361 -0.7488
   8823SM   H9G11841   0.875   2.516   6.377 -0.7392 -1.0769  0.6755
   8823SM  C10F11842   0.886   2.305   6.387 -0.4133  1.2889 -0.0578
   8823SM  H10F11843   0.861   2.215   6.327 -0.2187  0.8808  0.4666
   8823SM  H10G11844   0.818   2.310   6.475 -1.6380 -2.5223 -0.6348
   8823SM  C11F11845   1.031   2.287   6.446 -0.2912  0.1545  0.1898
   8823SM  H11F11846   1.042   2.363   6.526  0.6857 -0.2400  0.4453
   8823SM  H11G11847   1.104   2.284   6.362 -2.3895 -0.5613 -1.6941
   8823SM  C12F11848   1.040   2.146   6.504 -0.1413  0.2128  0.4443
   8823SM  H12F11849   1.133   2.127   6.562  0.0453 -0.0371  0.0676
   8823SM  H12G11850   1.053   2.072   6.422 -0.0241  0.2904  0.3928
   8823SM  C13F11851   0.921   2.112   6.597 -0.1147 -0.7070 -0.4045
   8823SM  H13F11852   0.955   2.009   6.625  2.7953 -0.2886 -1.9583
   8823SM  H13G11853   0.823   2.112   6.546 -0.2714  0.5996 -0.1244
   8823SM  C14F11854   0.909   2.214   6.713 -0.8354  0.3819  0.2020
   8823SM  H14F11855   0.883   2.317   6.681 -2.1411 -0.2000 -0.6740
   8823SM  H14G11856   1.009   2.237   6.756 -0.7858  0.5644 -0.0072
   8823SM  C15F11857   0.820   2.161   6.827 -0.1485 -0.0531  0.5058
   8823SM  H15F11858   0.877   2.073   6.863  1.3904 -0.3274 -2.3166
   8823SM  H15G11859   0.730   2.113   6.785 -0.1016  1.9266 -2.1174
   8823SM  C16F11860   0.780   2.263   6.939  0.0474 -0.0785  1.3800
   8823SM  H16F11861   0.707   2.334   6.894  0.1279 -1.3854 -0.9916
   8823SM  H16G11862   0.862   2.335   6.955 -0.3034  0.9462 -0.9762
   8823SM  C17F11863   0.723   2.196   7.067 -0.6377  0.3772  0.3054
   8823SM  H17F11864   0.624   2.151   7.047 -0.8675  1.3920 -1.0160
   8823SM  H17G11865   0.688   2.271   7.141 -0.3865  0.0607  0.7534
   8823SM  C18F11866   0.816   2.082   7.120  0.6105 -0.1411  0.3334
   8823SM  H18F11867   0.920   2.119   7.119  0.6616 -0.2223 -1.5735
   8823SM  H18G11868   0.809   2.002   7.043  1.2631 -0.0980  0.2230
   8823SM  C19F11869   0.780   2.032   7.259  0.7715 -0.8682  0.2981
   8823SM  H19F11870   0.846   1.946   7.280  1.5689 -0.9597 -2.2522
   8823SM  H19G11871   0.673   2.002   7.253  1.5747 -4.1651  0.8554
   8823SM  C20F11872   0.792   2.149   7.366 -0.4291 -0.6797  0.3511
   8823SM  H20F11873   0.767   2.106   7.466 -0.1386  0.9692  1.1726
   8823SM  H20G11874   0.719   2.232   7.351 -1.7567 -1.9635 -0.5775
   8823SM  C21F11875   0.933   2.214   7.383  0.1906  0.3242  0.4182
   8823SM  H21F11876   0.925   2.283   7.469 -0.5188 -0.9310  1.3877
   8823SM  H21G11877   0.952   2.274   7.291  0.2868  0.2545  0.3922
   8823SM  C22F11878   1.056   2.122   7.402  0.3469 -0.1630  0.4771
   8823SM  H22F11879   1.153   2.174   7.417  1.2643 -1.6520 -0.0732
   8823SM  H22G11880   1.070   2.052   7.317  0.6797  1.4028 -0.8218
   8823SM  C23F11881   1.033   2.039   7.527  0.2736  0.8931  0.1150
   8823SM  H23F11882   1.024   2.099   7.619 -0.5574  2.0690 -0.7015
   8823SM  H23G11883   1.123   1.975   7.542  2.3480  2.4698 -3.9908
   8823SM  H23H11884   0.946   1.970   7.517 -1.3938  2.6750  1.6282
   8923SM     N11885   5.771   2.554   5.189  0.0456 -0.2405 -0.2189
   8923SM   C1511886   5.869   2.616   5.289 -0.5090  0.9418 -0.2104
   8923SM  H15A11887   5.968   2.635   5.250  0.5792  0.2220  2.0030
   8923SM  H15B11888   5.882   2.543   5.369  0.1073  1.7296  0.4240
   8923SM  H15C11889   5.841   2.712   5.329  1.7042  1.5659 -0.0211
   8923SM   C1411890   5.642   2.557   5.258 -0.6105  0.0192 -0.7863
   8923SM  H14A11891   5.572   2.492   5.209  0.6013 -3.0331  1.2323
   8923SM  H14B11892   5.604   2.655   5.280 -1.0877 -0.8126  2.5135
   8923SM  H14C11893   5.640   2.512   5.356 -0.3446 -0.0092 -0.7924
   8923SM   C1311894   5.745   2.644   5.071 -0.0541  0.0330 -0.0683
   8923SM  H13A11895   5.717   2.743   5.105 -0.8893  0.8211 -2.8010
   8923SM  H13B11896   5.665   2.615   5.004 -0.0666 -1.0443  0.4002
   8923SM  H13C11897   5.823   2.662   4.999  0.0423 -0.6253 -0.1303
   8923SM   C1211898   5.816   2.423   5.146  0.1033  0.4230  0.0037
   8923SM  H12A11899   5.841   2.373   5.239  1.5502  0.6197 -0.2535
   8923SM  H12B11900   5.911   2.429   5.095  0.9821 -0.6063  1.4512
   8923SM   C1111901   5.717   2.344   5.058  0.8197 -0.3144  0.3874
   8923SM  H11A11902   5.773   2.252   5.029  0.1833  0.2392 -3.0205
   8923SM  H11B11903   5.708   2.397   4.961 -1.7788 -1.3658 -0.0331
   8923SM     P11904   5.484   2.233   5.023 -0.1745 -0.0765  0.3836
   8923SM   O1311905   5.346   2.246   5.076 -0.2346  0.0186  0.0157
   8923SM   O1411906   5.507   2.271   4.880  0.5655  0.2549  0.1194
   8923SM   O1111907   5.522   2.084   5.044  0.4618 -0.3256 -0.2231
   8923SM   O1211908   5.583   2.322   5.109 -0.6036  0.9240 -0.4110
   8923SM   C1S11909   5.602   2.035   5.154 -1.0777 -0.5378  0.1336
   8923SM   H1S11910   5.675   2.109   5.193 -0.3333  0.4554 -2.8622
   8923SM   H1T11911   5.668   1.951   5.122  0.4554  0.9653 -0.8324
   8923SM    NF11912   5.609   1.923   5.367  0.4346 -0.1936 -0.2122
   8923SM   HNF11913   5.632   1.830   5.343 -1.4208 -0.4652 -1.1344
   8923SM   C2S11914   5.515   1.986   5.276  0.1575  0.3266 -0.0131
   8923SM   H2S11915   5.479   2.083   5.317  0.9088  0.8229 -0.5107
   8923SM   C3S11916   5.400   1.886   5.244 -0.0915  0.4957 -0.8355
   8923SM   H3S11917   5.457   1.804   5.196  0.9234  0.0529  1.0355
   8923SM    O311918   5.300   1.931   5.152 -0.3949  0.2486 -0.3495
   8923SM   HO311919   5.338   2.017   5.133  1.5556  0.1093  2.3286
   8923SM   C4S11920   5.335   1.844   5.375 -0.4377  0.1355 -1.0923
   8923SM   H4S11921   5.275   1.923   5.422 -1.9940 -0.2613 -2.3267
   8923SM   C5S11922   5.335   1.725   5.442 -0.6293 -0.1949  0.3888
   8923SM   H5S11923   5.379   1.630   5.407 -2.9663 -1.0518 -0.3993
   8923SM   C6S11924   5.267   1.706   5.574 -0.4330  0.4047 -0.1329
   8923SM   H6S11925   5.188   1.633   5.546  0.3197 -0.3465 -0.3352
   8923SM   H6T11926   5.218   1.796   5.618 -0.2090  0.2318  0.4780
   8923SM   C7S11927   5.355   1.630   5.684 -0.0425 -0.1997  0.8796
   8923SM   H7S11928   5.441   1.697   5.702 -0.8827  0.4658  2.6466
   8923SM   H7T11929   5.392   1.529   5.657  0.4048  0.0489  0.5553
   8923SM   C8S11930   5.279   1.628   5.819  0.0988 -0.2209 -0.3244
   8923SM   H8S11931   5.172   1.601   5.801  0.2965 -0.4951 -1.1420
   8923SM   H8T11932   5.271   1.735   5.846 -0.1799 -0.3085 -0.0492
   8923SM   C9S11933   5.354   1.556   5.930  0.3579 -0.5615 -0.5364
   8923SM   H9S11934   5.464   1.570   5.925  0.5117 -1.1202  0.7886
   8923SM   H9T11935   5.327   1.448   5.929 -1.2284 -0.2015  0.3300
   8923SM  C10S11936   5.307   1.612   6.067  0.4493 -0.1736  0.0269
   8923SM  H10S11937   5.199   1.589   6.073  0.1975  1.2348  3.7018
   8923SM  H10T11938   5.319   1.722   6.063 -1.3520  0.0473 -0.1674
   8923SM  C11S11939   5.375   1.560   6.189 -0.1486  0.2963 -0.3991
   8923SM  H11S11940   5.482   1.592   6.185  0.3480 -1.2082 -0.1562
   8923SM  H11T11941   5.375   1.449   6.193 -0.6061  0.3341  3.0739
   8923SM  C12S11942   5.304   1.617   6.312 -0.0128  0.0050 -0.5401
   8923SM  H12S11943   5.203   1.575   6.299  0.7340 -1.6486 -1.2096
   8923SM  H12T11944   5.297   1.728   6.317  0.3166 -0.0103  0.7331
   8923SM  C13S11945   5.361   1.582   6.454  0.3760 -0.0560 -0.7938
   8923SM  H13S11946   5.470   1.607   6.447  0.5664 -0.5266  0.3210
   8923SM  H13T11947   5.364   1.471   6.459  1.1518 -0.0212 -0.3348
   8923SM  C14S11948   5.285   1.653   6.573 -0.4870 -0.2921 -0.2421
   8923SM  H14S11949   5.180   1.627   6.547 -0.5735 -1.1473  0.8587
   8923SM  H14T11950   5.309   1.761   6.567 -0.6163 -0.2649 -0.2782
   8923SM  C15S11951   5.335   1.592   6.705  0.8923  0.0947  0.6666
   8923SM  H15S11952   5.439   1.631   6.708  1.2058 -0.6861  0.1360
   8923SM  H15T11953   5.329   1.481   6.699  0.0674  0.1738 -0.1073
   8923SM  C16S11954   5.262   1.645   6.827 -0.2355  0.0502 -0.6968
   8923SM  H16S11955   5.153   1.644   6.810 -0.6643 -0.9801  1.7230
   8923SM  H16T11956   5.296   1.749   6.846  1.0212 -0.4293 -0.1695
   8923SM  C17S11957   5.296   1.569   6.959 -0.2885  0.2537 -0.2474
   8923SM  H17S11958   5.406   1.569   6.974 -0.4569 -2.5832  1.7571
   8923SM  H17T11959   5.261   1.464   6.955  2.9436 -0.9160 -1.5038
   8923SM  C18S11960   5.224   1.629   7.077 -0.8865 -0.0466  0.0795
   8923SM  H18S11961   5.213   1.553   7.157 -0.2876  2.6880  2.9367
   8923SM  H18T11962   5.121   1.661   7.052 -1.4765 -1.7146  0.3112
   8923SM  H18U11963   5.280   1.722   7.101  0.4640  0.0278 -2.8256
   8923SM   C1F11964   5.692   1.992   5.449  0.4524 -0.3217  0.0420
   8923SM    OF11965   5.668   2.114   5.478  0.5139  0.0718 -0.3167
   8923SM   C2F11966   5.818   1.919   5.506 -0.1006 -0.1625  0.0740
   8923SM   H2F11967   5.885   2.001   5.539 -1.8354  0.8751  1.1756
   8923SM   H2G11968   5.871   1.876   5.418 -0.8053 -2.2985  0.6189
   8923SM   C3F11969   5.808   1.834   5.634  0.5863  0.0716 -0.2511
   8923SM   H3F11970   5.908   1.829   5.682  0.7311  0.8420 -0.4662
   8923SM   H3G11971   5.764   1.733   5.617  1.9388 -0.5198 -0.3560
   8923SM   C4F11972   5.707   1.887   5.736  0.2731 -0.6212  0.2489
   8923SM   H4F11973   5.605   1.890   5.693 -0.4954 -2.1670  1.8092
   8923SM   H4G11974   5.739   1.990   5.761  1.8875 -0.4612 -2.1408
   8923SM   C5F11975   5.701   1.803   5.860 -0.3679  0.6512  0.6546
   8923SM   H5F11976   5.808   1.779   5.879 -0.1825  2.7398  2.6271
   8923SM   H5G11977   5.637   1.714   5.839  1.8648 -1.4291  2.0459
   8923SM   C6F11978   5.663   1.877   5.982 -0.6930  0.3053 -0.7469
   8923SM   H6F11979   5.558   1.911   5.975 -0.8039  0.0320 -0.4406
   8923SM   H6G11980   5.739   1.958   5.992  0.8821 -1.2895  1.0796
   8923SM   C7F11981   5.697   1.792   6.104 -0.0826 -0.1979 -0.0657
   8923SM   H7F11982   5.802   1.755   6.100  0.4663  1.3386 -0.8751
   8923SM   H7G11983   5.631   1.704   6.094  0.2463 -0.5575  0.8424
   8923SM   C8F11984   5.667   1.859   6.241  0.8007 -0.6222  0.2503
   8923SM   H8F11985   5.564   1.899   6.249  1.1810  0.3795  0.2987
   8923SM   H8G11986   5.726   1.953   6.251  0.6280 -0.2894 -1.5854
   8923SM   C9F11987   5.703   1.774   6.367 -0.4641  0.2017  0.5542
   8923SM   H9F11988   5.813   1.760   6.371 -0.5245 -0.0773  1.2362
   8923SM   H9G11989   5.660   1.672   6.370  2.8294 -1.3942 -1.2642
   8923SM  C10F11990   5.661   1.856   6.491  0.0627 -0.2853 -0.0645
   8923SM  H10F11991   5.554   1.883   6.491  0.3556  1.3202  3.0811
   8923SM  H10G11992   5.711   1.955   6.491 -1.6502  0.6146  1.5391
   8923SM  C11F11993   5.712   1.787   6.614 -0.0453  0.8371 -0.9409
   8923SM  H11F11994   5.821   1.802   6.631 -0.0623  0.5105 -0.5229
   8923SM  H11G11995   5.696   1.677   6.614 -2.0593  1.1075 -0.6644
   8923SM  C12F11996   5.642   1.840   6.739  0.0859  0.0741  0.6381
   8923SM  H12F11997   5.532   1.833   6.735 -0.1192  0.2538  3.5216
   8923SM  H12G11998   5.671   1.946   6.755 -1.6932  0.6979 -0.1312
   8923SM  C13F11999   5.690   1.766   6.861 -0.2783 -0.4171 -0.2168
   8923SM  H13F12000   5.798   1.787   6.877 -0.3031 -1.7239  2.2311
   8923SM  H13G12001   5.676   1.656   6.853  0.5472 -0.5340 -0.1104
   8923SM  C14F12002   5.616   1.801   6.994  0.1902 -0.0592  0.5853
   8923SM  H14F12003   5.508   1.794   6.967  0.8090 -0.8908 -2.0024
   8923SM  H14G12004   5.640   1.905   7.023 -0.5851  0.5551 -0.9069
   8923SM  C15F12005   5.652   1.701   7.104  0.4495 -0.1758 -0.5189
   8923SM  H15F12006   5.762   1.712   7.121  0.2069 -0.7730  1.7713
   8923SM  H15G12007   5.626   1.597   7.077  1.3858 -0.4396 -0.4653
   8923SM  C16F12008   5.587   1.719   7.239  0.5847  0.1450 -0.3513
   8923SM  H16F12009   5.488   1.669   7.239  1.4253 -1.6498  1.3258
   8923SM  H16G12010   5.577   1.827   7.261 -1.2226 -0.3013  1.3733
   8923SM  C17F12011   5.666   1.654   7.355  0.2367  0.1004  0.0911
   8923SM  H17F12012   5.758   1.716   7.350 -1.2840  2.8310  2.8539
   8923SM  H17G12013   5.693   1.551   7.324  1.7819 -0.0472  1.7655
   8923SM  C18F12014   5.600   1.656   7.492  0.0318  0.0169  0.7046
   8923SM  H18F12015   5.489   1.649   7.490 -0.1296  1.9699 -0.8449
   8923SM  H18G12016   5.604   1.764   7.520 -1.0146  0.0357  0.8260
   8923SM  C19F12017   5.680   1.575   7.598  1.4811  0.8547  0.3551
   8923SM  H19F12018   5.642   1.598   7.700  1.1355  0.1508  0.3928
   8923SM  H19G12019   5.784   1.614   7.599  1.4222  1.0062  1.4313
   8923SM  C20F12020   5.663   1.429   7.577  0.5675  0.7103  0.3945
   8923SM  H20F12021   5.731   1.408   7.492 -0.2212  0.3737 -0.1687
   8923SM  H20G12022   5.558   1.405   7.548  1.3706 -2.5264 -0.2058
   8923SM  C21F12023   5.706   1.362   7.705 -0.1189 -0.5090 -0.4940
   8923SM  H21F12024   5.677   1.428   7.790  0.3559  0.6669 -1.2359
   8923SM  H21G12025   5.816   1.371   7.713 -0.2304  0.4381  0.0839
   8923SM  C22F12026   5.667   1.215   7.717  0.1819  0.5070 -0.0248
   8923SM  H22F12027   5.686   1.144   7.633 -3.6050 -0.1137 -0.5700
   8923SM  H22G12028   5.557   1.217   7.730  0.1517  1.4451 -0.3208
   8923SM  C23F12029   5.737   1.152   7.839 -0.4348  0.3014 -0.4242
   8923SM  H23F12030   5.717   1.044   7.850 -0.3700  0.4642  1.7463
   8923SM  H23G12031   5.702   1.194   7.936 -0.0687  0.2168 -0.2512
   8923SM  H23H12032   5.847   1.170   7.832 -0.3573  0.0926  0.1265
   9023SM     N12033   5.023   1.640   4.875  0.1494  0.1474 -0.2515
   9023SM   C1512034   5.031   1.495   4.848 -0.0685  0.7129 -0.5352
   9023SM  H15A12035   4.943   1.462   4.795 -1.1545  1.1906  0.9044
   9023SM  H15B12036   5.042   1.448   4.944 -0.2440  1.7588  0.0146
   9023SM  H15C12037   5.118   1.471   4.788 -0.5902 -1.9781 -0.3157
   9023SM   C1412038   5.023   1.726   4.750 -0.7737  0.0877  0.2701
   9023SM  H14A12039   4.938   1.705   4.687  0.7253 -2.4929 -1.0464
   9023SM  H14B12040   5.113   1.716   4.690 -1.7755  3.0670 -2.0183
   9023SM  H14C12041   5.013   1.830   4.776 -0.5499  0.1235  0.2200
   9023SM   C1312042   4.894   1.672   4.947  0.1183  0.1186  0.3048
   9023SM  H13A12043   4.900   1.613   5.037  2.7486 -0.3245 -0.0620
   9023SM  H13B12044   4.815   1.646   4.877  1.6371  1.1332 -1.9288
   9023SM  H13C12045   4.878   1.777   4.968  0.7887 -0.1095  2.1101
   9023SM   C1212046   5.143   1.674   4.961  0.2788  0.1137  0.4697
   9023SM  H12A12047   5.141   1.780   4.981 -0.0866  0.6923 -2.2091
   9023SM  H12B12048   5.229   1.667   4.896 -0.3184  0.2234 -0.3490
   9023SM   C1112049   5.167   1.605   5.096 -0.1709  0.1237  0.5873
   9023SM  H11A12050   5.075   1.619   5.157 -1.7655 -0.9319 -1.4582
   9023SM  H11B12051   5.249   1.652   5.154  2.9405 -0.5305 -2.9147
   9023SM     P12052   5.353   1.418   5.083 -0.0056 -0.0830 -0.1853
   9023SM   O1312053   5.360   1.272   5.060  0.3114 -0.1482 -0.2474
   9023SM   O1412054   5.437   1.503   4.994 -0.2314 -0.0091  0.2210
   9023SM   O1112055   5.399   1.448   5.228 -0.1068 -0.1967 -0.5059
   9023SM   O1212056   5.208   1.465   5.073  0.2063  0.5235  0.1368
   9023SM   C1S12057   5.538   1.423   5.272  0.6017  0.3789 -0.0458
   9023SM   H1S12058   5.603   1.511   5.252 -1.0295  1.0966 -2.4907
   9023SM   H1T12059   5.578   1.332   5.222 -0.9410 -2.3192  3.2160
   9023SM    NF12060   5.695   1.363   5.459  0.2310  0.0112  1.0147
   9023SM   HNF12061   5.731   1.273   5.482  0.3994  0.2032  1.5135
   9023SM   C2S12062   5.549   1.388   5.420 -0.2563  0.4008 -0.2795
   9023SM   H2S12063   5.515   1.470   5.486  1.3287 -0.2950  1.5089
   9023SM   C3S12064   5.443   1.274   5.444  0.4677 -0.6082  0.6558
   9023SM   H3S12065   5.468   1.195   5.369 -0.7649 -0.9700  0.5961
   9023SM    O312066   5.310   1.323   5.420  0.5080  0.5911 -0.1709
   9023SM   HO312067   5.332   1.386   5.352  1.5047 -0.4780 -0.8795
   9023SM   C4S12068   5.464   1.216   5.581  0.4432 -0.4674 -0.0955
   9023SM   H4S12069   5.420   1.275   5.663 -1.5479  0.6989 -1.8853
   9023SM   C5S12070   5.528   1.106   5.616 -0.2886 -0.3903 -0.0576
   9023SM   H5S12071   5.568   1.036   5.541 -0.0393  1.1951 -1.4840
   9023SM   C6S12072   5.536   1.070   5.760  0.9742  0.3085  0.7298
   9023SM   H6S12073   5.605   0.984   5.766 -0.3266 -0.8623 -0.4423
   9023SM   H6T12074   5.437   1.031   5.794 -0.0218  0.5439 -1.7061
   9023SM   C7S12075   5.576   1.189   5.856  0.2768  0.7584 -0.1660
   9023SM   H7S12076   5.506   1.276   5.852  0.7548  1.1934  0.7487
   9023SM   H7T12077   5.676   1.228   5.828  0.1536 -0.8099 -3.1800
   9023SM   C8S12078   5.583   1.147   6.006  0.3754  0.1899  0.2721
   9023SM   H8S12079   5.657   1.065   6.019  1.6518  1.1717 -0.6068
   9023SM   H8T12080   5.487   1.106   6.046  0.6711  0.5645  1.4162
   9023SM   C9S12081   5.620   1.257   6.104  0.5350 -0.5555 -0.3380
   9023SM   H9S12082   5.562   1.345   6.071  0.4296 -0.2182  0.6968
   9023SM   H9T12083   5.730   1.273   6.104  0.2697  1.7685  1.3962
   9023SM  C10S12084   5.579   1.227   6.252  0.5066  0.1872  0.4430
   9023SM  H10S12085   5.600   1.122   6.283 -1.2427 -0.6094 -0.8974
   9023SM  H10T12086   5.470   1.241   6.265  0.4114 -0.6592  0.6136
   9023SM  C11S12087   5.649   1.329   6.341  0.1293 -0.8346 -0.6385
   9023SM  H11S12088   5.617   1.432   6.313 -0.7970 -0.8002  0.4945
   9023SM  H11T12089   5.758   1.323   6.323  0.4883  0.1932  1.0009
   9023SM  C12S12090   5.615   1.286   6.482  0.5979 -0.0298  0.1272
   9023SM  H12S12091   5.640   1.178   6.492 -2.0915 -0.7799 -0.4964
   9023SM  H12T12092   5.507   1.308   6.491  1.1475  3.1091  0.0230
   9023SM  C13S12093   5.678   1.372   6.595  1.0117  0.9526 -0.2068
   9023SM  H13S12094   5.651   1.472   6.557 -0.7109  0.3994 -0.5531
   9023SM  H13T12095   5.788   1.358   6.604  0.9090  0.6775  0.7288
   9023SM  C14S12096   5.623   1.330   6.735 -0.5401  0.3679  0.0741
   9023SM  H14S12097   5.513   1.324   6.727 -0.6388  2.0961 -0.0290
   9023SM  H14T12098   5.667   1.401   6.808  1.2893  0.1790 -0.7736
   9023SM  C15S12099   5.657   1.191   6.791 -0.2854 -0.7077  0.4941
   9023SM  H15S12100   5.767   1.196   6.810  0.1668 -2.9374 -1.0501
   9023SM  H15T12101   5.622   1.113   6.720 -2.3385  2.5224 -2.3556
   9023SM  C16S12102   5.597   1.158   6.927 -0.2114 -0.2196  0.8807
   9023SM  H16S12103   5.587   1.049   6.945 -1.6012  0.2017  3.0183
   9023SM  H16T12104   5.497   1.206   6.918  0.4425  1.0266 -0.2405
   9023SM  C17S12105   5.661   1.228   7.042  0.0005 -0.1799 -0.9687
   9023SM  H17S12106   5.655   1.338   7.028  0.3212 -0.1358 -0.7798
   9023SM  H17T12107   5.770   1.204   7.044 -0.6252 -3.4858 -0.1098
   9023SM  C18S12108   5.595   1.206   7.184 -0.0460 -0.2361  0.0690
   9023SM  H18S12109   5.521   1.287   7.205 -0.6173 -0.8501  0.4577
   9023SM  H18T12110   5.675   1.195   7.261  1.4110 -2.7224 -1.6754
   9023SM  H18U12111   5.546   1.107   7.176 -0.1014 -0.1877 -0.2175
   9023SM   C1F12112   5.783   1.461   5.462 -0.3788  0.3299  0.7131
   9023SM    OF12113   5.761   1.578   5.430  0.6071  0.1949 -0.3160
   9023SM   C2F12114   5.924   1.428   5.495  0.7041 -0.6711 -0.7454
   9023SM   H2F12115   5.980   1.524   5.503 -1.0689  0.3849 -0.4579
   9023SM   H2G12116   5.970   1.359   5.421 -0.8705 -1.4665 -1.0272
   9023SM   C3F12117   5.929   1.371   5.639 -0.3127 -0.4952 -0.2152
   9023SM   H3F12118   6.035   1.340   5.656 -0.2082 -0.3224 -0.5289
   9023SM   H3G12119   5.865   1.282   5.651  0.5900 -0.8809  2.3308
   9023SM   C4F12120   5.914   1.476   5.743  0.1081  0.1837 -0.4150
   9023SM   H4F12121   5.811   1.519   5.738 -0.7730 -1.7046  0.6654
   9023SM   H4G12122   5.978   1.564   5.717 -2.3119  1.7444 -1.4600
   9023SM   C5F12123   5.950   1.419   5.880  0.6422  0.1482  0.2524
   9023SM   H5F12124   6.041   1.356   5.876 -0.1438 -0.9847 -0.3293
   9023SM   H5G12125   5.883   1.332   5.901  1.6962 -1.5257 -2.8598
   9023SM   C6F12126   5.947   1.526   5.994  0.1472  0.1474 -0.1971
   9023SM   H6F12127   5.847   1.570   6.010 -0.4907 -1.0503 -0.7707
   9023SM   H6G12128   6.009   1.613   5.965 -1.8434  1.3586 -0.9415
   9023SM   C7F12129   5.994   1.473   6.130  0.2578 -0.5095 -0.3029
   9023SM   H7F12130   6.105   1.474   6.136  0.4385 -1.2525 -2.4484
   9023SM   H7G12131   5.951   1.374   6.156 -0.0758 -0.0880  0.7872
   9023SM   C8F12132   5.953   1.550   6.261  0.0799  0.0538  0.6220
   9023SM   H8F12133   5.847   1.531   6.287  0.1063  1.3070  1.7177
   9023SM   H8G12134   5.975   1.659   6.259 -0.0439  0.0809 -2.0739
   9023SM   C9F12135   6.037   1.489   6.380 -0.0314  0.1746 -0.5976
   9023SM   H9F12136   6.143   1.507   6.351  0.8037 -1.6625  1.0383
   9023SM   H9G12137   6.014   1.380   6.381  2.4008 -0.4262  1.6778
   9023SM  C10F12138   6.005   1.555   6.512  0.1938 -0.4560 -0.1831
   9023SM  H10F12139   5.894   1.557   6.503  0.3294 -0.0050 -2.1293
   9023SM  H10G12140   6.036   1.661   6.504 -1.0947  0.2927  3.0258
   9023SM  C11F12141   6.067   1.498   6.638  0.4634 -0.0332 -0.1660
   9023SM  H11F12142   6.170   1.541   6.646  0.8863 -0.4594 -2.5713
   9023SM  H11G12143   6.078   1.388   6.629  1.0665 -0.2121  2.0508
   9023SM  C12F12144   5.992   1.536   6.763 -0.7650 -0.8384  0.7542
   9023SM  H12F12145   5.883   1.512   6.757 -1.1248  0.8782 -0.2662
   9023SM  H12G12146   5.987   1.645   6.787 -1.8558 -1.2612  2.6576
   9023SM  C13F12147   6.051   1.472   6.889  0.6724  0.9646 -0.3061
   9023SM  H13F12148   6.154   1.510   6.908  0.4893  1.3265 -0.0491
   9023SM  H13G12149   6.057   1.361   6.882 -2.8633  0.5708  1.0057
   9023SM  C14F12150   5.959   1.490   7.008 -0.7049  0.6257  0.0323
   9023SM  H14F12151   5.856   1.456   6.982  0.6213 -2.5945 -1.6572
   9023SM  H14G12152   5.958   1.598   7.031  0.3660  0.5598  0.4479
   9023SM  C15F12153   6.016   1.398   7.118 -0.0392 -0.1631  0.4181
   9023SM  H15F12154   6.123   1.424   7.133  0.1080 -0.2217 -0.4362
   9023SM  H15G12155   6.000   1.295   7.080 -0.6446  0.2675 -0.5281
   9023SM  C16F12156   5.935   1.405   7.249 -0.0547 -0.3715  0.1281
   9023SM  H16F12157   5.830   1.383   7.221 -0.3662  0.1984  0.8268
   9023SM  H16G12158   5.927   1.505   7.296  3.3768  1.1416 -2.0520
   9023SM  C17F12159   5.964   1.306   7.354 -0.2526  0.6943  0.7719
   9023SM  H17F12160   5.976   1.203   7.312 -0.2767  0.2348  1.8631
   9023SM  H17G12161   5.876   1.289   7.419 -1.9382  0.7577 -1.3658
   9023SM  C18F12162   6.090   1.343   7.440  0.5712  0.0159  0.6604
   9023SM  H18F12163   6.068   1.449   7.465  0.0126 -0.3498  1.7994
   9023SM  H18G12164   6.186   1.348   7.385  0.1604 -0.5709 -0.1353
   9023SM  C19F12165   6.095   1.246   7.557  0.2972  0.2026 -0.1356
   9023SM  H19F12166   6.040   1.155   7.525 -0.0200  0.6679 -0.9557
   9023SM  H19G12167   6.028   1.297   7.630  0.7797 -0.9059  1.1263
   9023SM  C20F12168   6.228   1.230   7.636  0.3640 -0.5404  0.4361
   9023SM  H20F12169   6.267   1.326   7.675 -2.0302  1.5926 -2.0165
   9023SM  H20G12170   6.302   1.193   7.562 -1.0494  0.7296 -1.7002
   9023SM  C21F12171   6.198   1.123   7.747 -0.0557 -0.3928  0.4263
   9023SM  H21F12172   6.156   1.040   7.686 -2.5234  1.3160 -0.3761
   9023SM  H21G12173   6.107   1.152   7.804 -0.6319  0.1826 -0.7300
   9023SM  C22F12174   6.310   1.086   7.841 -0.3637 -0.6696 -0.3352
   9023SM  H22F12175   6.327   1.172   7.910  1.0880 -0.4717 -0.9029
   9023SM  H22G12176   6.407   1.071   7.788  1.7665 -1.2071  3.4195
   9023SM  C23F12177   6.280   0.957   7.916 -0.7107 -0.7550  0.5009
   9023SM  H23F12178   6.182   0.966   7.968  0.2044  2.5254  1.9141
   9023SM  H23G12179   6.369   0.934   7.980  1.1438  1.9897 -0.9140
   9023SM  H23H12180   6.266   0.877   7.840  0.2309  0.2486 -0.7724
   9123SM     N12181   6.606   4.572   4.550  0.0611  0.1467  0.0586
   9123SM   C1512182   6.483   4.645   4.504 -0.1467 -0.1578 -0.9494
   9123SM  H15A12183   6.488   4.753   4.507 -0.7190 -0.1277 -0.8772
   9123SM  H15B12184   6.399   4.608   4.562  0.4559  0.5374  0.3975
   9123SM  H15C12185   6.463   4.616   4.402 -0.3422  1.4479 -1.3912
   9123SM   C1412186   6.590   4.426   4.512  0.0963  0.9727 -0.2306
   9123SM  H14A12187   6.593   4.407   4.405  1.0751  1.0688 -0.2276
   9123SM  H14B12188   6.494   4.388   4.544  0.7750 -1.6515 -0.9747
   9123SM  H14C12189   6.668   4.359   4.545 -1.2744  0.0505  1.2823
   9123SM   C1312190   6.727   4.628   4.480  0.0730  0.0610 -0.1373
   9123SM  H13A12191   6.719   4.735   4.472  0.7575  0.1638  0.5049
   9123SM  H13B12192   6.716   4.594   4.378 -0.5372 -0.5428  0.1187
   9123SM  H13C12193   6.821   4.598   4.524 -1.4625 -2.3613  1.7748
   9123SM   C1212194   6.643   4.569   4.695  0.0633  0.1872  0.0244
   9123SM  H12A12195   6.654   4.670   4.732 -1.5775  0.1738  0.6119
   9123SM  H12B12196   6.747   4.540   4.694  0.3105  1.0309  0.5820
   9123SM   C1112197   6.552   4.498   4.800  0.1193 -0.0835 -0.5912
   9123SM  H11A12198   6.603   4.518   4.897  1.3028 -0.0653 -1.1986
   9123SM  H11B12199   6.562   4.390   4.775 -1.0303 -0.6922  1.3880
   9123SM     P12200   6.370   4.675   4.881 -0.4502 -0.3468  0.2168
   9123SM   O1312201   6.477   4.777   4.902 -0.4731 -0.5708 -0.3977
   9123SM   O1412202   6.244   4.721   4.822  0.5461  0.1107  0.9375
   9123SM   O1112203   6.332   4.625   5.025 -0.2935  0.5307  0.0266
   9123SM   O1212204   6.417   4.548   4.798 -0.2066 -0.6693 -0.4356
   9123SM   C1S12205   6.364   4.485   5.068 -0.1934  0.3921 -0.0049
   9123SM   H1S12206   6.474   4.476   5.071 -0.3153 -1.6160 -0.1504
   9123SM   H1T12207   6.330   4.410   4.994 -0.1545  0.2246  0.1445
   9123SM    NF12208   6.368   4.331   5.279  0.0078  1.3391  0.0804
   9123SM   HNF12209   6.317   4.248   5.296  3.3048 -1.5716 -2.5574
   9123SM   C2S12210   6.304   4.448   5.208 -0.0818 -0.3768  0.2858
   9123SM   H2S12211   6.329   4.538   5.268  0.2927 -0.9883  1.0744
   9123SM   C3S12212   6.154   4.437   5.202 -0.3789 -0.1604 -0.0191
   9123SM   H3S12213   6.131   4.335   5.165 -1.5591  0.6869 -1.7830
   9123SM    O312214   6.075   4.522   5.114 -0.3126  0.3491 -0.9985
   9123SM   HO312215   6.146   4.568   5.068  2.0189 -0.8000  1.2351
   9123SM   C4S12216   6.086   4.446   5.343  0.1553 -0.3417  0.0142
   9123SM   H4S12217   6.065   4.344   5.379 -0.8685  0.3687  1.5127
   9123SM   C5S12218   6.078   4.556   5.419 -0.0538 -0.7899  0.5397
   9123SM   H5S12219   6.109   4.646   5.365 -1.2017 -0.7917 -0.1578
   9123SM   C6S12220   6.005   4.570   5.549 -0.4800 -0.2929  0.6373
   9123SM   H6S12221   5.896   4.583   5.538 -0.9355 -1.7802  2.8991
   9123SM   H6T12222   6.042   4.670   5.580  1.5766  0.0435 -2.3908
   9123SM   C7S12223   6.022   4.456   5.649  0.2570 -0.3337 -0.6293
   9123SM   H7S12224   6.130   4.427   5.649  0.3195 -0.4930  2.7123
   9123SM   H7T12225   5.961   4.374   5.606  1.5374 -0.6876 -1.8527
   9123SM   C8S12226   5.977   4.471   5.787  0.5679  0.5736  0.2936
   9123SM   H8S12227   5.984   4.377   5.847 -0.4656  0.2653 -0.0558
   9123SM   H8T12228   5.871   4.502   5.791  0.0626 -1.1558  1.8171
   9123SM   C9S12229   6.064   4.563   5.872 -0.1036 -0.2289 -0.7398
   9123SM   H9S12230   6.047   4.665   5.832 -0.8296 -0.5527 -1.2846
   9123SM   H9T12231   6.172   4.546   5.850  0.1730  1.2150 -0.5660
   9123SM  C10S12232   6.034   4.573   6.029  0.8473 -0.1993 -0.0615
   9123SM  H10S12233   6.031   4.466   6.060  0.3463 -0.3560 -0.6353
   9123SM  H10T12234   5.931   4.614   6.043  0.9121 -0.2353  0.5425
   9123SM  C11S12235   6.136   4.646   6.111 -0.1499 -0.7947 -0.4874
   9123SM  H11S12236   6.113   4.751   6.081 -0.0007 -0.3963  0.7409
   9123SM  H11T12237   6.237   4.611   6.080  1.2077  1.0428  1.5196
   9123SM  C12S12238   6.122   4.611   6.259 -0.2798  0.0936 -0.7725
   9123SM  H12S12239   6.123   4.501   6.274  1.9537  0.3535  1.5726
   9123SM  H12T12240   6.031   4.653   6.308  1.0991  2.6901 -0.2617
   9123SM  C13S12241   6.244   4.658   6.347 -0.4624  0.3142 -0.4074
   9123SM  H13S12242   6.248   4.768   6.334  2.2046  0.4184  0.7419
   9123SM  H13T12243   6.349   4.627   6.330 -0.4951  1.0347 -2.1962
   9123SM  C14S12244   6.217   4.637   6.500 -0.2700  0.4334 -0.0656
   9123SM  H14S12245   6.229   4.532   6.533  0.3377  1.3097  2.7366
   9123SM  H14T12246   6.118   4.677   6.530  0.4825  2.1717  0.2246
   9123SM  C15S12247   6.316   4.715   6.579  0.1564 -0.0892 -0.2529
   9123SM  H15S12248   6.297   4.824   6.564 -0.3308 -0.5385 -3.7521
   9123SM  H15T12249   6.418   4.677   6.555  0.0763 -0.8249  0.5189
   9123SM  C16S12250   6.285   4.703   6.732 -0.3181  0.0451 -0.5418
   9123SM  H16S12251   6.292   4.600   6.773  0.2224 -0.0248 -0.7978
   9123SM  H16T12252   6.184   4.747   6.741  0.2069  1.1982 -0.1396
   9123SM  C17S12253   6.366   4.790   6.826 -0.5061 -0.3279  0.2423
   9123SM  H17S12254   6.368   4.896   6.793 -1.0914  0.5693  2.8517
   9123SM  H17T12255   6.473   4.763   6.812  0.1472  1.1962  1.9579
   9123SM  C18S12256   6.323   4.777   6.976 -0.2372  0.2435 -0.3208
   9123SM  H18S12257   6.228   4.830   6.996 -0.7229 -0.7351  0.0119
   9123SM  H18T12258   6.409   4.815   7.035  1.1281 -2.0461 -0.7258
   9123SM  H18U12259   6.323   4.669   7.002  1.3831  0.3327  0.1872
   9123SM   C1F12260   6.503   4.324   5.304 -0.1239 -0.2629 -0.6971
   9123SM    OF12261   6.575   4.426   5.299  0.0117 -0.1509 -0.4059
   9123SM   C2F12262   6.569   4.193   5.342  0.3628  0.6573  0.1700
   9123SM   H2F12263   6.670   4.190   5.296 -0.3355 -0.6487 -1.3496
   9123SM   H2G12264   6.506   4.114   5.298 -1.9470  2.4137  0.1613
   9123SM   C3F12265   6.580   4.186   5.499 -0.2280 -0.6310 -0.5251
   9123SM   H3F12266   6.619   4.277   5.548 -0.8061 -0.6998  0.0672
   9123SM   H3G12267   6.648   4.101   5.522 -1.3044 -1.4519 -0.2974
   9123SM   C4F12268   6.441   4.169   5.569  0.0772  0.6424  0.2671
   9123SM   H4F12269   6.414   4.062   5.571  1.8962  0.1353  0.1255
   9123SM   H4G12270   6.365   4.243   5.536 -0.3897  0.9873  2.0287
   9123SM   C5F12271   6.460   4.209   5.715 -0.0012  0.2085  0.0287
   9123SM   H5F12272   6.499   4.313   5.708  0.1426  0.1050 -0.9078
   9123SM   H5G12273   6.534   4.153   5.777 -3.4031 -1.4284  2.9618
   9123SM   C6F12274   6.329   4.199   5.794  0.8530 -0.7258 -0.1031
   9123SM   H6F12275   6.293   4.095   5.806  1.8284 -1.0287  0.2965
   9123SM   H6G12276   6.277   4.274   5.731  1.3050 -0.1611  0.1866
   9123SM   C7F12277   6.355   4.250   5.937  0.2244 -0.2752 -0.2716
   9123SM   H7F12278   6.386   4.357   5.927  1.4837 -0.7921 -2.3335
   9123SM   H7G12279   6.444   4.195   5.974  0.6403  0.4883 -0.1141
   9123SM   C8F12280   6.241   4.222   6.028  0.2675  0.1075 -0.1732
   9123SM   H8F12281   6.206   4.119   6.006 -0.0424  0.0806  0.4233
   9123SM   H8G12282   6.165   4.296   5.994  1.9024  1.0030 -2.0581
   9123SM   C9F12283   6.275   4.244   6.180 -0.2278  0.0502  0.0240
   9123SM   H9F12284   6.173   4.256   6.223 -0.6836  1.3233 -1.3166
   9123SM   H9G12285   6.336   4.336   6.183 -0.2117  0.0648 -0.6338
   9123SM  C10F12286   6.346   4.126   6.251 -0.0524  0.4545 -0.3535
   9123SM  H10F12287   6.445   4.106   6.205 -0.2420  0.4216 -0.7539
   9123SM  H10G12288   6.275   4.040   6.243  0.9543 -0.2566 -2.2993
   9123SM  C11F12289   6.354   4.162   6.397  0.2640 -0.5720 -0.3547
   9123SM  H11F12290   6.402   4.259   6.423  1.4577 -1.2691  0.1099
   9123SM  H11G12291   6.401   4.073   6.444  0.1087 -0.5268 -0.1124
   9123SM  C12F12292   6.215   4.165   6.478 -0.1169  0.3441  0.1587
   9123SM  H12F12293   6.148   4.088   6.432  2.2265 -2.3690  1.0185
   9123SM  H12G12294   6.156   4.259   6.484 -1.5759 -0.4619 -0.9013
   9123SM  C13F12295   6.240   4.131   6.627  0.0586 -0.5454  0.9323
   9123SM  H13F12296   6.319   4.189   6.678 -0.3943  0.4537  0.5093
   9123SM  H13G12297   6.281   4.027   6.624  1.4914 -0.0603  2.2247
   9123SM  C14F12298   6.109   4.130   6.704 -0.0444 -0.0229  0.1176
   9123SM  H14F12299   6.129   4.074   6.798 -0.2429  0.1351  0.2544
   9123SM  H14G12300   6.030   4.070   6.655  0.4846 -1.0209  0.4709
   9123SM  C15F12301   6.051   4.272   6.743 -0.8131 -0.0948 -0.7046
   9123SM  H15F12302   6.031   4.329   6.650  2.2690 -1.7006 -2.5160
   9123SM  H15G12303   6.129   4.330   6.796  0.6314  0.8549 -3.6905
   9123SM  C16F12304   5.933   4.260   6.832 -0.1411 -0.4116 -1.0071
   9123SM  H16F12305   5.849   4.205   6.784 -2.5039  0.8331  1.4454
   9123SM  H16G12306   5.885   4.359   6.844  1.3088  0.0943  1.3452
   9123SM  C17F12307   5.958   4.215   6.975 -0.3343 -0.4768  0.2779
   9123SM  H17F12308   5.986   4.108   6.988 -1.3744 -0.9805 -1.2689
   9123SM  H17G12309   5.871   4.246   7.037 -0.5341  0.5630 -0.4822
   9123SM  C18F12310   6.066   4.302   7.043 -0.0343  0.7167 -0.2156
   9123SM  H18F12311   6.046   4.406   7.010 -0.1808  0.0902 -2.2195
   9123SM  H18G12312   6.166   4.278   7.001 -0.5382 -2.0827 -0.0522
   9123SM  C19F12313   6.067   4.286   7.197 -0.2120  0.0252 -0.6151
   9123SM  H19F12314   5.970   4.320   7.239  0.3383  0.1886  0.5554
   9123SM  H19G12315   6.156   4.343   7.233 -0.8254  1.5243 -1.3925
   9123SM  C20F12316   6.089   4.142   7.237 -0.2300  0.1042  0.7783
   9123SM  H20F12317   6.180   4.097   7.193 -0.4992  0.5366 -0.2545
   9123SM  H20G12318   6.002   4.082   7.204  1.2141 -1.3395 -0.5408
   9123SM  C21F12319   6.112   4.118   7.384  0.7530  0.7181 -0.2021
   9123SM  H21F12320   6.045   4.183   7.445  0.4334 -0.8413  1.1812
   9123SM  H21G12321   6.217   4.146   7.405  1.0847  0.4181 -1.3811
   9123SM  C22F12322   6.078   3.978   7.432 -0.0729 -0.3665 -0.0077
   9123SM  H22F12323   6.132   3.964   7.528 -0.1567  0.7201  0.2021
   9123SM  H22G12324   6.111   3.898   7.362 -0.2612  0.6794 -1.3231
   9123SM  C23F12325   5.924   3.953   7.463 -0.1526  0.4377  0.7134
   9123SM  H23F12326   5.917   3.871   7.536  2.7502  0.0404  0.6584
   9123SM  H23G12327   5.878   3.949   7.362 -0.3501  0.2550  0.8119
   9123SM  H23H12328   5.877   4.035   7.521 -0.7271  1.1910 -0.7430
   9223SM     N12329   5.681   0.975   4.997 -0.3912  0.2274  0.6530
   9223SM   C1512330   5.823   0.988   5.052 -0.1231 -0.1782  0.0726
   9223SM  H15A12331   5.841   1.094   5.047 -0.9262 -0.0989 -1.6927
   9223SM  H15B12332   5.899   0.933   5.000 -0.9704 -0.3211 -1.0388
   9223SM  H15C12333   5.823   0.955   5.155 -2.7993 -0.0879  0.1695
   9223SM   C1412334   5.591   1.029   5.105  0.4541  0.0964  0.0551
   9223SM  H14A12335   5.622   1.129   5.132 -0.8875  0.1367  1.5954
   9223SM  H14B12336   5.595   0.960   5.188  0.1444 -1.8851 -1.4924
   9223SM  H14C12337   5.489   1.023   5.072  0.5965 -1.9980 -0.1559
   9223SM   C1312338   5.675   1.056   4.862 -0.0752  0.2348  0.1611
   9223SM  H13A12339   5.735   1.004   4.789 -0.2149 -1.3195  1.0973
   9223SM  H13B12340   5.728   1.149   4.875  0.6119 -0.0873 -0.3070
   9223SM  H13C12341   5.572   1.072   4.834  0.3606  0.1461 -1.5984
   9223SM   C1212342   5.640   0.833   4.974  0.2765  0.2216 -0.3231
   9223SM  H12A12343   5.668   0.768   5.055 -0.0618 -0.9403 -1.1060
   9223SM  H12B12344   5.703   0.797   4.894 -0.2668 -0.4656 -0.4530
   9223SM   C1112345   5.491   0.806   4.942 -0.0832 -0.2475 -0.1994
   9223SM  H11A12346   5.488   0.700   4.908  0.8706 -0.3999  0.1442
   9223SM  H11B12347   5.466   0.881   4.864  1.6486  0.6738  0.0769
   9223SM     P12348   5.247   0.808   5.015 -0.0354  0.4240 -0.3312
   9223SM   O1312349   5.207   0.896   4.903  0.0037 -0.0514 -0.0496
   9223SM   O1412350   5.224   0.660   4.997 -0.5166  0.1462  0.2835
   9223SM   O1112351   5.167   0.849   5.142  0.6328 -0.5892  0.3958
   9223SM   O1212352   5.401   0.829   5.046  0.2460 -0.6878 -0.0902
   9223SM   C1S12353   5.144   0.990   5.161 -0.2694  0.0875  0.4378
   9223SM   H1S12354   5.049   1.015   5.109 -0.2124  1.7833  1.0804
   9223SM   H1T12355   5.226   1.052   5.119 -1.5347 -0.4502 -3.1690
   9223SM    NF12356   5.101   1.175   5.318  0.1866  1.0870 -0.4741
   9223SM   HNF12357   5.173   1.223   5.368 -0.7605 -0.6749  2.9048
   9223SM   C2S12358   5.119   1.030   5.308 -0.0825  0.4497 -0.1488
   9223SM   H2S12359   5.027   0.973   5.333  0.6996 -0.4546  0.7296
   9223SM   C3S12360   5.232   0.965   5.401  0.4757  0.4589 -0.0494
   9223SM   H3S12361   5.328   1.001   5.357 -0.0764  0.4361 -1.3144
   9223SM    O312362   5.244   0.822   5.405 -0.0266  0.6904  0.5983
   9223SM   HO312363   5.205   0.804   5.320  0.6748  1.8015  0.0196
   9223SM   C4S12364   5.196   1.011   5.538 -0.1456 -0.3399  0.4664
   9223SM   H4S12365   5.251   1.104   5.557 -1.0120  0.1404  0.6922
   9223SM   C5S12366   5.116   0.952   5.629 -0.3497  0.5469  0.3149
   9223SM   H5S12367   5.061   0.860   5.604 -1.3133  0.1591  3.4628
   9223SM   C6S12368   5.078   1.014   5.761 -0.4639 -0.0142 -0.2644
   9223SM   H6S12369   5.124   0.942   5.832 -1.5914 -0.4317  0.0647
   9223SM   H6T12370   4.972   1.011   5.794  0.0525  1.4208  1.7010
   9223SM   C7S12371   5.128   1.159   5.777 -0.1745  0.7592  0.1523
   9223SM   H7S12372   5.083   1.229   5.704  0.9588  0.2269 -1.0959
   9223SM   H7T12373   5.236   1.170   5.756 -0.1148  0.9658  0.5646
   9223SM   C8S12374   5.096   1.204   5.923  0.7969  0.1780 -0.1539
   9223SM   H8S12375   4.989   1.230   5.930  0.9623  0.7313  0.4544
   9223SM   H8T12376   5.162   1.294   5.930  0.8044  0.2254 -0.7954
   9223SM   C9S12377   5.130   1.099   6.027  0.3108  0.0075 -0.3183
   9223SM   H9S12378   5.218   1.042   5.990  0.9561 -1.3326  2.9651
   9223SM   H9T12379   5.051   1.022   6.031  1.2873 -1.2819 -3.2335
   9223SM  C10S12380   5.157   1.158   6.170 -0.6994  0.4796  0.2483
   9223SM  H10S12381   5.263   1.188   6.162 -0.5275  0.0468  0.8262
   9223SM  H10T12382   5.163   1.063   6.227 -2.8712  0.8362  1.1771
   9223SM  C11S12383   5.070   1.259   6.233  0.0711  0.5560 -0.5435
   9223SM  H11S12384   4.971   1.208   6.240  1.5451 -2.6837 -1.5907
   9223SM  H11T12385   5.062   1.356   6.179  1.9869  1.2524  0.3525
   9223SM  C12S12386   5.117   1.275   6.378  0.4345 -0.8290 -0.3258
   9223SM  H12S12387   5.195   1.354   6.376  0.3702 -0.7837 -2.1137
   9223SM  H12T12388   5.183   1.195   6.418  2.0967  0.1449 -1.0061
   9223SM  C13S12389   5.003   1.303   6.484 -0.2001 -0.1366  0.4010
   9223SM  H13S12390   4.934   1.216   6.488 -0.2295 -0.2034 -1.1751
   9223SM  H13T12391   4.952   1.394   6.445  0.3977 -0.3348 -0.8925
   9223SM  C14S12392   5.057   1.343   6.614  0.5804  0.4931  0.0504
   9223SM  H14S12393   4.977   1.402   6.662 -0.6046 -1.1026  0.1211
   9223SM  H14T12394   5.151   1.402   6.615 -0.4411  2.1628  1.1239
   9223SM  C15S12395   5.077   1.222   6.715 -0.1522 -0.5893  0.7996
   9223SM  H15S12396   5.155   1.154   6.677  1.0700  0.5602  1.1685
   9223SM  H15T12397   4.976   1.175   6.718 -0.5609  0.2844  2.6430
   9223SM  C16S12398   5.128   1.260   6.852 -0.3625 -0.7443  0.1890
   9223SM  H16S12399   5.067   1.348   6.879 -0.0597  0.1414 -1.8428
   9223SM  H16T12400   5.228   1.305   6.837 -1.0613  0.4947 -1.0010
   9223SM  C17S12401   5.107   1.153   6.952  0.7326 -0.7056  0.0425
   9223SM  H17S12402   5.168   1.067   6.916 -2.5278 -2.1074 -2.6747
   9223SM  H17T12403   5.004   1.112   6.948  1.3076 -2.4245  1.4543
   9223SM  C18S12404   5.130   1.189   7.094 -0.0216  0.0671  0.1734
   9223SM  H18S12405   5.075   1.283   7.114  0.6694  0.6703 -0.6710
   9223SM  H18T12406   5.240   1.187   7.109  0.0331 -2.9474  0.0981
   9223SM  H18U12407   5.089   1.110   7.161 -1.3787 -0.8771 -1.6968
   9223SM   C1F12408   4.993   1.246   5.281  0.1222  0.8280  0.5052
   9223SM    OF12409   4.902   1.185   5.221  0.0488 -1.1465 -0.5698
   9223SM   C2F12410   4.976   1.387   5.310  0.4647 -0.0965 -0.2588
   9223SM   H2F12411   4.934   1.442   5.223 -0.5724  0.1840  0.4051
   9223SM   H2G12412   5.074   1.435   5.333 -0.2317  1.2251  0.0576
   9223SM   C3F12413   4.870   1.415   5.419 -0.5530 -0.3951 -1.1424
   9223SM   H3F12414   4.763   1.395   5.396 -1.5687  3.1719 -0.1620
   9223SM   H3G12415   4.867   1.525   5.437  1.1743 -0.5237  0.1676
   9223SM   C4F12416   4.899   1.352   5.559  0.8835  0.4695 -0.2687
   9223SM   H4F12417   4.993   1.396   5.598  0.5921  0.8481  0.0049
   9223SM   H4G12418   4.921   1.246   5.534  1.2440  0.0633  1.5646
   9223SM   C5F12419   4.775   1.362   5.652  1.1754 -0.1410 -0.2036
   9223SM   H5F12420   4.804   1.322   5.751  1.8090  0.6050 -0.0712
   9223SM   H5G12421   4.689   1.321   5.594  1.1135 -0.5852  0.2004
   9223SM   C6F12422   4.751   1.511   5.683 -0.1257 -0.8093  0.5460
   9223SM   H6F12423   4.725   1.560   5.587 -1.8340 -0.6246  1.0643
   9223SM   H6G12424   4.839   1.561   5.729 -0.9264  1.3352 -0.1312
   9223SM   C7F12425   4.628   1.529   5.767  0.3504  0.3859 -0.3250
   9223SM   H7F12426   4.546   1.502   5.697 -0.6125  1.4129  0.3622
   9223SM   H7G12427   4.614   1.638   5.784  1.9391  0.4047  1.1151
   9223SM   C8F12428   4.630   1.445   5.896  0.2584  0.2373 -0.1423
   9223SM   H8F12429   4.610   1.339   5.871  3.3072 -0.5893  0.4580
   9223SM   H8G12430   4.539   1.474   5.953  1.0894 -0.8589  1.8864
   9223SM   C9F12431   4.750   1.473   5.989  0.3353  0.1156  0.4132
   9223SM   H9F12432   4.755   1.577   6.028 -0.0580  0.1190  0.4602
   9223SM   H9G12433   4.846   1.469   5.933  0.1564 -1.0770  0.1681
   9223SM  C10F12434   4.736   1.384   6.118  0.0437 -0.1640  0.0642
   9223SM  H10F12435   4.803   1.433   6.192  1.0374  0.4947 -1.2494
   9223SM  H10G12436   4.774   1.282   6.097  2.4262  0.6071  0.3265
   9223SM  C11F12437   4.594   1.360   6.173  0.0686 -0.0313 -0.2471
   9223SM  H11F12438   4.556   1.285   6.100  2.5934  0.1121 -1.8502
   9223SM  H11G12439   4.545   1.458   6.188 -2.2111 -1.3063  1.0662
   9223SM  C12F12440   4.602   1.273   6.304  0.1324 -0.7339 -0.3464
   9223SM  H12F12441   4.682   1.198   6.287  0.7850  0.0470 -0.7968
   9223SM  H12G12442   4.506   1.217   6.310 -0.3364  0.0518 -0.4609
   9223SM  C13F12443   4.614   1.350   6.431 -0.0042  0.1846  0.4020
   9223SM  H13F12444   4.535   1.428   6.434  1.6341  1.9488 -0.0857
   9223SM  H13G12445   4.713   1.400   6.428  0.1904 -0.2182 -0.4799
   9223SM  C14F12446   4.612   1.263   6.557 -0.5080 -0.3218  0.0663
   9223SM  H14F12447   4.676   1.174   6.540  0.9087  0.4296  1.2481
   9223SM  H14G12448   4.517   1.210   6.578 -0.2453  0.2170  3.0401
   9223SM  C15F12449   4.657   1.330   6.689 -0.4699 -0.2656  0.1745
   9223SM  H15F12450   4.608   1.423   6.723 -0.6332 -0.7559  1.3385
   9223SM  H15G12451   4.765   1.354   6.682 -0.8115  1.0180 -1.0738
   9223SM  C16F12452   4.643   1.225   6.796 -0.2714 -0.5006  0.0126
   9223SM  H16F12453   4.692   1.133   6.758 -2.5521 -1.8107  0.1238
   9223SM  H16G12454   4.535   1.205   6.809 -0.0594 -2.5219 -0.9905
   9223SM  C17F12455   4.718   1.257   6.923  0.1827  0.5430 -0.2979
   9223SM  H17F12456   4.664   1.342   6.970 -1.4155 -0.9434  0.6943
   9223SM  H17G12457   4.827   1.275   6.907  0.8597 -2.5600  0.1092
   9223SM  C18F12458   4.709   1.140   7.012 -0.0558 -0.0135 -0.5350
   9223SM  H18F12459   4.775   1.064   6.964  0.9860  0.2272  0.4638
   9223SM  H18G12460   4.604   1.104   7.012 -1.3264  3.3904  0.2318
   9223SM  C19F12461   4.761   1.164   7.154  0.2243  0.6356  0.3922
   9223SM  H19F12462   4.870   1.184   7.149  0.6595 -1.4310  0.5211
   9223SM  H19G12463   4.748   1.072   7.216 -2.4369  0.5296 -0.1927
   9223SM  C20F12464   4.693   1.282   7.234  0.3152  0.1054  0.2558
   9223SM  H20F12465   4.585   1.258   7.246  0.0952  1.4388  1.1150
   9223SM  H20G12466   4.698   1.377   7.177 -2.7410  0.0608 -0.2411
   9223SM  C21F12467   4.745   1.302   7.368  0.3788  0.1992 -0.5706
   9223SM  H21F12468   4.745   1.206   7.425  0.8199  0.0716 -0.7862
   9223SM  H21G12469   4.676   1.366   7.427 -3.0502 -4.5526  1.2396
   9223SM  C22F12470   4.888   1.352   7.373  0.2375 -0.1462  0.1125
   9223SM  H22F12471   4.896   1.423   7.459 -0.1148 -1.0495  0.9086
   9223SM  H22G12472   4.926   1.393   7.277 -1.3035 -0.4090 -0.6302
   9223SM  C23F12473   4.990   1.245   7.392  0.1889  0.2413 -0.7709
   9223SM  H23F12474   4.976   1.200   7.493 -1.5944 -1.0915 -1.5528
   9223SM  H23G12475   5.093   1.281   7.371 -0.0686  0.7619 -1.1863
   9223SM  H23H12476   4.968   1.163   7.321 -1.2229  1.4644 -1.8194
   9323SM     N12477   5.919   4.239   4.586 -0.8357 -0.7282  0.2112
   9323SM   C1512478   5.946   4.294   4.447 -1.1557 -0.1907 -0.0050
   9323SM  H15A12479   5.976   4.395   4.467 -2.4981  0.5434 -1.4617
   9323SM  H15B12480   5.856   4.306   4.388 -0.3447  3.1472 -0.7419
   9323SM  H15C12481   6.017   4.226   4.402  0.6539 -0.6427  3.2393
   9323SM   C1412482   5.812   4.323   4.650 -0.2965 -0.2732  0.3849
   9323SM  H14A12483   5.752   4.264   4.718 -2.0240  0.7199 -0.2214
   9323SM  H14B12484   5.748   4.359   4.571 -1.3494 -3.0454 -0.1267
   9323SM  H14C12485   5.848   4.409   4.705 -2.1186  1.3074 -0.7726
   9323SM   C1312486   5.870   4.107   4.569  0.1234  0.3348 -0.3882
   9323SM  H13A12487   5.951   4.047   4.531 -0.4512 -0.9386  0.3479
   9323SM  H13B12488   5.786   4.111   4.502 -0.2141 -1.7712 -0.1425
   9323SM  H13C12489   5.845   4.052   4.659 -0.4059  1.1566 -0.0195
   9323SM   C1212490   6.048   4.226   4.671  0.7619 -0.2121 -0.0530
   9323SM  H12A12491   6.083   4.327   4.684 -1.9589  0.8347 -0.1601
   9323SM  H12B12492   6.115   4.167   4.610  1.0361 -0.7716  0.7790
   9323SM   C1112493   6.031   4.168   4.805  0.3065 -0.1200 -0.4064
   9323SM  H11A12494   5.942   4.210   4.857  1.3157  0.3598  0.9801
   9323SM  H11B12495   6.118   4.210   4.858  1.0713  0.4601 -2.0543
   9323SM     P12496   6.133   3.940   4.888  0.2715 -0.1244 -0.1991
   9323SM   O1312497   6.089   3.796   4.882 -0.4050  0.0648  0.3967
   9323SM   O1412498   6.272   3.963   4.840  0.1142 -0.0683 -0.2483
   9323SM   O1112499   6.121   3.997   5.036 -0.1994 -0.7502 -0.8306
   9323SM   O1212500   6.030   4.025   4.808 -0.1148  0.2644  0.7940
   9323SM   C1S12501   5.988   4.006   5.084  0.5180 -0.0185 -0.0308
   9323SM   H1S12502   5.913   3.942   5.034 -0.1379  0.5896  0.1655
   9323SM   H1T12503   5.951   4.110   5.090  0.4326  0.0493 -1.5694
   9323SM    NF12504   5.852   3.921   5.299  0.2730 -0.2231  0.3613
   9323SM   HNF12505   5.795   3.982   5.354  0.3302  2.2261 -2.0702
   9323SM   C2S12506   5.983   3.964   5.243  0.6314  0.8898 -0.8190
   9323SM   H2S12507   6.043   3.871   5.234  1.0853  0.9215  1.3434
   9323SM   C3S12508   6.061   4.062   5.334 -0.0999  0.1241  0.0512
   9323SM   H3S12509   5.997   4.153   5.336 -3.2557 -1.9500  0.5541
   9323SM    O312510   6.191   4.096   5.281  0.4800 -0.2959  0.0954
   9323SM   HO312511   6.188   4.055   5.195  1.6968  0.6649 -0.4316
   9323SM   C4S12512   6.085   4.001   5.468  0.0648 -1.2590  0.2176
   9323SM   H4S12513   6.182   3.951   5.477  1.1728  1.1369  3.2966
   9323SM   C5S12514   6.017   4.017   5.579  0.0187 -0.5017  0.4276
   9323SM   H5S12515   5.925   4.078   5.579  1.7110  2.2090 -0.6815
   9323SM   C6S12516   6.059   3.949   5.709 -0.1986  0.0665 -0.1020
   9323SM   H6S12517   6.030   4.023   5.786 -1.0541  0.7892 -1.0890
   9323SM   H6T12518   6.166   3.920   5.705  0.2685  1.6998 -0.0036
   9323SM   C7S12519   5.978   3.821   5.733 -0.6052 -0.5823 -0.2395
   9323SM   H7S12520   5.996   3.758   5.643 -1.0590 -0.4320 -0.4370
   9323SM   H7T12521   5.870   3.846   5.729 -0.7987 -1.5034 -1.1998
   9323SM   C8S12522   6.014   3.752   5.862  0.1898  0.0670  0.0788
   9323SM   H8S12523   6.120   3.718   5.861  0.6225  1.3426 -0.0201
   9323SM   H8T12524   5.946   3.665   5.872 -1.6146  1.3956 -0.0639
   9323SM   C9S12525   5.982   3.829   5.990  0.3657  0.1142  0.2134
   9323SM   H9S12526   5.872   3.845   5.992  0.0710 -1.4977 -0.7702
   9323SM   H9T12527   6.035   3.926   5.992 -2.3448  1.8162 -2.3355
   9323SM  C10S12528   6.031   3.746   6.114 -0.4473  0.6734  0.7333
   9323SM  H10S12529   6.136   3.711   6.101 -0.8202 -0.1745 -0.1475
   9323SM  H10T12530   5.968   3.655   6.128  0.2793 -0.0327 -0.3559
   9323SM  C11S12531   6.026   3.836   6.240  0.3086 -0.2086  0.4254
   9323SM  H11S12532   5.918   3.861   6.245  0.3415  0.0676 -0.1218
   9323SM  H11T12533   6.084   3.931   6.229  0.4971 -0.1457  1.8245
   9323SM  C12S12534   6.077   3.761   6.362 -0.6196 -0.0718  0.6372
   9323SM  H12S12535   6.187   3.775   6.357 -0.6656  0.4241  0.9135
   9323SM  H12T12536   6.054   3.652   6.361  0.6601 -0.3822  1.7854
   9323SM  C13S12537   6.024   3.817   6.496  0.3934 -0.1422 -0.2068
   9323SM  H13S12538   5.913   3.818   6.497  0.3744  1.9954  0.0836
   9323SM  H13T12539   6.058   3.921   6.517  0.6522 -0.6955  2.5192
   9323SM  C14S12540   6.073   3.734   6.621 -0.1266  0.2021 -0.7876
   9323SM  H14S12541   6.175   3.771   6.645 -0.4237  0.0023  0.8707
   9323SM  H14T12542   6.070   3.623   6.612 -1.6647  0.2316 -0.8142
   9323SM  C15S12543   5.988   3.771   6.741 -0.0044  0.0686 -0.2216
   9323SM  H15S12544   5.989   3.881   6.756  1.2252 -0.2469  2.7376
   9323SM  H15T12545   5.880   3.752   6.727 -0.2059  0.9834  0.0403
   9323SM  C16S12546   6.037   3.713   6.873 -0.0297  0.0463 -0.6992
   9323SM  H16S12547   6.143   3.744   6.888  0.3664 -1.0260 -1.1878
   9323SM  H16T12548   6.044   3.602   6.870 -0.3377  0.0472 -1.8418
   9323SM  C17S12549   5.956   3.770   6.983  0.4242 -0.0179  0.2888
   9323SM  H17S12550   5.849   3.747   6.965 -0.1679  1.5357  1.5476
   9323SM  H17T12551   5.968   3.879   6.966  1.7237 -0.4281 -1.8635
   9323SM  C18S12552   6.002   3.733   7.124 -0.2917  0.0214  0.4213
   9323SM  H18S12553   5.991   3.625   7.148 -3.0397 -0.1946 -1.3029
   9323SM  H18T12554   5.932   3.788   7.191  0.0627  1.8654 -0.6518
   9323SM  H18U12555   6.107   3.761   7.145  0.4322 -2.8265  1.0588
   9323SM   C1F12556   5.784   3.811   5.265  0.5272  0.0936 -0.7029
   9323SM    OF12557   5.838   3.737   5.190 -0.2892  0.2868  0.5590
   9323SM   C2F12558   5.655   3.788   5.338  0.9791 -0.1454  0.5960
   9323SM   H2F12559   5.608   3.699   5.293  3.6964 -0.8284 -1.1454
   9323SM   H2G12560   5.599   3.883   5.320  1.7871  0.0420 -1.1529
   9323SM   C3F12561   5.670   3.766   5.486  0.1835 -0.2024 -1.2191
   9323SM   H3F12562   5.721   3.852   5.534  0.3609 -1.2683  0.5741
   9323SM   H3G12563   5.736   3.680   5.509  0.2128  0.0996 -0.1306
   9323SM   C4F12564   5.532   3.752   5.552  0.0315 -0.4557  0.2587
   9323SM   H4F12565   5.448   3.719   5.487 -0.9509  0.3802  1.0604
   9323SM   H4G12566   5.508   3.850   5.599 -1.2240 -0.8423  0.4677
   9323SM   C5F12567   5.540   3.647   5.668 -0.1300  0.4611  0.6814
   9323SM   H5F12568   5.607   3.566   5.632 -2.2639 -0.3940 -1.7015
   9323SM   H5G12569   5.440   3.602   5.689  0.6150 -1.0026  1.2708
   9323SM   C6F12570   5.591   3.695   5.804  0.3440 -0.1810  0.0395
   9323SM   H6F12571   5.525   3.782   5.827 -1.1728 -1.1567 -0.4155
   9323SM   H6G12572   5.692   3.739   5.793  0.0340  0.1386 -1.8947
   9323SM   C7F12573   5.576   3.591   5.912  0.3130 -0.1395  0.4878
   9323SM   H7F12574   5.619   3.495   5.876 -0.2860 -0.3506  0.3121
   9323SM   H7G12575   5.469   3.574   5.937  0.2034  0.2742  0.3059
   9323SM   C8F12576   5.653   3.639   6.033 -0.5963  0.3942 -1.0068
   9323SM   H8F12577   5.638   3.746   6.057  0.4824  0.0029  1.7324
   9323SM   H8G12578   5.761   3.628   6.011 -0.1008 -0.1832  1.5112
   9323SM   C9F12579   5.615   3.549   6.155 -0.3315  0.5798 -0.4073
   9323SM   H9F12580   5.635   3.442   6.134  1.5302  1.3407 -3.1023
   9323SM   H9G12581   5.506   3.555   6.173 -0.2567 -1.8869  1.4099
   9323SM  C10F12582   5.672   3.596   6.289 -0.4206  0.1468  0.2693
   9323SM  H10F12583   5.635   3.700   6.295 -1.2768 -0.1452  0.1759
   9323SM  H10G12584   5.783   3.593   6.290 -0.3886  0.7150 -0.4873
   9323SM  C11F12585   5.627   3.506   6.407  0.0813  1.3010  0.4156
   9323SM  H11F12586   5.660   3.404   6.380  1.5664  1.5057  1.3218
   9323SM  H11G12587   5.517   3.516   6.404 -0.2057 -1.3713 -1.2342
   9323SM  C12F12588   5.689   3.542   6.543 -0.2581 -0.0371 -0.0058
   9323SM  H12F12589   5.661   3.647   6.562  0.0078  0.1472 -0.6009
   9323SM  H12G12590   5.800   3.535   6.537 -0.2640  0.8748 -1.7128
   9323SM  C13F12591   5.648   3.448   6.652  0.0343  0.3666  0.0825
   9323SM  H13F12592   5.667   3.344   6.617 -0.8980  0.5584 -1.0688
   9323SM  H13G12593   5.538   3.449   6.670 -0.1305  1.7017 -0.8620
   9323SM  C14F12594   5.718   3.479   6.783 -0.9020  0.5672 -0.3643
   9323SM  H14F12595   5.709   3.589   6.799 -0.1688  0.4984  0.6251
   9323SM  H14G12596   5.828   3.466   6.780 -0.6686  0.5628  3.4417
   9323SM  C15F12597   5.653   3.396   6.894  0.4333 -0.7109 -0.1111
   9323SM  H15F12598   5.670   3.289   6.874  0.7135 -0.3048 -2.2809
   9323SM  H15G12599   5.544   3.412   6.882  0.2237 -2.4818 -0.7440
   9323SM  C16F12600   5.702   3.443   7.033 -0.0626  0.4040  0.0635
   9323SM  H16F12601   5.679   3.550   7.053 -0.6069  0.1294  0.9479
   9323SM  H16G12602   5.813   3.439   7.030 -0.0258  1.4830 -0.4374
   9323SM  C17F12603   5.642   3.352   7.145  0.7918 -0.7980  0.1420
   9323SM  H17F12604   5.654   3.242   7.138 -0.6406 -1.0065  0.5300
   9323SM  H17G12605   5.533   3.373   7.132  1.1138 -0.0082 -1.6215
   9323SM  C18F12606   5.673   3.382   7.289 -0.0795 -0.8507 -0.1523
   9323SM  H18F12607   5.689   3.492   7.289  0.3806 -0.9136  0.1226
   9323SM  H18G12608   5.777   3.357   7.320  0.4189 -3.1283 -3.1621
   9323SM  C19F12609   5.572   3.335   7.395  0.3236 -0.5320  0.5413
   9323SM  H19F12610   5.558   3.226   7.383 -2.7096 -0.2325  0.6843
   9323SM  H19G12611   5.477   3.383   7.364  0.8938 -0.0558 -0.5113
   9323SM  C20F12612   5.601   3.360   7.539 -0.1771 -0.1110  0.0397
   9323SM  H20F12613   5.622   3.468   7.558 -1.3882  0.2480 -0.5587
   9323SM  H20G12614   5.694   3.308   7.571 -0.5335 -0.6475  0.2134
   9323SM  C21F12615   5.488   3.289   7.625 -0.0240  0.1839 -0.2138
   9323SM  H21F12616   5.476   3.186   7.585  2.5383  0.3947 -1.7605
   9323SM  H21G12617   5.396   3.345   7.597  0.7739  0.3275 -2.8011
   9323SM  C22F12618   5.522   3.285   7.777 -0.4516 -0.3456  0.5200
   9323SM  H22F12619   5.625   3.247   7.796  0.2147  0.3354 -1.5740
   9323SM  H22G12620   5.456   3.208   7.825 -0.4903 -0.5129  0.2008
   9323SM  C23F12621   5.499   3.422   7.846  0.0132 -0.5020 -0.5276
   9323SM  H23F12622   5.565   3.501   7.803  1.7489 -1.5777  0.0756
   9323SM  H23G12623   5.525   3.425   7.954  0.0770 -0.0959 -0.5522
   9323SM  H23H12624   5.392   3.442   7.825 -0.0109  0.9221  0.7107
   9423SM     N12625   5.021   5.451   4.922  0.2601  0.8116 -0.2834
   9423SM   C1512626   5.168   5.489   4.928  0.0269  0.4074  0.2249
   9423SM  H15A12627   5.186   5.565   5.003  0.7461 -0.3833  0.8752
   9423SM  H15B12628   5.204   5.533   4.836 -0.2232  0.5470  0.1938
   9423SM  H15C12629   5.234   5.408   4.954  1.6120  1.0018 -1.7117
   9423SM   C1412630   4.931   5.572   4.910 -0.8579 -0.5517 -0.0724
   9423SM  H14A12631   4.947   5.643   4.990  0.0574  1.0782 -1.6228
   9423SM  H14B12632   4.829   5.535   4.912 -0.0204 -3.0219  1.6121
   9423SM  H14C12633   4.947   5.633   4.822 -0.1888 -2.5553 -1.4090
   9423SM   C1312634   5.001   5.346   4.812  0.1390  0.4679 -0.5483
   9423SM  H13A12635   4.900   5.307   4.812 -0.0409  0.8411  1.2723
   9423SM  H13B12636   5.076   5.269   4.822 -0.1509  0.0633 -1.4578
   9423SM  H13C12637   5.024   5.396   4.719  0.5216  1.5321  0.1013
   9423SM   C1212638   4.987   5.379   5.050  0.0600 -0.9998  0.2246
   9423SM  H12A12639   5.039   5.285   5.042 -0.1695 -1.2758  1.6996
   9423SM  H12B12640   4.881   5.360   5.051 -0.1573 -0.1699 -1.5744
   9423SM   C1112641   5.032   5.445   5.186  0.0227 -0.7650  0.6651
   9423SM  H11A12642   5.142   5.434   5.188  0.2075  0.8749  0.7344
   9423SM  H11B12643   5.009   5.379   5.272  2.6425 -0.8243  1.3865
   9423SM     P12644   4.895   5.623   5.308 -0.0075  0.2744  0.2728
   9423SM   O1312645   4.894   5.768   5.340 -0.5009 -0.0825 -0.3356
   9423SM   O1412646   4.764   5.560   5.271 -0.3733 -0.6206 -0.7603
   9423SM   O1112647   4.951   5.553   5.440 -0.4690 -0.4439  0.0068
   9423SM   O1212648   4.997   5.587   5.196  0.8928 -0.1836 -0.6525
   9423SM   C1S12649   5.000   5.625   5.555  0.6294  0.6710  0.0800
   9423SM   H1S12650   4.917   5.682   5.602  1.1798  1.3992  0.1907
   9423SM   H1T12651   5.075   5.702   5.525 -0.4045  2.1619  1.2006
   9423SM    NF12652   5.082   5.617   5.778  0.6489 -0.2241 -0.4301
   9423SM   HNF12653   5.163   5.675   5.773 -0.0383  0.9027  0.8779
   9423SM   C2S12654   5.062   5.539   5.660 -0.5497  0.1777 -0.3231
   9423SM   H2S12655   4.980   5.466   5.681  0.9899 -1.4372  0.3082
   9423SM   C3S12656   5.187   5.455   5.616  0.1958 -0.1453  0.1405
   9423SM   H3S12657   5.271   5.526   5.602  0.8704 -0.8610  0.4803
   9423SM    O312658   5.177   5.389   5.490  0.6313  0.7903 -0.2375
   9423SM   HO312659   5.096   5.416   5.448  0.5380 -0.7689 -1.1223
   9423SM   C4S12660   5.231   5.358   5.721  0.3617  0.6836 -0.3698
   9423SM   H4S12661   5.151   5.297   5.765 -1.0898  0.6391 -2.8760
   9423SM   C5S12662   5.353   5.342   5.773 -0.1060 -0.9407  0.1341
   9423SM   H5S12663   5.427   5.417   5.740  0.6690 -0.0133  3.5772
   9423SM   C6S12664   5.396   5.249   5.887 -0.1497 -0.1808 -0.3680
   9423SM   H6S12665   5.453   5.303   5.965  0.0846 -0.6988 -0.1726
   9423SM   H6T12666   5.466   5.171   5.849 -1.1744 -1.7888  0.8948
   9423SM   C7S12667   5.280   5.181   5.966  0.1858  0.5092  0.1107
   9423SM   H7S12668   5.210   5.138   5.891  1.0869  0.2456 -0.6009
   9423SM   H7T12669   5.220   5.258   6.018 -1.3715 -0.3989 -0.2712
   9423SM   C8S12670   5.321   5.087   6.081 -0.0656  0.2683 -0.2721
   9423SM   H8S12671   5.418   5.126   6.118 -0.4903  0.1061  1.1102
   9423SM   H8T12672   5.334   4.987   6.036 -1.4975  0.5024 -1.2671
   9423SM   C9S12673   5.227   5.085   6.201  0.0837 -0.1252  0.2688
   9423SM   H9S12674   5.142   5.024   6.162 -0.3869  0.4869  0.3259
   9423SM   H9T12675   5.194   5.184   6.239 -0.4166 -0.1992  0.0302
   9423SM  C10S12676   5.279   5.015   6.337 -0.1888  0.0639 -0.8244
   9423SM  H10S12677   5.276   4.907   6.312 -1.2040 -0.3001  0.7789
   9423SM  H10T12678   5.198   5.017   6.412 -0.1291 -1.1831 -0.7098
   9423SM  C11S12679   5.417   5.051   6.388  0.4212  0.6016  0.4175
   9423SM  H11S12680   5.423   5.158   6.420  0.7142  1.6839 -2.8995
   9423SM  H11T12681   5.495   5.045   6.310 -0.4967  2.1787 -0.6768
   9423SM  C12S12682   5.471   4.969   6.500  0.0569  0.0304 -0.3337
   9423SM  H12S12683   5.581   4.974   6.518 -0.0351 -0.3695  0.3799
   9423SM  H12T12684   5.448   4.862   6.481 -2.3422  0.0501  1.9591
   9423SM  C13S12685   5.400   4.998   6.629 -0.3399 -0.0739  0.0343
   9423SM  H13S12686   5.297   4.959   6.618 -1.0679  1.6630  0.3053
   9423SM  H13T12687   5.391   5.107   6.651 -3.3238 -0.1579 -0.4336
   9423SM  C14S12688   5.466   4.920   6.751  0.5547 -0.2406  1.4243
   9423SM  H14S12689   5.575   4.930   6.733  0.1580  0.4395 -1.0584
   9423SM  H14T12690   5.448   4.811   6.734 -0.5095  0.4471 -3.1252
   9423SM  C15S12691   5.427   4.968   6.895 -0.0259  0.8089  0.2518
   9423SM  H15S12692   5.491   4.900   6.955  1.6979  0.3017 -2.0537
   9423SM  H15T12693   5.319   4.956   6.918 -0.1960  2.4130  0.4061
   9423SM  C16S12694   5.475   5.109   6.929  0.0153 -0.1990 -0.7770
   9423SM  H16S12695   5.408   5.178   6.873 -1.7071 -1.5273 -0.4465
   9423SM  H16T12696   5.582   5.122   6.903  0.3746 -4.2352 -2.0018
   9423SM  C17S12697   5.461   5.132   7.081 -0.8348 -0.2824  0.1107
   9423SM  H17S12698   5.352   5.127   7.100 -0.3977 -0.2857  3.1847
   9423SM  H17T12699   5.481   5.241   7.091  0.7172 -0.3514 -1.6844
   9423SM  C18S12700   5.543   5.058   7.186 -0.2511 -0.2835 -0.2610
   9423SM  H18S12701   5.528   4.948   7.181  1.8590 -0.6698  0.7995
   9423SM  H18T12702   5.530   5.073   7.295  2.7830 -0.8545  0.2876
   9423SM  H18U12703   5.652   5.070   7.169 -0.3319  0.0126 -0.5769
   9423SM   C1F12704   4.991   5.648   5.868 -0.4058  0.0388  0.5726
   9423SM    OF12705   4.884   5.605   5.849  0.6210  0.0141  0.0062
   9423SM   C2F12706   5.023   5.723   5.991  0.1905 -0.2353 -0.4339
   9423SM   H2F12707   5.092   5.810   5.991 -0.5914  0.4474  1.5158
   9423SM   H2G12708   5.052   5.651   6.071 -1.9144 -0.4232  0.2216
   9423SM   C3F12709   4.894   5.784   6.048 -0.4985 -0.3578 -0.2356
   9423SM   H3F12710   4.806   5.717   6.066 -2.9891  3.0187  1.3073
   9423SM   H3G12711   4.866   5.849   5.963  4.3738 -1.0371 -2.7320
   9423SM   C4F12712   4.917   5.874   6.165  0.9135  0.2027  0.3677
   9423SM   H4F12713   4.816   5.917   6.182  1.0132 -0.2511  2.2994
   9423SM   H4G12714   4.985   5.959   6.142  2.2438 -1.1618 -0.9525
   9423SM   C5F12715   4.958   5.807   6.292  0.0841 -0.3418  0.0127
   9423SM   H5F12716   5.068   5.807   6.304  0.1328  2.7861  0.1930
   9423SM   H5G12717   4.914   5.705   6.293  0.0722 -0.3592 -0.9622
   9423SM   C6F12718   4.882   5.858   6.418  0.5171  0.1320  0.0842
   9423SM   H6F12719   4.772   5.851   6.422  0.3077  2.7227  0.7328
   9423SM   H6G12720   4.903   5.967   6.422 -1.1837  0.5032 -0.4782
   9423SM   C7F12721   4.943   5.787   6.544 -0.9179 -0.5732  0.1628
   9423SM   H7F12722   5.052   5.803   6.536 -0.9667 -0.7583 -1.0725
   9423SM   H7G12723   4.923   5.678   6.535 -3.2619 -0.1461 -0.4908
   9423SM   C8F12724   4.887   5.847   6.669  0.4445  0.7197 -0.2758
   9423SM   H8F12725   4.776   5.849   6.657  0.3588 -1.1904 -0.1321
   9423SM   H8G12726   4.909   5.955   6.683 -0.1688  0.9305 -0.8684
   9423SM   C9F12727   4.944   5.783   6.797  0.5826  0.1528 -1.1093
   9423SM   H9F12728   5.053   5.789   6.817  0.0228  2.9217  2.0181
   9423SM   H9G12729   4.917   5.675   6.797  0.2513  0.1792  1.5972
   9423SM  C10F12730   4.894   5.847   6.925  0.1752 -0.3781 -0.0230
   9423SM  H10F12731   4.788   5.815   6.926 -0.1197  0.4645 -1.2695
   9423SM  H10G12732   4.891   5.957   6.913 -0.7197 -0.5741 -2.0836
   9423SM  C11F12733   4.972   5.811   7.053  0.1744 -0.0829  0.2480
   9423SM  H11F12734   5.078   5.842   7.040 -0.0780  1.3129  1.2741
   9423SM  H11G12735   4.974   5.704   7.083 -0.7428 -0.3047 -0.4434
   9423SM  C12F12736   4.904   5.885   7.168 -0.0078 -0.2254 -0.5664
   9423SM  H12F12737   4.802   5.841   7.170  0.0037 -0.2802 -1.1040
   9423SM  H12G12738   4.875   5.989   7.142  0.5364 -0.3989 -1.9770
   9423SM  C13F12739   4.972   5.885   7.311 -0.3998 -0.1007 -0.5997
   9423SM  H13F12740   5.057   5.956   7.300  0.0458 -0.5275  0.0432
   9423SM  H13G12741   5.006   5.782   7.333  1.2643  0.7959  1.2256
   9423SM  C14F12742   4.869   5.912   7.423 -0.2563  0.2381 -0.0189
   9423SM  H14F12743   4.787   5.837   7.418 -0.5898  0.6448 -0.9374
   9423SM  H14G12744   4.826   6.012   7.398 -1.3424 -0.3480 -0.5685
   9423SM  C15F12745   4.922   5.911   7.572 -0.3644  0.5138  0.1691
   9423SM  H15F12746   4.834   5.907   7.639 -1.4592  2.3187 -1.0648
   9423SM  H15G12747   4.966   6.013   7.584 -1.7128  1.7126 -3.6060
   9423SM  C16F12748   5.026   5.798   7.604  0.4718 -0.5019 -0.2008
   9423SM  H16F12749   5.084   5.831   7.693  2.2039 -0.9691 -1.1149
   9423SM  H16G12750   5.102   5.777   7.526  0.4917  2.6553 -1.1655
   9423SM  C17F12751   4.952   5.665   7.631  0.6931  0.5379 -0.7538
   9423SM  H17F12752   5.021   5.579   7.641  1.8704  1.7531  4.0452
   9423SM  H17G12753   4.875   5.650   7.552  0.1139  1.2682 -0.3391
   9423SM  C18F12754   4.868   5.661   7.767  0.2080  0.0369 -0.1077
   9423SM  H18F12755   4.785   5.734   7.766 -0.1917 -0.2669  2.5409
   9423SM  H18G12756   4.933   5.690   7.853  2.4990 -0.2208 -1.6568
   9423SM  C19F12757   4.791   5.531   7.778  0.2674  0.3460  0.3022
   9423SM  H19F12758   4.852   5.443   7.747 -0.7366 -0.7280  1.2432
   9423SM  H19G12759   4.713   5.542   7.700 -0.9768 -2.0044  1.0807
   9423SM  C20F12760   4.726   5.508   7.914 -0.4957 -0.7524  0.5254
   9423SM  H20F12761   4.673   5.599   7.946 -0.3459 -0.9325  1.2975
   9423SM  H20G12762   4.811   5.495   7.984  0.3462  0.9849 -0.1088
   9423SM  C21F12763   4.643   5.387   7.917 -0.4210  0.1606  0.2850
   9423SM  H21F12764   4.712   5.300   7.916 -1.1968 -0.5038  1.9976
   9423SM  H21G12765   4.575   5.383   7.829 -2.2941 -0.0129  1.6842
   9423SM  C22F12766   4.562   5.374   8.048 -0.2281 -0.0642  0.0045
   9423SM  H22F12767   4.623   5.372   8.140  0.0789 -2.1191 -0.1957
   9423SM  H22G12768   4.510   5.275   8.047 -2.6556  1.1311 -1.6195
   9423SM  C23F12769   4.455   5.475   8.059  1.2071  0.0207  0.3695
   9423SM  H23F12770   4.483   5.582   8.052 -2.3593  0.9953 -2.1280
   9423SM  H23G12771   4.409   5.469   8.160  0.1863  0.7060 -0.0352
   9423SM  H23H12772   4.369   5.464   7.990  0.9811 -0.3438  0.7022
   9523SM     N12773   1.682   1.705   4.472  0.2280 -0.0589 -0.2768
   9523SM   C1512774   1.560   1.750   4.399 -0.2883 -0.3158  0.0852
   9523SM  H15A12775   1.554   1.696   4.305 -2.4891 -1.0087  0.5610
   9523SM  H15B12776   1.561   1.856   4.379 -0.1908 -0.2342  0.5118
   9523SM  H15C12777   1.476   1.721   4.460 -0.2087 -1.6440 -0.3988
   9523SM   C1412778   1.674   1.557   4.481 -0.5922  0.3044 -0.2776
   9523SM  H14A12779   1.664   1.508   4.385 -1.8548 -3.4160  1.5836
   9523SM  H14B12780   1.581   1.532   4.529 -1.5192 -1.2783 -2.7228
   9523SM  H14C12781   1.746   1.509   4.546 -0.1674  1.2613 -0.0103
   9523SM   C1312782   1.791   1.738   4.377  0.5532  0.3240  0.2772
   9523SM  H13A12783   1.891   1.723   4.415  0.8344  0.0183 -0.5373
   9523SM  H13B12784   1.795   1.843   4.351 -0.3943  0.3071  0.0202
   9523SM  H13C12785   1.786   1.671   4.292 -0.2162 -1.4970  1.6735
   9523SM   C1212786   1.689   1.781   4.595 -0.1658 -0.2520 -0.3536
   9523SM  H12A12787   1.652   1.881   4.582 -0.6544 -0.0447  2.1648
   9523SM  H12B12788   1.793   1.781   4.626 -0.0630  1.1228 -0.6184
   9523SM   C1112789   1.606   1.733   4.719  0.5597 -0.1470  0.5388
   9523SM  H11A12790   1.595   1.814   4.795 -1.6222 -1.0018  1.2003
   9523SM  H11B12791   1.660   1.648   4.766  0.4446 -1.0785 -0.9542
   9523SM     P12792   1.367   1.611   4.727  0.5645  0.0241 -0.0697
   9523SM   O1312793   1.239   1.636   4.663 -0.2372  0.4479  0.1280
   9523SM   O1412794   1.426   1.475   4.734 -0.2997  0.5878 -0.5706
   9523SM   O1112795   1.361   1.668   4.874 -0.0161 -0.2131  0.0847
   9523SM   O1212796   1.474   1.708   4.673 -0.0431 -0.1138  0.1800
   9523SM   C1S12797   1.376   1.576   4.980 -0.3084  0.9965  0.1891
   9523SM   H1S12798   1.460   1.505   4.967 -0.1222  1.0129  1.2094
   9523SM   H1T12799   1.285   1.513   4.985  0.1991  0.1319 -0.9679
   9523SM    NF12800   1.393   1.525   5.224 -0.1367 -0.1469 -0.1553
   9523SM   HNF12801   1.308   1.489   5.262 -1.1978  2.4195  0.0858
   9523SM   C2S12802   1.382   1.633   5.119  0.4412  0.7208 -0.7256
   9523SM   H2S12803   1.466   1.705   5.108 -1.1583  2.4926 -1.9928
   9523SM   C3S12804   1.247   1.723   5.148 -0.1759  0.9191  1.2125
   9523SM   H3S12805   1.159   1.658   5.127  0.6025  0.8468 -2.6002
   9523SM    O312806   1.226   1.825   5.051  0.1468 -0.3126 -0.0363
   9523SM   HO312807   1.263   1.793   4.969 -0.5788 -0.1830 -0.4214
   9523SM   C4S12808   1.239   1.780   5.288 -1.2166 -0.4750  0.3344
   9523SM   H4S12809   1.180   1.714   5.353 -0.9992 -0.1553  0.8588
   9523SM   C5S12810   1.291   1.901   5.329  0.5446 -0.2135 -0.2421
   9523SM   H5S12811   1.347   1.963   5.258  0.0110 -0.8338 -1.2358
   9523SM   C6S12812   1.282   1.952   5.470 -0.5418  0.2923  0.0491
   9523SM   H6S12813   1.192   2.010   5.499 -2.2616 -2.1845 -0.0264
   9523SM   H6T12814   1.376   2.003   5.498  0.0651 -0.8770  0.2041
   9523SM   C7S12815   1.269   1.834   5.570  0.1004 -0.3827  0.3025
   9523SM   H7S12816   1.356   1.766   5.556  0.7817  0.7401 -1.1586
   9523SM   H7T12817   1.168   1.800   5.540  0.6887 -0.3955 -1.8257
   9523SM   C8S12818   1.283   1.884   5.720 -0.2441  0.0921  0.0401
   9523SM   H8S12819   1.204   1.960   5.738 -0.7232 -0.6181  1.0077
   9523SM   H8T12820   1.379   1.939   5.728 -0.6606  0.8318  0.0529
   9523SM   C9S12821   1.283   1.776   5.837 -0.3374  0.2709 -0.5539
   9523SM   H9S12822   1.385   1.735   5.848 -1.4524 -2.0379  2.4202
   9523SM   H9T12823   1.224   1.690   5.799  0.4125 -0.2840 -0.4879
   9523SM  C10S12824   1.235   1.833   5.967  0.1960 -1.4483  0.6790
   9523SM  H10S12825   1.132   1.867   5.946  1.0795 -0.1461 -1.8485
   9523SM  H10T12826   1.293   1.925   5.989 -0.2199 -0.9105 -0.4210
   9523SM  C11S12827   1.241   1.742   6.093  0.3729  0.0858 -0.3226
   9523SM  H11S12828   1.340   1.691   6.095  1.0708  1.4207 -0.1497
   9523SM  H11T12829   1.160   1.666   6.088 -0.3925  0.8876 -0.3180
   9523SM  C12S12830   1.217   1.822   6.217 -1.2983  0.5558 -0.7225
   9523SM  H12S12831   1.133   1.892   6.195 -1.2320  1.6490  2.0795
   9523SM  H12T12832   1.311   1.878   6.232 -1.3503  0.4881 -0.1385
   9523SM  C13S12833   1.201   1.740   6.338 -0.2230  0.0366  0.3089
   9523SM  H13S12834   1.276   1.660   6.353  0.8531  0.7590 -0.9435
   9523SM  H13T12835   1.103   1.689   6.326 -0.2953  0.3387 -0.4762
   9523SM  C14S12836   1.192   1.810   6.475 -0.6882 -0.1463 -0.1977
   9523SM  H14S12837   1.103   1.877   6.476 -0.3151  0.5105 -2.7613
   9523SM  H14T12838   1.293   1.853   6.492 -0.2453 -1.1387 -0.2220
   9523SM  C15S12839   1.156   1.716   6.598  0.9628 -0.8957 -0.1610
   9523SM  H15S12840   1.227   1.630   6.601  2.1459  0.0696  1.2040
   9523SM  H15T12841   1.056   1.674   6.576 -0.1807  1.6699 -0.1980
   9523SM  C16S12842   1.162   1.796   6.734  0.1247 -0.0625 -0.0384
   9523SM  H16S12843   1.095   1.884   6.725 -1.3935 -1.3071 -1.5063
   9523SM  H16T12844   1.269   1.820   6.753  0.2666 -1.7075  1.4439
   9523SM  C17S12845   1.111   1.717   6.849 -0.4431  0.3566  0.0332
   9523SM  H17S12846   1.167   1.625   6.878  0.2571 -0.0355 -2.3973
   9523SM  H17T12847   1.014   1.669   6.828 -0.7491  0.0174  2.0055
   9523SM  C18S12848   1.092   1.803   6.970  0.4902 -0.8088 -0.3365
   9523SM  H18S12849   1.016   1.880   6.949 -0.0921 -1.5696 -1.0840
   9523SM  H18T12850   1.184   1.864   6.987  0.1792 -0.6703  0.9844
   9523SM  H18U12851   1.067   1.751   7.065 -1.1515 -1.4744 -1.0885
   9523SM   C1F12852   1.508   1.459   5.237  0.3188  0.1150 -0.4647
   9523SM    OF12853   1.603   1.503   5.181 -0.0765 -0.5125 -1.0484
   9523SM   C2F12854   1.504   1.333   5.320 -0.0081 -0.1134 -0.8475
   9523SM   H2F12855   1.574   1.259   5.275  0.7404  0.4699 -0.6699
   9523SM   H2G12856   1.403   1.289   5.335 -0.3325  1.0700  0.6935
   9523SM   C3F12857   1.554   1.367   5.463  0.5506  0.1748 -0.2042
   9523SM   H3F12858   1.652   1.418   5.466  1.3657 -1.3589  0.7798
   9523SM   H3G12859   1.575   1.273   5.519  0.8447  0.9523  1.0389
   9523SM   C4F12860   1.459   1.462   5.544  0.3841 -0.3985  0.0269
   9523SM   H4F12861   1.362   1.418   5.577  0.2320  0.5156  0.8248
   9523SM   H4G12862   1.431   1.552   5.485  0.4363 -1.1803 -1.2350
   9523SM   C5F12863   1.527   1.514   5.670  0.1083 -0.1241 -0.2740
   9523SM   H5F12864   1.471   1.608   5.691 -0.3283 -0.1857 -1.1467
   9523SM   H5G12865   1.635   1.540   5.662  0.4796 -0.9072  1.6025
   9523SM   C6F12866   1.510   1.425   5.794 -0.4430  0.6753  0.2987
   9523SM   H6F12867   1.558   1.326   5.780 -0.9719 -0.2235  3.8453
   9523SM   H6G12868   1.401   1.404   5.804 -0.7677  1.4760 -1.3017
   9523SM   C7F12869   1.560   1.483   5.926 -0.0713  0.0547  0.1732
   9523SM   H7F12870   1.530   1.589   5.939 -2.9799 -0.6648 -0.0123
   9523SM   H7G12871   1.670   1.475   5.940  0.1228  0.8060 -0.7947
   9523SM   C8F12872   1.512   1.407   6.051  0.2159  0.0829 -0.5302
   9523SM   H8F12873   1.549   1.303   6.062 -1.6474 -0.5366  0.1773
   9523SM   H8G12874   1.401   1.402   6.057  0.0947  0.4071 -2.0995
   9523SM   C9F12875   1.550   1.479   6.180 -0.4260  0.1000 -0.2622
   9523SM   H9F12876   1.504   1.580   6.187  0.8229  0.7727 -1.3753
   9523SM   H9G12877   1.661   1.482   6.176 -0.4362  0.6481 -0.2226
   9523SM  C10F12878   1.521   1.390   6.305 -0.2916  0.5094 -0.1549
   9523SM  H10F12879   1.582   1.297   6.302  0.3266  0.9247 -1.8239
   9523SM  H10G12880   1.415   1.356   6.296  0.2561 -1.8323  1.3434
   9523SM  C11F12881   1.536   1.466   6.435  1.0319 -0.1454 -0.0152
   9523SM  H11F12882   1.445   1.531   6.440  0.3088 -0.8845 -2.1509
   9523SM  H11G12883   1.626   1.531   6.440  0.5979  0.5697 -1.1823
   9523SM  C12F12884   1.530   1.366   6.550 -0.0942  0.0252  0.3457
   9523SM  H12F12885   1.626   1.310   6.545  0.6386  1.3237 -1.2826
   9523SM  H12G12886   1.452   1.287   6.540  0.9193 -1.0183  0.4188
   9523SM  C13F12887   1.516   1.440   6.681 -0.4770  0.1717 -0.3059
   9523SM  H13F12888   1.434   1.515   6.670 -0.9550 -0.1026  1.2053
   9523SM  H13G12889   1.611   1.498   6.685  1.3213 -2.5481 -1.1628
   9523SM  C14F12890   1.490   1.349   6.796 -0.1290 -0.5465 -0.4527
   9523SM  H14F12891   1.584   1.290   6.802  1.0893  1.4223  0.7497
   9523SM  H14G12892   1.401   1.286   6.775 -1.9418  1.4627  0.7957
   9523SM  C15F12893   1.446   1.434   6.928 -0.1552  0.4745  0.7327
   9523SM  H15F12894   1.356   1.496   6.904 -0.8484 -1.3453 -1.8109
   9523SM  H15G12895   1.540   1.487   6.950  1.0627 -0.7133 -1.2670
   9523SM  C16F12896   1.404   1.338   7.046  0.4774  0.0691  0.0730
   9523SM  H16F12897   1.343   1.249   7.021 -0.2606  0.1273  1.5205
   9523SM  H16G12898   1.335   1.402   7.105  0.4858  0.9406 -0.8447
   9523SM  C17F12899   1.517   1.300   7.129 -1.0380  0.2539  0.3085
   9523SM  H17F12900   1.566   1.396   7.159  3.4480 -1.2979 -1.1584
   9523SM  H17G12901   1.594   1.240   7.076 -1.5062 -0.4772  0.4445
   9523SM  C18F12902   1.467   1.228   7.255 -0.3271  0.2191 -0.1167
   9523SM  H18F12903   1.438   1.121   7.247  0.1405  0.1548 -1.1710
   9523SM  H18G12904   1.374   1.273   7.295 -0.3609 -0.5986  0.7487
   9523SM  C19F12905   1.560   1.239   7.378 -0.2133  0.0741  0.1415
   9523SM  H19F12906   1.559   1.345   7.414  3.2288  0.1261  0.3586
   9523SM  H19G12907   1.665   1.214   7.355 -0.3877  0.3820 -1.0296
   9523SM  C20F12908   1.512   1.156   7.503 -0.1444 -0.3940  0.1182
   9523SM  H20F12909   1.510   1.046   7.497 -0.6665 -0.4335  0.9078
   9523SM  H20G12910   1.414   1.203   7.525  0.7361  1.5867  0.0827
   9523SM  C21F12911   1.605   1.193   7.627 -0.5844 -0.2053  0.2578
   9523SM  H21F12912   1.613   1.303   7.642  0.2036  0.0342 -1.6490
   9523SM  H21G12913   1.706   1.154   7.606 -0.9158 -1.0796  0.2439
   9523SM  C22F12914   1.561   1.135   7.759  0.0583 -0.4354 -0.4050
   9523SM  H22F12915   1.513   1.037   7.736 -0.5388  0.0279 -1.1670
   9523SM  H22G12916   1.472   1.197   7.784 -0.7478  0.1334 -4.0294
   9523SM  C23F12917   1.664   1.114   7.871  0.0949 -0.7079 -0.1809
   9523SM  H23F12918   1.738   1.196   7.877 -0.5129 -0.1648  0.1196
   9523SM  H23G12919   1.714   1.019   7.843 -0.4577 -1.0194 -0.1381
   9523SM  H23H12920   1.613   1.113   7.970  1.4793  2.6229  0.6853
   9623SM     N12921   3.201   0.202   4.780 -0.1498  0.1071 -0.0266
   9623SM   C1512922   3.238   0.318   4.689  0.0262 -0.2405 -0.0986
   9623SM  H15A12923   3.321   0.372   4.733 -0.1063 -2.2164  2.8980
   9623SM  H15B12924   3.165   0.392   4.662  0.0142  0.1005  0.8096
   9623SM  H15C12925   3.272   0.274   4.597 -1.3077 -0.9127 -0.2885
   9623SM   C1412926   3.087   0.138   4.715  1.1997 -0.2296 -0.1662
   9623SM  H14A12927   3.014   0.218   4.707  0.4928 -1.0283 -2.7059
   9623SM  H14B12928   3.055   0.055   4.777  1.5197  1.3551  2.2632
   9623SM  H14C12929   3.107   0.107   4.613 -2.2130 -0.4585 -0.9105
   9623SM   C1312930   3.322   0.108   4.763  0.0440  0.2319 -0.1794
   9623SM  H13A12931   3.318   0.024   4.829 -1.6429 -1.3444 -2.1492
   9623SM  H13B12932   3.412   0.165   4.781  0.0696 -0.1467  0.9296
   9623SM  H13C12933   3.326   0.076   4.660 -2.6330  0.6867 -0.5124
   9623SM   C1212934   3.184   0.251   4.919  0.1980  0.5970 -0.1510
   9623SM  H12A12935   3.095   0.312   4.926  0.1595  0.4359  0.8456
   9623SM  H12B12936   3.263   0.319   4.946  0.5306 -0.1183  0.7189
   9623SM   C1112937   3.181   0.138   5.029  0.7425  0.2399  0.4672
   9623SM  H11A12938   3.092   0.078   5.000 -0.9544  2.8377 -0.0985
   9623SM  H11B12939   3.137   0.184   5.120 -3.9470 -0.5700 -1.0808
   9623SM     P12940   3.390   0.084   5.164 -0.1804 -0.0834  0.2200
   9623SM   O1312941   3.495  -0.020   5.166 -0.6640  0.1767  0.5630
   9623SM   O1412942   3.432   0.223   5.167 -0.3636  0.2039 -0.4314
   9623SM   O1112943   3.284   0.060   5.285  0.3666 -0.0736 -0.1137
   9623SM   O1212944   3.302   0.065   5.035  0.4199 -0.0090  0.4248
   9623SM   C1S12945   3.323  -0.042   5.376  0.6086  0.3392  0.6293
   9623SM   H1S12946   3.431  -0.027   5.397  0.5985 -0.0006  0.9280
   9623SM   H1T12947   3.321  -0.137   5.319 -0.9410  0.4793  0.4020
   9623SM    NF12948   3.320  -0.138   5.594 -0.1267  0.1258 -0.4747
   9623SM   HNF12949   3.293  -0.233   5.607  0.2120 -0.1826 -1.8819
   9623SM   C2S12950   3.243  -0.055   5.502 -0.5917 -0.0004  0.5368
   9623SM   H2S12951   3.224   0.041   5.555  0.3312  0.4517  0.0686
   9623SM   C3S12952   3.101  -0.099   5.468  0.3539  0.7063  0.3866
   9623SM   H3S12953   3.113  -0.201   5.425  0.3723  0.2787  1.3859
   9623SM    O312954   3.023  -0.033   5.370 -0.3314  0.4049 -0.0137
   9623SM   HO312955   3.087   0.007   5.310 -0.3205 -0.3388 -0.5030
   9623SM   C4S12956   3.021  -0.109   5.590  0.6578 -0.0772  0.3961
   9623SM   H4S12957   2.993  -0.009   5.626 -0.4410 -0.9074  1.9539
   9623SM   C5S12958   2.953  -0.209   5.648 -0.3983  0.3483 -0.9060
   9623SM   H5S12959   2.966  -0.304   5.593 -0.3981  2.3079 -4.6085
   9623SM   C6S12960   2.859  -0.206   5.763 -0.2664 -0.0354  0.1043
   9623SM   H6S12961   2.870  -0.305   5.812  0.3005 -1.6277 -2.9785
   9623SM   H6T12962   2.754  -0.192   5.731 -0.1107 -0.0150 -0.3997
   9623SM   C7S12963   2.900  -0.089   5.865  0.2465 -0.2578  0.7351
   9623SM   H7S12964   2.887   0.004   5.805 -1.2135 -1.1162 -0.3659
   9623SM   H7T12965   3.007  -0.101   5.889  1.1190  0.5636 -2.2719
   9623SM   C8S12966   2.820  -0.092   6.002  0.2275 -0.8771 -0.4931
   9623SM   H8S12967   2.846  -0.183   6.060  2.7836 -1.6680 -2.6255
   9623SM   H8T12968   2.711  -0.081   5.985  0.8839  5.1130 -3.5384
   9623SM   C9S12969   2.868   0.033   6.081  0.0907  0.3471  0.1747
   9623SM   H9S12970   2.832   0.123   6.027  1.3943  0.5341 -0.4351
   9623SM   H9T12971   2.977   0.018   6.095  0.2922  1.2325 -0.3658
   9623SM  C10S12972   2.801   0.045   6.218  0.4206  0.0881 -0.0869
   9623SM  H10S12973   2.813  -0.044   6.283  0.3692 -0.6228 -1.0395
   9623SM  H10T12974   2.692   0.056   6.199  0.2253 -2.9913 -1.3817
   9623SM  C11S12975   2.856   0.172   6.286 -0.1212  0.3783  0.4647
   9623SM  H11S12976   2.842   0.252   6.210  2.6546  0.3532 -0.1839
   9623SM  H11T12977   2.966   0.167   6.299 -0.0809  0.1062  0.0445
   9623SM  C12S12978   2.783   0.225   6.413 -0.0635  0.4940  0.4634
   9623SM  H12S12979   2.802   0.167   6.506 -0.1274 -1.0035 -0.4314
   9623SM  H12T12980   2.674   0.209   6.397 -0.0368  1.7330 -1.1377
   9623SM  C13S12981   2.796   0.373   6.434  0.5994 -0.2133 -0.2988
   9623SM  H13S12982   2.754   0.438   6.354 -0.0782  1.6855  1.4941
   9623SM  H13T12983   2.903   0.405   6.434  0.4189  0.4412  0.3617
   9623SM  C14S12984   2.739   0.407   6.567 -0.6157 -0.9848 -0.3855
   9623SM  H14S12985   2.792   0.344   6.641  0.6100  0.2410 -0.1849
   9623SM  H14T12986   2.630   0.385   6.560 -0.7289 -0.5189 -0.1190
   9623SM  C15S12987   2.755   0.561   6.610 -0.1973  0.4054  0.8058
   9623SM  H15S12988   2.689   0.624   6.546  0.5559  0.3315 -0.0614
   9623SM  H15T12989   2.858   0.595   6.586  0.3192 -0.6272  1.4433
   9623SM  C16S12990   2.728   0.580   6.759 -0.0372 -0.0044 -0.2212
   9623SM  H16S12991   2.790   0.512   6.822 -1.3266 -0.8955  0.1253
   9623SM  H16T12992   2.624   0.551   6.785  0.4768 -1.9500 -0.1419
   9623SM  C17S12993   2.751   0.726   6.801 -0.3758  0.4378 -0.3167
   9623SM  H17S12994   2.851   0.750   6.758 -1.3124  1.4206 -2.0720
   9623SM  H17T12995   2.737   0.735   6.911  1.8931 -0.8465  0.1266
   9623SM  C18S12996   2.661   0.832   6.731  0.2028  0.1624 -0.4073
   9623SM  H18S12997   2.556   0.814   6.763  0.9337 -1.6583  1.1771
   9623SM  H18T12998   2.665   0.822   6.620  0.8890 -0.0935 -0.3627
   9623SM  H18U12999   2.687   0.935   6.763 -0.7769  0.2589  0.1100
   9623SM   C1F13000   3.434  -0.090   5.649 -0.3695 -0.6066 -0.0799
   9623SM    OF13001   3.493   0.018   5.616  0.7524  0.4758  0.0512
   9623SM   C2F13002   3.488  -0.169   5.762 -0.8759  0.2422  0.3701
   9623SM   H2F13003   3.489  -0.277   5.735  0.5391  0.2188  0.4664
   9623SM   H2G13004   3.436  -0.156   5.859 -0.1015  1.2788  0.6629
   9623SM   C3F13005   3.639  -0.132   5.777 -0.3244  0.2097  0.3577
   9623SM   H3F13006   3.645  -0.021   5.779 -1.3001  0.3012 -0.8315
   9623SM   H3G13007   3.702  -0.159   5.690 -1.3511 -0.0746 -0.3176
   9623SM   C4F13008   3.703  -0.200   5.898 -0.7215  0.0626 -0.1726
   9623SM   H4F13009   3.814  -0.188   5.895 -0.2706 -1.9002  3.0684
   9623SM   H4G13010   3.685  -0.310   5.897 -0.3056 -0.0179  0.3219
   9623SM   C5F13011   3.670  -0.145   6.039  0.4720  0.0760  0.1039
   9623SM   H5F13012   3.560  -0.151   6.055  0.3215  2.6606  0.6082
   9623SM   H5G13013   3.706  -0.040   6.051  0.0702  0.3497 -0.9576
   9623SM   C6F13014   3.733  -0.228   6.154 -0.0690 -0.5683  0.3075
   9623SM   H6F13015   3.842  -0.226   6.132 -0.0419 -0.0919  0.4767
   9623SM   H6G13016   3.706  -0.335   6.146  0.8052 -0.7246 -0.7818
   9623SM   C7F13017   3.711  -0.156   6.288  0.1605  0.2229  0.5173
   9623SM   H7F13018   3.605  -0.164   6.321  0.3358 -2.1562  0.6976
   9623SM   H7G13019   3.733  -0.047   6.283  0.2392  0.2266  0.9359
   9623SM   C8F13020   3.802  -0.216   6.403  0.3913 -0.0286  0.8699
   9623SM   H8F13021   3.893  -0.255   6.351 -0.9256 -2.8506  0.4642
   9623SM   H8G13022   3.747  -0.307   6.436 -2.3188  1.0709 -0.4008
   9623SM   C9F13023   3.849  -0.112   6.514 -0.2603 -0.4232 -0.3086
   9623SM   H9F13024   3.915  -0.039   6.463 -0.5539 -1.4527 -2.2886
   9623SM   H9G13025   3.919  -0.155   6.587  2.4767 -1.1119 -3.1291
   9623SM  C10F13026   3.735  -0.040   6.581  0.3777  0.6524 -0.0126
   9623SM  H10F13027   3.666  -0.006   6.501 -0.3506  0.0123  0.3335
   9623SM  H10G13028   3.766   0.053   6.634  0.1335  0.2013  0.9336
   9623SM  C11F13029   3.673  -0.124   6.696 -0.0429 -0.2406  0.2901
   9623SM  H11F13030   3.757  -0.142   6.767  2.1110  0.8511 -1.8376
   9623SM  H11G13031   3.628  -0.215   6.651 -0.1572 -0.3692  0.6645
   9623SM  C12F13032   3.550  -0.054   6.746 -0.0135  0.0022  0.2887
   9623SM  H12F13033   3.487  -0.133   6.793  0.1244 -0.2851 -0.0003
   9623SM  H12G13034   3.479  -0.028   6.664  0.7559 -0.2217 -0.4695
   9623SM  C13F13035   3.574   0.066   6.839  0.2361  0.1985  0.3160
   9623SM  H13F13036   3.473   0.095   6.876 -0.5221 -1.3093 -0.4861
   9623SM  H13G13037   3.615   0.148   6.776 -1.7634  0.2509 -0.9991
   9623SM  C14F13038   3.662   0.053   6.960  0.1620  0.1789 -0.0235
   9623SM  H14F13039   3.649   0.149   7.013  0.5945  1.3867 -1.9928
   9623SM  H14G13040   3.770   0.035   6.943  0.0481 -3.0628  1.8949
   9623SM  C15F13041   3.609  -0.060   7.056  0.2006  0.4331  0.0983
   9623SM  H15F13042   3.678  -0.103   7.131 -1.3041  2.2254  2.6938
   9623SM  H15G13043   3.590  -0.143   6.984  3.1206  0.0584 -0.3505
   9623SM  C16F13044   3.486  -0.017   7.139  0.1214 -0.6313  0.2238
   9623SM  H16F13045   3.412   0.011   7.061  0.5306 -1.0435 -0.3186
   9623SM  H16G13046   3.511   0.069   7.205  0.0398 -1.5957  1.5578
   9623SM  C17F13047   3.426  -0.128   7.226  0.4330 -0.3857  0.7547
   9623SM  H17F13048   3.510  -0.171   7.285 -0.2589 -1.6409  0.8587
   9623SM  H17G13049   3.381  -0.205   7.160  1.6235 -0.7163  0.3077
   9623SM  C18F13050   3.327  -0.063   7.326  0.4714  0.4360 -0.2645
   9623SM  H18F13051   3.236  -0.051   7.263  1.2114  1.9113 -1.1066
   9623SM  H18G13052   3.357   0.039   7.359 -0.5796  0.2891  1.2701
   9623SM  C19F13053   3.302  -0.150   7.448 -0.1708  0.5421 -0.2614
   9623SM  H19F13054   3.395  -0.154   7.508  1.6455 -0.6197 -2.9453
   9623SM  H19G13055   3.284  -0.255   7.415  1.1072  0.3785 -0.5147
   9623SM  C20F13056   3.175  -0.112   7.532  0.4841  0.3261  0.1915
   9623SM  H20F13057   3.082  -0.112   7.469  0.3290  0.2632  0.4197
   9623SM  H20G13058   3.187  -0.010   7.574  0.8039 -0.0467  1.0148
   9623SM  C21F13059   3.151  -0.210   7.649  0.4477  0.2433  0.1721
   9623SM  H21F13060   3.243  -0.235   7.707  0.1508 -0.5692  0.3148
   9623SM  H21G13061   3.112  -0.305   7.607 -0.4816  0.6002  0.2024
   9623SM  C22F13062   3.043  -0.151   7.736  0.2955  0.5453  0.0449
   9623SM  H22F13063   2.953  -0.168   7.673  0.5890  1.5589 -0.6570
   9623SM  H22G13064   3.043  -0.042   7.752  1.9831  0.8353 -1.6252
   9623SM  C23F13065   3.011  -0.228   7.860  0.2256 -0.1854  0.0792
   9623SM  H23F13066   2.941  -0.167   7.921  2.2540  1.3579  1.0041
   9623SM  H23G13067   3.100  -0.243   7.925  2.2350  3.8651 -1.3554
   9623SM  H23H13068   2.967  -0.326   7.835 -0.6420  0.4258 -0.8796
   9723SM     N13069   4.108   6.270   5.522  0.2322 -0.2755  0.2292
   9723SM   C1513070   3.967   6.227   5.528  1.2747 -0.8792  0.5588
   9723SM  H15A13071   3.966   6.128   5.572 -0.6295 -0.4666  1.5105
   9723SM  H15B13072   3.926   6.200   5.432 -1.5721  1.7594  0.9064
   9723SM  H15C13073   3.894   6.296   5.567  0.1103 -0.6127 -1.8702
   9723SM   C1413074   4.151   6.306   5.656  0.0678  0.3511 -0.1367
   9723SM  H14A13075   4.137   6.228   5.730  1.7503  2.5708  2.7508
   9723SM  H14B13076   4.093   6.395   5.674  0.0201  0.9781 -2.9644
   9723SM  H14C13077   4.256   6.332   5.660 -0.1417  1.1504  0.3397
   9723SM   C1313078   4.198   6.158   5.476 -0.4404 -0.1260  0.3136
   9723SM  H13A13079   4.177   6.138   5.372  0.5115 -2.6649  0.5354
   9723SM  H13B13080   4.181   6.064   5.527  0.8423  0.5206  2.0108
   9723SM  H13C13081   4.301   6.188   5.481 -0.3106 -0.7262  1.7485
   9723SM   C1213082   4.116   6.395   5.439 -0.1268 -0.7967  0.4808
   9723SM  H12A13083   4.217   6.434   5.442  0.2181 -1.7071  0.8174
   9723SM  H12B13084   4.064   6.477   5.487  1.0625 -0.2186  0.8202
   9723SM   C1113085   4.087   6.376   5.292 -0.4692 -0.3578 -0.1024
   9723SM  H11A13086   3.978   6.365   5.277 -0.3010  0.4556 -2.2169
   9723SM  H11B13087   4.130   6.281   5.254  0.1544  0.1863 -0.7857
   9723SM     P13088   4.046   6.624   5.223  0.2662  0.1129 -0.0711
   9723SM   O1313089   4.092   6.711   5.112 -0.7757  0.0958 -0.2797
   9723SM   O1413090   3.905   6.578   5.232 -0.9700 -0.1620  0.2451
   9723SM   O1113091   4.096   6.684   5.363  0.3131  0.2340  0.3189
   9723SM   O1213092   4.138   6.489   5.228 -0.5977  0.2447  0.5870
   9723SM   C1S13093   4.032   6.803   5.400 -0.2429  0.4132 -0.1665
   9723SM   H1S13094   3.945   6.781   5.466  1.1251 -0.2868  1.4605
   9723SM   H1T13095   4.015   6.872   5.314  0.5509 -2.1345 -2.4971
   9723SM    NF13096   4.047   6.978   5.585 -0.0600  0.1080  0.5174
   9723SM   HNF13097   4.047   7.069   5.545 -0.4247 -0.3081 -0.4764
   9723SM   C2S13098   4.123   6.867   5.511 -0.4999 -0.6583  0.0720
   9723SM   H2S13099   4.147   6.777   5.572  0.3796 -1.4694 -1.4124
   9723SM   C3S13100   4.259   6.916   5.453  0.8315 -0.4019 -0.0768
   9723SM   H3S13101   4.244   6.991   5.373  0.4729 -0.0276  0.3331
   9723SM    O313102   4.343   6.809   5.403 -0.4002 -0.1076 -0.0412
   9723SM   HO313103   4.278   6.739   5.395 -0.6406 -0.1393  1.8799
   9723SM   C4S13104   4.329   7.006   5.556 -0.0336 -0.3435 -0.3564
   9723SM   H4S13105   4.345   7.110   5.523  0.9903 -0.7779 -1.2826
   9723SM   C5S13106   4.386   6.962   5.671  0.3857 -0.3374 -0.0906
   9723SM   H5S13107   4.354   6.861   5.702 -2.9672 -0.1154 -2.2538
   9723SM   C6S13108   4.425   7.056   5.784 -0.4817 -0.4562 -0.4433
   9723SM   H6S13109   4.536   7.066   5.790 -0.4915 -0.7997  0.6396
   9723SM   H6T13110   4.405   6.993   5.874 -0.1576  0.4826  0.2973
   9723SM   C7S13111   4.361   7.190   5.800  0.2975 -0.1275 -0.3918
   9723SM   H7S13112   4.252   7.183   5.780  0.5098 -3.4685 -0.9360
   9723SM   H7T13113   4.398   7.253   5.716 -0.0653  0.7119  0.0603
   9723SM   C8S13114   4.382   7.276   5.930  0.5954  0.0341  0.0908
   9723SM   H8S13115   4.329   7.372   5.915 -1.2686 -1.0706 -0.6929
   9723SM   H8T13116   4.491   7.299   5.935  0.4213  1.1922 -0.8285
   9723SM   C9S13117   4.335   7.202   6.051  0.3418  0.4113 -0.2452
   9723SM   H9S13118   4.393   7.107   6.050  0.4877  0.4986 -1.0460
   9723SM   H9T13119   4.233   7.159   6.049  0.8115 -1.3824  4.1175
   9723SM  C10S13120   4.333   7.283   6.184 -0.7063 -0.5912  0.1855
   9723SM  H10S13121   4.250   7.356   6.169  0.2400  0.2125 -1.3640
   9723SM  H10T13122   4.429   7.337   6.189 -0.0801 -1.6327 -0.2533
   9723SM  C11S13123   4.302   7.192   6.304  0.5629 -0.4685  0.3758
   9723SM  H11S13124   4.386   7.124   6.332  0.1789 -1.8112 -1.5763
   9723SM  H11T13125   4.217   7.127   6.273 -0.0822  1.3326 -1.8706
   9723SM  C12S13126   4.275   7.266   6.440  0.5818  0.0718 -0.7673
   9723SM  H12S13127   4.189   7.336   6.435 -0.6297 -1.4423 -2.4523
   9723SM  H12T13128   4.372   7.313   6.464  0.7823 -0.9733  0.5960
   9723SM  C13S13129   4.236   7.170   6.550  0.2183 -0.5201 -0.6456
   9723SM  H13S13130   4.314   7.091   6.559  0.2350 -0.3453  1.0200
   9723SM  H13T13131   4.134   7.134   6.525 -1.2011  3.3995 -1.1309
   9723SM  C14S13132   4.226   7.255   6.679 -0.0424  0.7422  0.0473
   9723SM  H14S13133   4.142   7.327   6.664 -0.6714  0.1393  0.5756
   9723SM  H14T13134   4.315   7.317   6.701 -0.0438 -0.0150  2.5567
   9723SM  C15S13135   4.191   7.179   6.810 -0.4778  0.3687  0.3106
   9723SM  H15S13136   4.196   7.248   6.897 -0.2407 -0.1295  0.6930
   9723SM  H15T13137   4.278   7.111   6.822  0.1925  1.3503  1.2326
   9723SM  C16S13138   4.074   7.082   6.807  0.3514  0.1821 -0.1788
   9723SM  H16S13139   4.061   7.022   6.900  0.0799 -0.5450 -0.6736
   9723SM  H16T13140   4.096   7.012   6.723 -0.7191  0.3289 -0.5941
   9723SM  C17S13141   3.939   7.154   6.785  0.0602 -0.0609 -0.1354
   9723SM  H17S13142   3.865   7.077   6.753 -0.9337  0.5801  0.5651
   9723SM  H17T13143   3.942   7.226   6.701  1.0336 -0.0817 -0.1339
   9723SM  C18S13144   3.881   7.230   6.909 -0.0529 -0.0191  0.4987
   9723SM  H18S13145   3.878   7.159   6.995 -0.1044  0.5548  0.9776
   9723SM  H18T13146   3.777   7.266   6.894  0.3219  1.2750  0.9251
   9723SM  H18U13147   3.939   7.320   6.938 -1.3714  0.4144  1.9020
   9723SM   C1F13148   3.961   6.953   5.679 -0.1041 -0.1842  0.2583
   9723SM    OF13149   3.948   6.841   5.734  0.3793 -0.1167  0.0995
   9723SM   C2F13150   3.874   7.067   5.706 -0.2048 -0.1129 -1.1597
   9723SM   H2F13151   3.791   7.063   5.632 -0.3906  3.4785 -1.3435
   9723SM   H2G13152   3.918   7.167   5.685  1.3993 -0.7158 -0.7855
   9723SM   C3F13153   3.812   7.071   5.853 -0.2834 -0.2138 -0.3200
   9723SM   H3F13154   3.741   6.986   5.866 -0.8291  0.3745  0.7239
   9723SM   H3G13155   3.752   7.164   5.853  1.6312  1.0735 -1.2228
   9723SM   C4F13156   3.906   7.060   5.968 -0.4566  0.3660 -0.1221
   9723SM   H4F13157   3.974   7.147   5.955 -0.1044  0.1501  0.2656
   9723SM   H4G13158   3.965   6.967   5.976 -2.1646 -0.8391 -0.8233
   9723SM   C5F13159   3.833   7.090   6.100  0.0937 -0.5085 -0.8879
   9723SM   H5F13160   3.748   7.018   6.102 -0.7261  0.4384  1.6385
   9723SM   H5G13161   3.792   7.194   6.096 -1.2977 -1.0272 -0.7866
   9723SM   C6F13162   3.916   7.081   6.227  0.2798 -0.2870 -0.0367
   9723SM   H6F13163   3.985   7.167   6.225 -0.9620  0.7376 -0.0980
   9723SM   H6G13164   3.969   6.983   6.221 -1.5819 -1.4378  1.1269
   9723SM   C7F13165   3.849   7.079   6.363  0.2860  0.3413  0.7058
   9723SM   H7F13166   3.925   7.074   6.444  2.7692 -1.5463 -1.5473
   9723SM   H7G13167   3.793   6.984   6.376  0.4475  0.4153  2.1192
   9723SM   C8F13168   3.766   7.203   6.401  0.4199  0.3351  0.6189
   9723SM   H8F13169   3.698   7.235   6.319  0.2884  2.6083  1.5309
   9723SM   H8G13170   3.829   7.294   6.406  0.6732  0.1942  0.1139
   9723SM   C9F13171   3.685   7.179   6.528 -0.4901 -0.2913  0.6320
   9723SM   H9F13172   3.752   7.126   6.597  0.7552  0.8870  0.3650
   9723SM   H9G13173   3.595   7.118   6.502 -0.1887  0.4071 -2.5442
   9723SM  C10F13174   3.647   7.313   6.591 -0.0291 -0.0823  0.7523
   9723SM  H10F13175   3.593   7.383   6.524  0.7866  1.0823  1.2862
   9723SM  H10G13176   3.744   7.362   6.613  0.1924 -0.4602  0.6360
   9723SM  C11F13177   3.566   7.294   6.716 -0.1640 -0.5660  0.2406
   9723SM  H11F13178   3.610   7.218   6.785 -0.3418  1.1591  2.3589
   9723SM  H11G13179   3.465   7.250   6.704 -0.8201  0.3936  1.8920
   9723SM  C12F13180   3.543   7.419   6.802 -0.1210 -0.0835 -0.4331
   9723SM  H12F13181   3.515   7.509   6.743 -0.4489 -0.6179 -1.1035
   9723SM  H12G13182   3.639   7.438   6.854  0.5904 -2.1366 -0.9042
   9723SM  C13F13183   3.429   7.385   6.902  0.3801 -0.1681 -0.9692
   9723SM  H13F13184   3.434   7.279   6.934 -0.5035  0.8802  3.2413
   9723SM  H13G13185   3.328   7.392   6.858  0.8924 -1.0427 -2.3531
   9723SM  C14F13186   3.443   7.483   7.018 -0.0490 -0.3086 -0.1690
   9723SM  H14F13187   3.347   7.506   7.068  1.7041  1.7411  2.5762
   9723SM  H14G13188   3.484   7.580   6.982  2.5258 -0.9238  0.8244
   9723SM  C15F13189   3.539   7.439   7.129 -0.6163 -0.4921  0.5182
   9723SM  H15F13190   3.636   7.419   7.079  1.0588  2.3967  2.3141
   9723SM  H15G13191   3.503   7.343   7.172  0.0590 -1.3582 -0.7949
   9723SM  C16F13192   3.565   7.539   7.241 -0.1386 -0.1008  0.0150
   9723SM  H16F13193   3.480   7.598   7.280  0.8871  0.5267  1.4069
   9723SM  H16G13194   3.630   7.620   7.199 -0.7113  0.5306  0.3318
   9723SM  C17F13195   3.644   7.475   7.365  0.4296  0.0186 -0.5884
   9723SM  H17F13196   3.569   7.423   7.428  0.7190  0.6220  0.2718
   9723SM  H17G13197   3.677   7.560   7.428 -1.1113 -0.3080  0.7273
   9723SM  C18F13198   3.770   7.399   7.343  0.3780  1.0451  0.5035
   9723SM  H18F13199   3.754   7.296   7.306  0.3471  0.5202  1.8990
   9723SM  H18G13200   3.822   7.388   7.441 -0.4921  1.7714  1.0568
   9723SM  C19F13201   3.870   7.468   7.255 -0.4643  0.0024 -0.5696
   9723SM  H19F13202   3.894   7.574   7.280  3.0493  0.1415 -3.6491
   9723SM  H19G13203   3.836   7.476   7.149 -0.9401  1.1743 -0.3449
   9723SM  C20F13204   4.007   7.385   7.240  0.5599 -0.4785  0.3258
   9723SM  H20F13205   4.058   7.434   7.155 -0.1420 -1.2599 -0.5718
   9723SM  H20G13206   3.995   7.285   7.193  3.4998  0.5400 -3.0145
   9723SM  C21F13207   4.089   7.386   7.364 -0.2840  0.3052  0.8578
   9723SM  H21F13208   4.034   7.361   7.457 -1.8124 -1.4902 -0.4579
   9723SM  H21G13209   4.125   7.489   7.385  1.4853  0.1769 -1.2177
   9723SM  C22F13210   4.212   7.294   7.342 -0.2654 -0.4786 -0.1193
   9723SM  H22F13211   4.249   7.308   7.238 -0.7769  0.5266 -0.1853
   9723SM  H22G13212   4.188   7.186   7.338  1.1528 -0.8095 -0.4173
   9723SM  C23F13213   4.326   7.325   7.444 -0.5717  0.4093  0.2244
   9723SM  H23F13214   4.293   7.320   7.550  0.5398  1.4831  0.6477
   9723SM  H23G13215   4.367   7.424   7.417  0.1766 -0.0398 -0.3336
   9723SM  H23H13216   4.405   7.247   7.435  0.6785  1.6616  0.0574
   9823SM     N13217   0.564   6.118   4.655  0.3156  0.5206  0.4160
   9823SM   C1513218   0.567   6.250   4.595  0.5581  0.3872 -0.5477
   9823SM  H15A13219   0.658   6.299   4.626  0.9310 -0.1843 -0.7329
   9823SM  H15B13220   0.488   6.316   4.630  1.6378  2.0914 -1.1703
   9823SM  H15C13221   0.569   6.254   4.487 -0.8488  0.6967 -0.5776
   9823SM   C1413222   0.443   6.050   4.599  0.8203 -0.2060 -1.0467
   9823SM  H14A13223   0.423   5.951   4.638  0.9661 -0.0170 -0.4844
   9823SM  H14B13224   0.445   6.022   4.495  1.1147 -1.2950 -0.7579
   9823SM  H14C13225   0.358   6.115   4.613  0.0822 -1.5953  1.6017
   9823SM   C1313226   0.680   6.032   4.609  0.5117  0.1888  0.1759
   9823SM  H13A13227   0.687   5.935   4.657  1.5937 -0.3259 -0.9813
   9823SM  H13B13228   0.774   6.086   4.612  1.4957 -1.1155 -2.8272
   9823SM  H13C13229   0.659   6.004   4.507 -2.2099 -0.3275  0.8198
   9823SM   C1213230   0.558   6.124   4.805 -0.0263  0.1827  0.1577
   9823SM  H12A13231   0.648   6.171   4.842 -0.1468  0.5699 -0.0315
   9823SM  H12B13232   0.567   6.019   4.828 -0.6337 -0.0895 -0.7695
   9823SM   C1113233   0.441   6.189   4.886 -0.5875  0.1491  0.0765
   9823SM  H11A13234   0.455   6.296   4.862  0.8189 -0.0797 -0.2181
   9823SM  H11B13235   0.462   6.173   4.994  1.7552  1.3540 -0.1531
   9823SM     P13236   0.247   6.016   4.906 -0.1352 -0.0325 -0.2118
   9823SM   O1313237   0.131   5.975   4.826 -0.1110 -0.0683  0.0367
   9823SM   O1413238   0.350   5.915   4.924  0.0926  1.0932  0.0176
   9823SM   O1113239   0.198   6.062   5.051  0.7883 -0.1603 -0.3833
   9823SM   O1213240   0.310   6.146   4.841 -0.3085  0.3266  0.3378
   9823SM   C1S13241   0.169   6.201   5.079  0.9039  0.0188  0.7078
   9823SM   H1S13242   0.072   6.228   5.032  0.8196 -0.7797  0.4112
   9823SM   H1T13243   0.257   6.266   5.056 -0.2263  0.6885 -2.1111
   9823SM    NF13244   0.130   6.361   5.258  0.0923  0.5189 -0.4220
   9823SM   HNF13245   0.208   6.415   5.286 -1.2996  2.0137  0.7988
   9823SM   C2S13246   0.153   6.217   5.234  0.4880 -0.9029 -0.2770
   9823SM   H2S13247   0.057   6.170   5.265 -1.3375  2.7292  0.1072
   9823SM   C3S13248   0.283   6.161   5.307  0.1949  0.1843 -0.1483
   9823SM   H3S13249   0.362   6.221   5.257 -1.4553  1.5628 -1.2720
   9823SM    O313250   0.317   6.020   5.288 -0.0629 -0.9460 -0.2554
   9823SM   HO313251   0.290   6.001   5.198  0.5882  1.5129 -1.0445
   9823SM   C4S13252   0.274   6.199   5.452 -0.3973 -0.8813 -0.9120
   9823SM   H4S13253   0.343   6.277   5.486 -1.8267  0.0209  0.0473
   9823SM   C5S13254   0.181   6.158   5.543  0.2752  0.3977 -0.0684
   9823SM   H5S13255   0.104   6.092   5.502  1.8128 -0.0113 -2.5076
   9823SM   C6S13256   0.161   6.209   5.686 -0.1946  0.2020  0.4232
   9823SM   H6S13257   0.096   6.299   5.688 -1.1468 -0.3986 -1.1354
   9823SM   H6T13258   0.263   6.229   5.724  0.4943  0.9204 -1.6987
   9823SM   C7S13259   0.099   6.102   5.784  0.2417  0.0631 -0.0179
   9823SM   H7S13260   0.126   5.998   5.756  0.5255  0.4645 -1.2935
   9823SM   H7T13261  -0.008   6.114   5.756  0.2926 -2.6758 -1.7938
   9823SM   C8S13262   0.115   6.142   5.930 -0.1067 -0.0732  0.5288
   9823SM   H8S13263   0.115   6.253   5.936 -0.7462  0.0504 -1.1542
   9823SM   H8T13264   0.214   6.098   5.953 -0.6147 -0.8364  1.3218
   9823SM   C9S13265   0.019   6.076   6.037  0.3033  0.0560  0.3575
   9823SM   H9S13266   0.011   5.966   6.023  0.6676 -0.1106  1.3540
   9823SM   H9T13267  -0.083   6.118   6.042 -0.3527 -1.3606 -0.6593
   9823SM  C10S13268   0.077   6.090   6.173  0.1419 -0.2966 -0.2464
   9823SM  H10S13269   0.072   6.197   6.203 -1.7305 -0.9492  2.0712
   9823SM  H10T13270   0.186   6.069   6.164 -0.0060 -2.3262  1.6236
   9823SM  C11S13271   0.002   6.009   6.284 -0.2167 -0.1643  0.7091
   9823SM  H11S13272   0.024   5.900   6.284  0.6840 -0.0593 -1.7795
   9823SM  H11T13273  -0.107   6.009   6.266 -0.3194 -1.4430  1.2483
   9823SM  C12S13274   0.038   6.064   6.423 -0.4315 -0.4667 -0.2882
   9823SM  H12S13275  -0.022   6.157   6.432  0.4878  0.0139  1.2754
   9823SM  H12T13276   0.148   6.079   6.436 -0.5790 -0.1853  0.7235
   9823SM  C13S13277  -0.007   5.972   6.536 -0.2964 -0.7504 -0.0773
   9823SM  H13S13278   0.041   5.873   6.520 -0.7121 -1.0579  0.5284
   9823SM  H13T13279  -0.115   5.946   6.526 -0.6011 -1.8394  4.2634
   9823SM  C14S13280   0.009   6.026   6.678  0.5151 -0.2860  0.0588
   9823SM  H14S13281  -0.044   6.121   6.701  1.1399  0.0244  0.2552
   9823SM  H14T13282   0.118   6.047   6.687  0.9471  1.0393 -5.1052
   9823SM  C15S13283  -0.030   5.913   6.775  0.8572 -0.0268  0.2446
   9823SM  H15S13284   0.052   5.838   6.777 -0.4813 -1.5477  0.3738
   9823SM  H15T13285  -0.126   5.872   6.738  1.8466  0.1134 -2.8076
   9823SM  C16S13286  -0.048   5.962   6.924 -0.0521 -0.3886 -0.2451
   9823SM  H16S13287  -0.133   6.032   6.936  0.2112  0.1704 -1.4448
   9823SM  H16T13288   0.041   6.016   6.963 -0.5676  1.0641 -1.0231
   9823SM  C17S13289  -0.075   5.842   7.013  0.7177 -0.3038  0.0173
   9823SM  H17S13290   0.007   5.767   7.011  1.3786  0.3911  0.6492
   9823SM  H17T13291  -0.164   5.790   6.970  1.0067 -0.3961 -0.4783
   9823SM  C18S13292  -0.100   5.876   7.165 -0.2145  0.4530  0.0608
   9823SM  H18S13293  -0.192   5.937   7.180 -0.2323  0.9426 -1.8183
   9823SM  H18T13294  -0.016   5.933   7.210 -0.9486  1.2226  0.4843
   9823SM  H18U13295  -0.093   5.778   7.218  0.0907  0.4640  0.0435
   9823SM   C1F13296   0.009   6.416   5.230 -0.0089 -1.0499  0.7524
   9823SM    OF13297  -0.092   6.361   5.183  0.2045  0.1234 -0.6573
   9823SM   C2F13298   0.001   6.561   5.257 -0.3674 -0.2523  0.0740
   9823SM   H2F13299  -0.033   6.602   5.159 -0.7401  2.2849  1.2066
   9823SM   H2G13300   0.099   6.609   5.277  0.6828 -0.5527 -3.6387
   9823SM   C3F13301  -0.103   6.608   5.357 -0.0370 -0.4464  0.2870
   9823SM   H3F13302  -0.206   6.573   5.335  0.1119 -1.2110  0.7706
   9823SM   H3G13303  -0.119   6.718   5.350  0.3210 -0.5008 -2.0501
   9823SM   C4F13304  -0.080   6.567   5.507 -0.1966 -0.3462  0.1285
   9823SM   H4F13305  -0.052   6.459   5.502  0.5785 -0.1214 -0.7411
   9823SM   H4G13306  -0.166   6.598   5.570  2.9529  2.7821  3.3813
   9823SM   C5F13307   0.043   6.638   5.566 -0.0750  0.3902  0.0152
   9823SM   H5F13308   0.030   6.748   5.567  2.4244  0.7530  1.2597
   9823SM   H5G13309   0.136   6.614   5.509  0.3398  2.3804 -0.2289
   9823SM   C6F13310   0.065   6.593   5.710  0.8384 -0.2617 -0.0136
   9823SM   H6F13311   0.173   6.583   5.734  0.9063 -1.0890 -0.6211
   9823SM   H6G13312   0.010   6.498   5.727  0.6720 -0.1715 -0.0500
   9823SM   C7F13313   0.005   6.695   5.810 -0.1625  0.2732  0.2189
   9823SM   H7F13314  -0.104   6.692   5.789  0.0785 -0.9205 -0.9879
   9823SM   H7G13315   0.045   6.798   5.795  0.4167 -0.1423 -1.2338
   9823SM   C8F13316   0.048   6.665   5.962  0.3653  0.4062  0.2184
   9823SM   H8F13317   0.157   6.675   5.978  0.3293 -2.3910  3.1193
   9823SM   H8G13318   0.008   6.562   5.971 -1.5319  0.7102 -2.9754
   9823SM   C9F13319  -0.004   6.771   6.054  0.1702 -0.3303  0.3124
   9823SM   H9F13320  -0.113   6.784   6.038 -0.0977 -1.9700  0.6274
   9823SM   H9G13321   0.051   6.864   6.029  0.2706 -1.1745 -3.0295
   9823SM  C10F13322   0.039   6.743   6.198 -0.7442 -0.2738 -0.2622
   9823SM  H10F13323  -0.005   6.827   6.255 -0.7052  0.6732 -1.5870
   9823SM  H10G13324   0.149   6.745   6.214 -1.0712  0.0028  2.3552
   9823SM  C11F13325  -0.008   6.607   6.236  0.3191  1.3565 -0.4083
   9823SM  H11F13326   0.033   6.528   6.169  0.5366 -0.1860  1.4453
   9823SM  H11G13327  -0.118   6.613   6.222  0.2916  0.6603 -0.5426
   9823SM  C12F13328   0.024   6.580   6.382  0.4245  0.1023  0.3726
   9823SM  H12F13329   0.128   6.615   6.403  0.2876  1.2874 -0.8048
   9823SM  H12G13330   0.011   6.471   6.399 -1.0577  0.0330 -1.0479
   9823SM  C13F13331  -0.087   6.653   6.461 -0.2403 -0.0057 -0.5306
   9823SM  H13F13332  -0.182   6.607   6.427 -0.8060  1.3234 -0.8105
   9823SM  H13G13333  -0.095   6.759   6.431 -0.1902 -0.0357 -0.6515
   9823SM  C14F13334  -0.073   6.632   6.612  0.2779  0.4777 -0.0789
   9823SM  H14F13335   0.030   6.656   6.646 -1.3339  1.8776  4.4902
   9823SM  H14G13336  -0.106   6.533   6.649 -0.6542  0.6236 -0.5069
   9823SM  C15F13337  -0.156   6.727   6.690  0.2044 -1.1319 -0.2513
   9823SM  H15F13338  -0.265   6.720   6.673 -0.4093 -0.1287  2.5828
   9823SM  H15G13339  -0.128   6.831   6.663 -1.7022 -0.6006 -0.2833
   9823SM  C16F13340  -0.160   6.703   6.841 -0.5354 -0.0764 -0.4682
   9823SM  H16F13341  -0.052   6.704   6.868 -0.6856  2.1853  0.2708
   9823SM  H16G13342  -0.197   6.603   6.874  1.6577 -1.2278 -1.3119
   9823SM  C17F13343  -0.251   6.799   6.910  0.3456 -0.0131 -0.7520
   9823SM  H17F13344  -0.339   6.821   6.846  0.8934  1.8450 -0.9175
   9823SM  H17G13345  -0.214   6.902   6.930 -0.5359  0.4292 -1.3271
   9823SM  C18F13346  -0.304   6.738   7.041  0.1912  0.3940 -0.2313
   9823SM  H18F13347  -0.208   6.721   7.094  0.7784 -0.1024 -1.4256
   9823SM  H18G13348  -0.345   6.639   7.012 -0.1859  0.9613 -1.7092
   9823SM  C19F13349  -0.401   6.832   7.111 -0.5171 -0.2065  0.2186
   9823SM  H19F13350  -0.508   6.832   7.080 -0.5833 -0.5147  0.4465
   9823SM  H19G13351  -0.374   6.939   7.099 -2.6485  0.6527  2.2930
   9823SM  C20F13352  -0.398   6.808   7.257 -0.3348 -0.7701 -0.3976
   9823SM  H20F13353  -0.294   6.781   7.286 -0.6273 -0.8648  0.6104
   9823SM  H20G13354  -0.463   6.723   7.288  1.9643 -2.5215 -0.1328
   9823SM  C21F13355  -0.445   6.933   7.337  0.5873  0.7026  0.5370
   9823SM  H21F13356  -0.532   6.965   7.275  1.7065 -1.8282 -2.6688
   9823SM  H21G13357  -0.362   7.008   7.339  1.0398  0.2207  0.0921
   9823SM  C22F13358  -0.492   6.898   7.476  0.3986  0.0511 -0.7291
   9823SM  H22F13359  -0.557   6.808   7.467  0.6285  0.1009 -3.9263
   9823SM  H22G13360  -0.558   6.980   7.511 -0.2873 -1.1427  0.9151
   9823SM  C23F13361  -0.380   6.880   7.586 -0.3995  0.4451  0.1550
   9823SM  H23F13362  -0.333   6.979   7.598  0.3483  0.1462 -0.2438
   9823SM  H23G13363  -0.303   6.809   7.548 -1.4391 -0.3406 -0.5499
   9823SM  H23H13364  -0.420   6.837   7.680  1.4745  0.7098  1.1164
   9923SM     N13365   0.495   0.384   4.631 -0.3535  0.0060  0.5472
   9923SM   C1513366   0.625   0.374   4.548 -0.0446 -0.0969  0.8851
   9923SM  H15A13367   0.708   0.424   4.596 -0.8818 -0.5888  2.9500
   9923SM  H15B13368   0.614   0.415   4.448  1.8352 -1.3276  0.1206
   9923SM  H15C13369   0.656   0.272   4.538 -0.3563 -0.1059 -0.1006
   9923SM   C1413370   0.448   0.528   4.635  0.4907  0.5196 -0.3519
   9923SM  H14A13371   0.524   0.588   4.684  1.2320 -1.2966  0.8126
   9923SM  H14B13372   0.356   0.537   4.689 -0.5880 -2.6536 -1.4310
   9923SM  H14C13373   0.432   0.561   4.533  0.4294 -1.8945 -1.1781
   9923SM   C1313374   0.392   0.300   4.550 -0.5838 -0.6025 -0.1869
   9923SM  H13A13375   0.367   0.339   4.452 -0.4774  1.3852  0.5330
   9923SM  H13B13376   0.301   0.272   4.601  0.1872 -3.1765 -0.0893
   9923SM  H13C13377   0.429   0.198   4.545 -1.6709 -1.3384  3.6174
   9923SM   C1213378   0.515   0.337   4.776  0.0648 -0.3059  0.6146
   9923SM  H12A13379   0.423   0.346   4.833 -0.0443 -0.5780  0.4834
   9923SM  H12B13380   0.574   0.408   4.832 -0.6500  0.6789  0.1345
   9923SM   C1113381   0.574   0.194   4.798 -0.3090  0.5527 -0.2345
   9923SM  H11A13382   0.499   0.118   4.771  1.2851 -1.5026  0.8033
   9923SM  H11B13383   0.595   0.180   4.907 -4.0999 -1.4619  0.4067
   9923SM     P13384   0.754   0.028   4.710 -0.0952 -0.3885 -0.1065
   9923SM   O1313385   0.648  -0.072   4.681 -0.2967  0.0355  0.7940
   9923SM   O1413386   0.865   0.034   4.609  0.7783  0.2874 -0.7232
   9923SM   O1113387   0.825  -0.009   4.852 -0.6027  0.2871 -0.3881
   9923SM   O1213388   0.694   0.181   4.725  0.0062  0.3000 -0.0250
   9923SM   C1S13389   0.749  -0.106   4.928  0.3106  0.5528 -0.0343
   9923SM   H1S13390   0.759  -0.205   4.877  0.2013 -0.3481  1.6427
   9923SM   H1T13391   0.640  -0.090   4.936  0.0284 -1.7988  2.3047
   9923SM    NF13392   0.779  -0.232   5.154  0.4091 -0.3352 -0.4163
   9923SM   HNF13393   0.726  -0.230   5.238  0.5822  0.2346 -0.3169
   9923SM   C2S13394   0.801  -0.108   5.077  0.1955 -0.0162  0.1006
   9923SM   H2S13395   0.912  -0.105   5.071  0.2369 -0.6519  0.5140
   9923SM   C3S13396   0.762   0.025   5.145  0.1937  0.5980 -0.3041
   9923SM   H3S13397   0.651   0.034   5.149  0.3186  1.9327  2.8734
   9923SM    O313398   0.825   0.137   5.080  0.4781  0.8129 -0.3561
   9923SM   HO313399   0.854   0.099   4.996  0.5468 -0.0823  0.0605
   9923SM   C4S13400   0.803   0.028   5.293  0.0793  1.0091  0.2213
   9923SM   H4S13401   0.714  -0.007   5.348 -0.2869 -1.2534 -1.6685
   9923SM   C5S13402   0.924   0.043   5.345  0.3006  0.0602  0.3926
   9923SM   H5S13403   1.009   0.047   5.275  1.1405  2.6263  1.4359
   9923SM   C6S13404   0.968   0.031   5.493  0.4683  0.4479 -0.1786
   9923SM   H6S13405   0.884   0.071   5.554 -0.4450 -2.4627  0.6296
   9923SM   H6T13406   1.055   0.099   5.502  2.4884 -1.6672 -2.1599
   9923SM   C7S13407   1.007  -0.111   5.533 -0.1535 -0.1739 -0.0039
   9923SM   H7S13408   1.089  -0.110   5.608 -1.0099 -0.0019  0.9507
   9923SM   H7T13409   1.063  -0.154   5.447  2.3880  1.9272  0.4860
   9923SM   C8S13410   0.894  -0.206   5.570 -0.2295  0.8586 -0.4518
   9923SM   H8S13411   0.931  -0.310   5.557 -1.3561  0.4018 -0.0662
   9923SM   H8T13412   0.808  -0.197   5.501 -0.8147 -0.4137  0.0906
   9923SM   C9S13413   0.856  -0.194   5.714 -0.3512 -0.0789  0.0775
   9923SM   H9S13414   0.751  -0.223   5.735 -0.4258  1.2429  1.7423
   9923SM   H9T13415   0.865  -0.089   5.748  2.9218 -0.5264  0.9501
   9923SM  C10S13416   0.950  -0.269   5.808 -0.3849 -0.3922 -0.1216
   9923SM  H10S13417   1.052  -0.226   5.796  0.6158 -2.6119 -0.1354
   9923SM  H10T13418   0.959  -0.379   5.792  2.1363 -0.4842  1.3460
   9923SM  C11S13419   0.918  -0.245   5.960  0.8969 -0.5204  0.5474
   9923SM  H11S13420   0.809  -0.267   5.966  0.6990  0.1161 -0.4507
   9923SM  H11T13421   0.931  -0.138   5.985 -0.5642 -0.1838 -0.0026
   9923SM  C12S13422   0.996  -0.325   6.057 -0.2059 -0.6102 -0.1777
   9923SM  H12S13423   1.102  -0.291   6.059  0.2446 -1.5667 -3.1518
   9923SM  H12T13424   1.005  -0.429   6.019  1.9689 -0.7477  0.5664
   9923SM  C13S13425   0.942  -0.335   6.205 -0.3917  0.0828 -0.4530
   9923SM  H13S13426   0.841  -0.378   6.215 -0.2123  0.1901  3.3011
   9923SM  H13T13427   0.936  -0.239   6.261 -0.3617 -1.3560  2.1605
   9923SM  C14S13428   1.047  -0.420   6.281 -0.5926 -0.0779  0.0064
   9923SM  H14S13429   1.140  -0.359   6.278 -0.4328 -0.2845  0.7339
   9923SM  H14T13430   1.065  -0.516   6.229  0.3226  0.1719 -0.1567
   9923SM  C15S13431   0.999  -0.427   6.424  0.4306 -0.9178  0.1861
   9923SM  H15S13432   0.906  -0.488   6.431 -0.9629  1.0278 -0.3712
   9923SM  H15T13433   0.969  -0.325   6.456  1.1909 -0.3113 -0.9915
   9923SM  C16S13434   1.099  -0.473   6.530  0.0104  0.5459  0.7707
   9923SM  H16S13435   1.175  -0.393   6.539 -0.1151  0.8988 -1.0013
   9923SM  H16T13436   1.151  -0.565   6.496  2.5676  1.8912  0.7879
   9923SM  C17S13437   1.040  -0.517   6.660 -0.3259 -0.2969 -0.1062
   9923SM  H17S13438   0.983  -0.612   6.654  0.7431 -0.8811 -1.5945
   9923SM  H17T13439   0.973  -0.442   6.708  0.0973  0.2140 -0.3065
   9923SM  C18S13440   1.152  -0.560   6.756  0.1452  0.8542  0.4913
   9923SM  H18S13441   1.225  -0.479   6.779  1.2512  0.8064 -2.4496
   9923SM  H18T13442   1.206  -0.646   6.710  0.2831  1.3011 -0.1850
   9923SM  H18U13443   1.106  -0.602   6.848  0.4000 -1.2666 -0.3014
   9923SM   C1F13444   0.841  -0.345   5.124 -0.2183  0.5779 -0.4431
   9923SM    OF13445   0.926  -0.356   5.034 -0.3074  0.1055 -0.2794
   9923SM   C2F13446   0.823  -0.467   5.209  0.4397 -0.1704 -0.2344
   9923SM   H2F13447   0.902  -0.460   5.287  1.1810 -1.9135 -0.7793
   9923SM   H2G13448   0.859  -0.557   5.155  0.2441 -1.6611  1.9503
   9923SM   C3F13449   0.685  -0.478   5.279  0.3087  0.6697  0.5795
   9923SM   H3F13450   0.600  -0.474   5.208  0.7729  1.3579  0.0444
   9923SM   H3G13451   0.689  -0.392   5.349  2.2502 -0.4044  1.8693
   9923SM   C4F13452   0.678  -0.606   5.366 -0.3831 -0.7535 -0.5890
   9923SM   H4F13453   0.734  -0.690   5.320  0.8362  0.1099 -0.7450
   9923SM   H4G13454   0.573  -0.641   5.376 -0.9108  0.1973 -2.3179
   9923SM   C5F13455   0.734  -0.594   5.508  0.2355  0.8188  0.9250
   9923SM   H5F13456   0.837  -0.554   5.510 -0.1852  2.4118 -2.7074
   9923SM   H5G13457   0.717  -0.695   5.551  1.9935 -0.4770 -1.2547
   9923SM   C6F13458   0.643  -0.501   5.594  0.5838  0.6255  0.3178
   9923SM   H6F13459   0.538  -0.511   5.559  0.6904 -0.9350  0.4036
   9923SM   H6G13460   0.681  -0.397   5.583  0.3578  1.2815  4.1038
   9923SM   C7F13461   0.647  -0.536   5.745 -0.0053  0.1277  0.5441
   9923SM   H7F13462   0.739  -0.494   5.792 -0.0493  2.1247 -1.0349
   9923SM   H7G13463   0.646  -0.647   5.751  1.3051 -0.0187 -1.1694
   9923SM   C8F13464   0.534  -0.472   5.829 -0.0013 -0.3508  0.1335
   9923SM   H8F13465   0.431  -0.467   5.786 -0.8050  1.2684  2.1152
   9923SM   H8G13466   0.575  -0.369   5.835  0.1328 -0.1681 -2.5510
   9923SM   C9F13467   0.517  -0.542   5.968  0.2273  0.1598  0.2331
   9923SM   H9F13468   0.610  -0.510   6.019 -0.0526  1.2428  0.0935
   9923SM   H9G13469   0.508  -0.653   5.961 -1.1394  0.3609 -3.3232
   9923SM  C10F13470   0.400  -0.488   6.042 -0.5594 -0.6505  0.1350
   9923SM  H10F13471   0.307  -0.522   5.992 -1.9682  0.2887  1.9874
   9923SM  H10G13472   0.398  -0.378   6.032 -1.4584 -0.5422  1.3239
   9923SM  C11F13473   0.380  -0.542   6.184 -0.1031  0.2855 -0.0328
   9923SM  H11F13474   0.387  -0.653   6.185  1.1936  0.3275  2.4098
   9923SM  H11G13475   0.282  -0.509   6.225 -0.1717 -1.7808  1.5950
   9923SM  C12F13476   0.478  -0.471   6.283 -0.0301 -0.6377  0.7157
   9923SM  H12F13477   0.457  -0.362   6.288 -0.2023 -0.6256 -0.1074
   9923SM  H12G13478   0.585  -0.481   6.255  0.2018  2.3605  0.2342
   9923SM  C13F13479   0.455  -0.534   6.415  0.2231 -0.0619 -0.5004
   9923SM  H13F13480   0.544  -0.494   6.470  1.8989 -0.9117 -2.4796
   9923SM  H13G13481   0.463  -0.643   6.399 -0.7905 -0.1205 -0.6476
   9923SM  C14F13482   0.335  -0.490   6.495 -0.1404  0.0495  0.4620
   9923SM  H14F13483   0.233  -0.506   6.454  0.1793 -0.1402 -0.2643
   9923SM  H14G13484   0.344  -0.380   6.511 -1.3224  0.3570 -0.7973
   9923SM  C15F13485   0.325  -0.551   6.637 -0.6051 -0.3475 -0.3418
   9923SM  H15F13486   0.418  -0.549   6.698 -0.3510  1.6621 -0.7378
   9923SM  H15G13487   0.295  -0.655   6.613 -2.0176  0.4023 -2.0151
   9923SM  C16F13488   0.213  -0.493   6.720  0.5115 -0.0691 -0.0607
   9923SM  H16F13489   0.118  -0.513   6.667  0.4630  2.2982 -1.0092
   9923SM  H16G13490   0.221  -0.383   6.733  0.1839 -0.0472 -0.0341
   9923SM  C17F13491   0.221  -0.565   6.861 -0.0008 -0.0934 -0.9061
   9923SM  H17F13492   0.303  -0.516   6.918  1.0509 -2.7325  0.0041
   9923SM  H17G13493   0.229  -0.675   6.853  0.2275 -0.4248  2.3071
   9923SM  C18F13494   0.096  -0.539   6.942 -0.5850  0.4540  0.3168
   9923SM  H18F13495   0.003  -0.594   6.914 -0.3297  0.1027  0.1386
   9923SM  H18G13496   0.078  -0.430   6.931  0.5332  0.5168 -1.2741
   9923SM  C19F13497   0.122  -0.569   7.097  0.2897 -0.2740  0.9820
   9923SM  H19F13498   0.214  -0.524   7.140  0.5855  0.2315 -0.1410
   9923SM  H19G13499   0.129  -0.679   7.095 -2.0624 -0.4835  1.2588
   9923SM  C20F13500  -0.008  -0.540   7.175  0.2290  0.6598 -0.9346
   9923SM  H20F13501  -0.003  -0.609   7.262 -2.1104  0.1517 -1.1386
   9923SM  H20G13502  -0.091  -0.573   7.108 -0.1547  0.8390 -0.5555
   9923SM  C21F13503  -0.041  -0.395   7.219 -0.0181  0.0546  0.6994
   9923SM  H21F13504  -0.151  -0.390   7.236 -0.3211 -0.1375 -0.9929
   9923SM  H21G13505  -0.013  -0.322   7.141  0.7214  0.2410  1.1331
   9923SM  C22F13506   0.033  -0.371   7.347 -0.6994  0.2419 -0.1195
   9923SM  H22F13507   0.142  -0.375   7.325 -0.4652 -0.4294  1.0656
   9923SM  H22G13508   0.004  -0.443   7.427  1.5045 -1.4758 -0.7853
   9923SM  C23F13509   0.001  -0.232   7.395 -0.0117  0.4254 -0.4371
   9923SM  H23F13510   0.023  -0.217   7.503  3.4586  0.1326 -0.9844
   9923SM  H23G13511  -0.106  -0.212   7.374  0.0204 -0.3147 -1.3660
   9923SM  H23H13512   0.055  -0.157   7.333  0.9877  0.2552  0.2095
  10023SM     N13513   6.747   0.247   4.785 -0.1182  0.2067 -0.1924
  10023SM   C1513514   6.835   0.317   4.881  0.4941  0.0278  0.0564
  10023SM  H15A13515   6.869   0.249   4.958  1.1448 -0.6796 -0.8291
  10023SM  H15B13516   6.781   0.402   4.921  2.1153  2.5835 -2.7217
  10023SM  H15C13517   6.928   0.359   4.845  0.9743 -0.4774  0.6598
  10023SM   C1413518   6.610   0.238   4.841  0.0796 -0.2372 -0.5589
  10023SM  H14A13519   6.604   0.173   4.927  2.2171  1.1548  0.7313
  10023SM  H14B13520   6.534   0.198   4.775 -1.4988  1.0001  0.4483
  10023SM  H14C13521   6.581   0.339   4.866  0.4398 -0.4583  0.8621
  10023SM   C1313522   6.746   0.336   4.659 -0.1337  0.4296  0.2188
  10023SM  H13A13523   6.681   0.286   4.589 -0.0248 -0.0754  0.4740
  10023SM  H13B13524   6.844   0.358   4.622  0.1959  0.4851  1.0912
  10023SM  H13C13525   6.687   0.426   4.671  0.8779  1.7204 -3.2765
  10023SM   C1213526   6.797   0.108   4.758 -0.6737  0.2033 -0.3555
  10023SM  H12A13527   6.898   0.117   4.722 -0.3487  2.8857  1.0328
  10023SM  H12B13528   6.742   0.053   4.682  0.1981  0.0352 -0.8736
  10023SM   C1113529   6.816   0.015   4.882  0.5970  0.0354  0.8471
  10023SM  H11A13530   6.828  -0.092   4.853  0.0066  0.4382 -1.0500
  10023SM  H11B13531   6.727   0.025   4.948 -0.3856  0.2890 -0.4742
  10023SM     P13532   7.066  -0.002   4.941  0.4175 -0.6894 -0.0250
  10023SM   O1313533   7.053  -0.137   4.993  0.0891  0.3836 -0.4419
  10023SM   O1413534   7.111   0.012   4.798 -0.4429  0.0359 -0.7453
  10023SM   O1113535   7.153   0.088   5.044 -0.4920  0.1662 -0.0275
  10023SM   O1213536   6.923   0.069   4.958  0.2136  0.3961  0.1167
  10023SM   C1S13537   7.151   0.062   5.183  0.0585 -0.5413 -0.4936
  10023SM   H1S13538   7.159  -0.045   5.208 -1.3801 -0.2577  1.4639
  10023SM   H1T13539   7.053   0.095   5.224  0.1494 -0.3138 -0.4550
  10023SM    NF13540   7.243   0.096   5.414  0.4549 -0.5501  0.4120
  10023SM   HNF13541   7.198   0.157   5.479  0.9629  0.0431  0.2164
  10023SM   C2S13542   7.255   0.143   5.278  1.0215 -0.0472  0.0600
  10023SM   H2S13543   7.358   0.115   5.246  1.2139 -0.4339  0.9804
  10023SM   C3S13544   7.238   0.302   5.260  0.2678  0.0940  0.1271
  10023SM   H3S13545   7.147   0.339   5.311 -0.2049 -1.4753  0.4741
  10023SM    O313546   7.212   0.344   5.130 -0.4809  0.5165  0.2885
  10023SM   HO313547   7.190   0.263   5.082  1.9822  0.4837 -0.9294
  10023SM   C4S13548   7.355   0.367   5.319  0.2850 -0.0375 -0.0585
  10023SM   H4S13549   7.452   0.327   5.285  0.4792 -0.1382  0.6129
  10023SM   C5S13550   7.359   0.465   5.408 -0.2458 -0.3108  1.0800
  10023SM   H5S13551   7.268   0.509   5.451 -0.2776  0.3319  0.3734
  10023SM   C6S13552   7.475   0.544   5.450 -0.1206  0.6661 -0.1420
  10023SM   H6S13553   7.462   0.652   5.431  2.5583  0.7883 -1.8954
  10023SM   H6T13554   7.566   0.509   5.396 -0.4932 -2.6079  1.1290
  10023SM   C7S13555   7.504   0.528   5.602  0.8590 -0.1125  0.7889
  10023SM   H7S13556   7.421   0.565   5.666  0.9545 -0.6789  1.2448
  10023SM   H7T13557   7.586   0.602   5.606 -0.3678  1.2538  1.5326
  10023SM   C8S13558   7.542   0.388   5.640  0.1716 -0.1217 -0.0275
  10023SM   H8S13559   7.611   0.347   5.563  0.0593 -2.2032  0.9216
  10023SM   H8T13560   7.451   0.326   5.655 -1.2538  2.0658  0.9882
  10023SM   C9S13561   7.620   0.393   5.771  0.0292 -0.1905  0.8817
  10023SM   H9S13562   7.554   0.442   5.845 -0.2344  0.7518  0.0432
  10023SM   H9T13563   7.715   0.447   5.749  0.3426 -0.1957  2.1540
  10023SM  C10S13564   7.651   0.250   5.818 -0.7286 -0.0102  0.3089
  10023SM  H10S13565   7.723   0.190   5.757 -0.9368  0.3481 -0.3069
  10023SM  H10T13566   7.556   0.194   5.825 -0.3773 -0.9858 -1.8072
  10023SM  C11S13567   7.704   0.255   5.964 -0.3023  0.0487  0.4906
  10023SM  H11S13568   7.795   0.318   5.973  0.4969 -1.3753  3.6367
  10023SM  H11T13569   7.725   0.154   6.005 -0.3002 -1.0974 -2.0954
  10023SM  C12S13570   7.609   0.321   6.066 -0.2421 -0.1148 -0.5164
  10023SM  H12S13571   7.515   0.262   6.062 -0.3696  0.0674 -0.2769
  10023SM  H12T13572   7.590   0.426   6.038  3.6134  0.6243 -0.9347
  10023SM  C13S13573   7.675   0.306   6.207  0.1111  0.2535 -0.2527
  10023SM  H13S13574   7.766   0.368   6.218 -1.1513  1.8584  2.4017
  10023SM  H13T13575   7.698   0.197   6.212  1.5625  0.1161 -4.9989
  10023SM  C14S13576   7.569   0.336   6.315 -0.4300  0.1161  1.2220
  10023SM  H14S13577   7.472   0.291   6.287 -0.3514  0.3259  0.5967
  10023SM  H14T13578   7.553   0.446   6.318  1.0600  0.3403  2.1116
  10023SM  C15S13579   7.608   0.282   6.448 -0.5648 -0.6835 -0.5208
  10023SM  H15S13580   7.707   0.326   6.472 -1.0935  1.4473 -1.9436
  10023SM  H15T13581   7.612   0.171   6.439 -0.5542 -0.6359 -1.1741
  10023SM  C16S13582   7.509   0.313   6.557 -0.0521 -0.1763 -0.2216
  10023SM  H16S13583   7.414   0.268   6.522  0.8920 -1.2382 -1.4614
  10023SM  H16T13584   7.498   0.424   6.558  2.0574  0.1898  3.7300
  10023SM  C17S13585   7.533   0.253   6.698 -0.7436 -0.0376  0.5287
  10023SM  H17S13586   7.634   0.287   6.729 -1.0807 -0.2478  1.9345
  10023SM  H17T13587   7.531   0.142   6.693 -0.2011 -0.0356  0.2108
  10023SM  C18S13588   7.436   0.299   6.810 -0.5084  0.2683 -0.4221
  10023SM  H18S13589   7.437   0.236   6.902 -3.4047  0.3124 -0.2538
  10023SM  H18T13590   7.334   0.294   6.766  0.3580 -0.5869 -2.4541
  10023SM  H18U13591   7.457   0.404   6.837  0.4506 -0.1655  0.5768
  10023SM   C1F13592   7.284  -0.030   5.450  0.1730 -0.5843 -0.0235
  10023SM    OF13593   7.347  -0.106   5.376 -0.0445 -0.4834 -0.0448
  10023SM   C2F13594   7.242  -0.079   5.583  0.3245 -0.3826 -0.2445
  10023SM   H2F13595   7.243  -0.189   5.572 -1.6197 -0.2926 -1.9210
  10023SM   H2G13596   7.140  -0.053   5.618 -0.0850 -1.1912 -0.8406
  10023SM   C3F13597   7.358  -0.040   5.685  0.3372 -0.6478 -0.3182
  10023SM   H3F13598   7.376   0.070   5.689  1.8285 -0.8731 -0.2474
  10023SM   H3G13599   7.448  -0.098   5.655 -0.0436 -1.2919 -0.2406
  10023SM   C4F13600   7.326  -0.089   5.823 -0.6677  0.4008 -0.2554
  10023SM   H4F13601   7.331  -0.200   5.824  0.9475  0.4121  1.9063
  10023SM   H4G13602   7.225  -0.054   5.851  0.5087  4.6708 -0.6473
  10023SM   C5F13603   7.424  -0.031   5.919  0.0534  1.1257 -0.2487
  10023SM   H5F13604   7.412   0.080   5.920 -2.1677  0.9299  0.5805
  10023SM   H5G13605   7.531  -0.056   5.899 -0.5042 -2.7703  0.9078
  10023SM   C6F13606   7.391  -0.095   6.055  0.6226  0.0724 -0.3892
  10023SM   H6F13607   7.408  -0.204   6.045 -0.9637 -0.2364 -0.0930
  10023SM   H6G13608   7.280  -0.086   6.063  0.6402 -0.3159  0.3319
  10023SM   C7F13609   7.478  -0.035   6.168  0.0125 -0.8959 -0.5512
  10023SM   H7F13610   7.468   0.075   6.175  0.4467 -0.6836 -2.7369
  10023SM   H7G13611   7.584  -0.051   6.139  0.1983 -0.9392  0.1429
  10023SM   C8F13612   7.469  -0.103   6.304 -0.7482  0.5868 -0.1217
  10023SM   H8F13613   7.562  -0.078   6.360 -1.0485  0.4580  0.4508
  10023SM   H8G13614   7.472  -0.212   6.281  2.7623  0.2080  1.4478
  10023SM   C9F13615   7.349  -0.067   6.387 -0.4852  0.0546  0.2305
  10023SM   H9F13616   7.261  -0.127   6.354 -0.2315 -0.1296 -0.1158
  10023SM   H9G13617   7.335   0.043   6.392 -1.5497 -0.0594  0.0126
  10023SM  C10F13618   7.370  -0.113   6.536  0.8893 -0.8737 -0.4173
  10023SM  H10F13619   7.463  -0.078   6.585 -0.3412  0.4484  1.0426
  10023SM  H10G13620   7.374  -0.224   6.527  0.0249 -0.8505 -1.3130
  10023SM  C11F13621   7.247  -0.081   6.625  0.7782 -0.4713  0.2066
  10023SM  H11F13622   7.152  -0.104   6.572  0.1745  0.2685  0.9388
  10023SM  H11G13623   7.257   0.029   6.636 -1.5893 -0.1172 -0.5629
  10023SM  C12F13624   7.244  -0.151   6.764 -0.1900  0.6097 -0.1750
  10023SM  H12F13625   7.338  -0.128   6.818  0.1479  0.0087 -0.5015
  10023SM  H12G13626   7.233  -0.261   6.755 -1.5441  0.8623 -2.2674
  10023SM  C13F13627   7.127  -0.099   6.849 -0.9360  0.3902 -0.6785
  10023SM  H13F13628   7.037  -0.099   6.785  0.8472  3.6300 -3.5374
  10023SM  H13G13629   7.136   0.009   6.876 -2.0948  0.0749  1.1073
  10023SM  C14F13630   7.108  -0.179   6.976  0.4776 -0.0016  0.0616
  10023SM  H14F13631   7.113  -0.286   6.948  0.8751  0.6055 -2.3306
  10023SM  H14G13632   7.011  -0.164   7.029 -0.4095 -2.9271 -0.5304
  10023SM  C15F13633   7.233  -0.173   7.071  0.2706 -0.2822 -0.0671
  10023SM  H15F13634   7.260  -0.067   7.092  0.6798 -0.3498 -0.2541
  10023SM  H15G13635   7.316  -0.225   7.020 -1.1623 -0.9893 -1.7820
  10023SM  C16F13636   7.219  -0.263   7.201  0.0283 -0.1648 -0.1255
  10023SM  H16F13637   7.176  -0.364   7.183 -0.4172  0.2477 -1.5093
  10023SM  H16G13638   7.152  -0.210   7.272  3.7453  2.6304  1.6663
  10023SM  C17F13639   7.354  -0.274   7.277 -0.0334 -0.6213  0.3399
  10023SM  H17F13640   7.406  -0.177   7.264  1.9269 -1.7448 -0.7319
  10023SM  H17G13641   7.420  -0.333   7.210 -0.5998 -0.5645 -0.2760
  10023SM  C18F13642   7.347  -0.332   7.410 -0.3896  0.4281  0.2839
  10023SM  H18F13643   7.317  -0.439   7.409 -0.9214  0.5771  0.4102
  10023SM  H18G13644   7.279  -0.271   7.472 -0.2232 -0.5327  1.4472
  10023SM  C19F13645   7.493  -0.329   7.480  0.0759 -0.1825  0.5657
  10023SM  H19F13646   7.477  -0.343   7.589 -1.7758  0.4039  0.4086
  10023SM  H19G13647   7.530  -0.224   7.474 -1.2988  0.4805  2.5133
  10023SM  C20F13648   7.603  -0.423   7.422  0.2898  0.4266  0.3263
  10023SM  H20F13649   7.607  -0.413   7.312 -1.0322  0.4626  0.2670
  10023SM  H20G13650   7.580  -0.530   7.437  3.1008 -0.3509 -0.3282
  10023SM  C21F13651   7.741  -0.417   7.488  0.3241  0.4983 -0.1050
  10023SM  H21F13652   7.754  -0.309   7.510  1.0972  0.2256  0.8211
  10023SM  H21G13653   7.823  -0.447   7.420  1.6557 -0.0667  1.6796
  10023SM  C22F13654   7.749  -0.486   7.616 -0.3445 -0.1532 -0.9210
  10023SM  H22F13655   7.698  -0.585   7.622  0.0972 -0.3352  0.0099
  10023SM  H22G13656   7.690  -0.421   7.684 -0.4105  0.4091 -1.5149
  10023SM  C23F13657   7.895  -0.480   7.667 -0.8210  0.4251  0.3464
  10023SM  H23F13658   7.968  -0.554   7.628 -0.1108  0.0852  2.2087
  10023SM  H23G13659   7.890  -0.517   7.772 -0.0847 -1.2603 -0.1888
  10023SM  H23H13660   7.936  -0.377   7.664  1.3321 -0.3823  0.2283
  101CHL1    C313661   2.814   3.769   9.303 -0.0228 -0.5988  0.4366
  101CHL1    H313662   2.714   3.773   9.256  0.9074 -1.0901 -1.7177
  101CHL1    O313663   2.790   3.710   9.433  0.4861  0.0858 -0.4522
  101CHL1   H3'13664   2.743   3.778   9.482 -1.0448 -0.8121 -0.6144
  101CHL1    C413665   2.910   3.678   9.220 -0.4581 -0.4175  0.2834
  101CHL1   H4A13666   3.001   3.677   9.284 -0.7978  2.7563  0.9655
  101CHL1   H4B13667   2.875   3.572   9.219  0.7529 -0.8457  0.1603
  101CHL1    C513668   2.943   3.737   9.084 -0.5582 -0.4203  0.8926
  101CHL1    C613669   2.915   3.670   8.978 -0.0955  0.3501 -0.0976
  101CHL1    H613670   2.893   3.563   8.992 -0.7757  0.5118  0.0773
  101CHL1    C713671   2.946   3.712   8.842 -0.0024  0.6189  0.9780
  101CHL1   H7A13672   2.983   3.634   8.772 -1.8218  2.3137 -2.1255
  101CHL1   H7B13673   2.852   3.737   8.788  0.6986  1.2266  0.0119
  101CHL1    C813674   3.026   3.837   8.835 -0.1982 -0.0174 -0.5897
  101CHL1    H813675   3.133   3.813   8.855 -0.5288 -0.5699  0.5712
  101CHL1   C1413676   3.017   3.908   8.710  0.0194  0.7562  0.3174
  101CHL1   H1413677   2.907   3.928   8.712 -0.2846 -0.7412 -0.1308
  101CHL1   C1513678   3.043   3.826   8.581  0.7737 -0.2350  0.4264
  101CHL1  H15A13679   3.126   3.755   8.600  0.4790 -1.2542 -1.7981
  101CHL1  H15B13680   2.957   3.771   8.536 -0.1030  0.4869  1.1827
  101CHL1   C1613681   3.097   3.924   8.479 -0.1515  0.9876  0.5289
  101CHL1  H16A13682   3.205   3.901   8.471 -0.5218 -1.0440  1.0114
  101CHL1  H16B13683   3.057   3.932   8.376 -0.3867  2.1696  0.6941
  101CHL1   C1713684   3.091   4.061   8.547  0.4250 -0.3292 -0.0862
  101CHL1   H1713685   2.990   4.102   8.527 -0.2585 -1.5576  0.7419
  101CHL1   C1313686   3.109   4.032   8.696  0.0746 -0.0618 -0.4845
  101CHL1   C1813687   3.260   4.012   8.741  0.1343  0.6372  0.3723
  101CHL1  H18A13688   3.317   3.940   8.680  0.0851  0.5255  0.4580
  101CHL1  H18B13689   3.312   4.111   8.738  1.0886  0.1521  0.7379
  101CHL1  H18C13690   3.255   3.975   8.845 -3.4226 -0.1224  0.0552
  101CHL1   C1213691   3.049   4.138   8.787  0.2730  0.3085 -0.0974
  101CHL1  H12A13692   3.115   4.227   8.779 -1.0120  1.1286 -3.0242
  101CHL1  H12B13693   2.954   4.169   8.738  0.9652  0.2757 -1.5215
  101CHL1   C1113694   3.041   4.082   8.930  0.0247 -0.2052  0.1829
  101CHL1  H11A13695   3.146   4.087   8.966 -0.4222  0.2007  1.4638
  101CHL1  H11B13696   2.983   4.150   8.995 -1.7933 -2.9417  1.6071
  101CHL1    C913697   2.981   3.935   8.945 -0.4645 -0.5836 -0.5373
  101CHL1    H913698   2.872   3.945   8.929 -1.1162  1.7563  3.9626
  101CHL1   C1013699   2.986   3.886   9.091 -0.2094  0.7304  0.0387
  101CHL1   C1913700   3.130   3.889   9.148 -0.2769  0.7732 -0.2780
  101CHL1  H19A13701   3.203   3.843   9.078 -0.1925 -3.0050  1.9732
  101CHL1  H19B13702   3.171   3.991   9.158 -0.5504  0.8627 -0.0725
  101CHL1  H19C13703   3.151   3.840   9.246  0.0043 -0.5301 -0.9603
  101CHL1    C113704   2.901   3.978   9.190  0.4142  0.2581  0.2142
  101CHL1   H1A13705   2.944   4.079   9.208 -0.5367  0.8662 -0.7898
  101CHL1   H1B13706   2.804   3.999   9.141  0.5784 -0.3640 -0.3768
  101CHL1    C213707   2.874   3.911   9.325 -0.7499 -0.0489  0.9204
  101CHL1   H2A13708   2.796   3.967   9.382 -1.3202  0.8682 -0.6957
  101CHL1   H2B13709   2.966   3.894   9.385 -0.8626 -0.9187  0.8610
  101CHL1   C2013710   3.180   4.172   8.478  0.3338  0.5846 -0.1862
  101CHL1   H2013711   3.283   4.150   8.516 -0.2555 -1.0273  0.5609
  101CHL1   C2113712   3.151   4.311   8.528 -0.8034  0.5356 -0.2396
  101CHL1  H21A13713   3.184   4.320   8.633 -1.7780  0.0458  0.1186
  101CHL1  H21B13714   3.044   4.341   8.529 -1.2717 -0.9170 -1.6304
  101CHL1  H21C13715   3.204   4.382   8.461  1.2661 -0.7053 -0.0064
  101CHL1   C2213716   3.189   4.164   8.322  0.3212 -0.2085 -0.0339
  101CHL1  H22A13717   3.270   4.237   8.298 -1.0749  1.6692  0.6514
  101CHL1  H22B13718   3.216   4.059   8.298  0.7092 -0.0256 -0.4127
  101CHL1   C2313719   3.060   4.212   8.246  0.3136  0.1122  0.1194
  101CHL1  H23A13720   2.984   4.136   8.274  1.0170 -0.7070 -0.1075
  101CHL1  H23B13721   3.034   4.314   8.280 -2.0747  0.6190 -2.8218
  101CHL1   C2413722   3.074   4.205   8.088 -1.3492 -0.1524 -0.0833
  101CHL1  H24A13723   3.128   4.111   8.064 -1.6094 -0.4802  0.5887
  101CHL1  H24B13724   2.972   4.193   8.045 -1.3399  0.7356 -0.3564
  101CHL1   C2513725   3.166   4.319   8.032  0.0584 -0.2606 -1.2990
  101CHL1   H2513726   3.253   4.325   8.101 -1.7459 -0.3102  1.1268
  101CHL1   C2613727   3.223   4.265   7.897 -0.1803  0.1752 -0.3959
  101CHL1  H26A13728   3.297   4.339   7.858 -0.3773  0.3416 -0.4555
  101CHL1  H26B13729   3.269   4.168   7.924 -3.2131 -0.7167  2.2612
  101CHL1  H26C13730   3.138   4.255   7.826 -2.2290 -0.3311  1.9722
  101CHL1   C2713731   3.102   4.458   8.029  0.1462 -0.9052  0.1829
  101CHL1  H27A13732   3.014   4.451   7.961  0.2608  3.6548 -0.7034
  101CHL1  H27B13733   3.083   4.497   8.131 -0.2758  0.3364 -0.3533
  101CHL1  H27C13734   3.167   4.530   7.976 -0.3253 -0.3696  0.3204
  102CHL1    C313735   2.637   4.413   9.489  0.0257 -0.6370 -0.2201
  102CHL1    H313736   2.705   4.498   9.465 -1.6360  0.9575  0.4733
  102CHL1    O313737   2.609   4.407   9.629  0.0367 -0.0910 -0.7199
  102CHL1   H3'13738   2.550   4.332   9.635  1.1068 -0.8993  0.5233
  102CHL1    C413739   2.506   4.440   9.416  0.3348 -0.0074 -0.3987
  102CHL1   H4A13740   2.439   4.353   9.433 -0.1556 -0.2202 -2.9820
  102CHL1   H4B13741   2.449   4.524   9.461  1.1895  0.4590 -0.1639
  102CHL1    C513742   2.526   4.464   9.274  0.1293  0.7934 -0.5976
  102CHL1    C613743   2.487   4.573   9.212 -0.2019 -0.7295 -0.4596
  102CHL1    H613744   2.454   4.661   9.269  1.8532  0.2831 -0.7397
  102CHL1    C713745   2.489   4.597   9.061 -0.5552 -0.5217  0.1065
  102CHL1   H7A13746   2.387   4.624   9.026  0.3685  0.7670 -1.7423
  102CHL1   H7B13747   2.556   4.684   9.048 -1.1278 -0.1840 -0.6300
  102CHL1    C813748   2.542   4.468   8.978 -0.4001 -0.2982 -0.1075
  102CHL1    H813749   2.452   4.404   8.965  0.0209 -0.4054 -3.1810
  102CHL1   C1413750   2.593   4.498   8.840 -0.3809  0.0814  0.3370
  102CHL1   H1413751   2.685   4.557   8.861 -1.1791  1.3791  0.2620
  102CHL1   C1513752   2.514   4.592   8.757  0.7092  0.8901 -0.0075
  102CHL1  H15A13753   2.405   4.573   8.768  0.5629  2.2356  1.1351
  102CHL1  H15B13754   2.532   4.697   8.788  1.2049  0.5199  0.9903
  102CHL1   C1613755   2.554   4.566   8.611  0.5224 -0.0216  0.3992
  102CHL1  H16A13756   2.460   4.532   8.563  0.4889  1.8802 -0.9546
  102CHL1  H16B13757   2.594   4.659   8.565  0.5699 -0.8672 -1.3436
  102CHL1   C1713758   2.660   4.447   8.623 -0.4257  0.1507  0.4352
  102CHL1   H1713759   2.759   4.495   8.641  0.0550 -0.4136 -0.6462
  102CHL1   C1313760   2.631   4.378   8.757  0.3862 -0.4482 -0.4965
  102CHL1   C1813761   2.509   4.287   8.743  0.5357 -0.0613  0.1165
  102CHL1  H18A13762   2.540   4.200   8.682 -1.5263 -0.3588 -0.5672
  102CHL1  H18B13763   2.469   4.256   8.842  1.6260 -2.4154 -0.1173
  102CHL1  H18C13764   2.429   4.342   8.689  1.4419  0.7139 -0.4707
  102CHL1   C1213765   2.740   4.302   8.830 -0.4535  0.1867 -0.3904
  102CHL1  H12A13766   2.764   4.206   8.780 -0.0861  0.3684 -0.5640
  102CHL1  H12B13767   2.833   4.362   8.839 -0.9294  0.7679  0.8920
  102CHL1   C1113768   2.694   4.266   8.974  0.1257 -0.1245  0.8691
  102CHL1  H11A13769   2.610   4.194   8.966 -1.5706  1.8924 -0.0900
  102CHL1  H11B13770   2.775   4.222   9.036 -1.8155 -1.9238  2.2727
  102CHL1    C913771   2.642   4.387   9.060 -0.3248  0.5026 -0.7294
  102CHL1    H913772   2.732   4.450   9.076 -0.1820  0.4644 -1.3763
  102CHL1   C1013773   2.594   4.348   9.200  0.1378 -0.2774  0.0498
  102CHL1   C1913774   2.491   4.228   9.190  0.1413  0.0153 -0.1091
  102CHL1  H19A13775   2.399   4.267   9.141  0.2325  0.6470  0.2002
  102CHL1  H19B13776   2.537   4.142   9.139 -1.2413  0.8529 -2.9496
  102CHL1  H19C13777   2.461   4.205   9.295 -1.6507 -1.4869 -0.9039
  102CHL1    C113778   2.708   4.283   9.292  0.0267  0.1461 -0.3805
  102CHL1   H1A13779   2.727   4.183   9.248 -1.7998 -0.9918  1.3076
  102CHL1   H1B13780   2.798   4.347   9.274  0.5781 -1.0810 -2.3414
  102CHL1    C213781   2.693   4.278   9.442  0.4865 -0.4262  0.2028
  102CHL1   H2A13782   2.790   4.270   9.495  0.0934  2.2369  1.4947
  102CHL1   H2B13783   2.612   4.214   9.482 -0.6328  0.6404 -0.2836
  102CHL1   C2013784   2.679   4.375   8.487 -0.3906  0.1938 -0.6254
  102CHL1   H2013785   2.582   4.329   8.459  1.3781 -2.7816 -2.3483
  102CHL1   C2113786   2.759   4.247   8.503  0.0271 -0.2514 -0.0633
  102CHL1  H21A13787   2.778   4.206   8.401  1.1878  1.6174 -0.6485
  102CHL1  H21B13788   2.700   4.173   8.561 -2.1440  0.9887 -0.5562
  102CHL1  H21C13789   2.851   4.273   8.559 -1.5217 -0.1680  2.5994
  102CHL1   C2213790   2.727   4.472   8.377 -0.2909 -0.6735 -0.2191
  102CHL1  H22A13791   2.712   4.430   8.276 -0.3918 -1.2042  0.0141
  102CHL1  H22B13792   2.655   4.557   8.376  0.8213  0.3075  0.5550
  102CHL1   C2313793   2.866   4.533   8.396  0.5055 -0.3459 -0.2749
  102CHL1  H23A13794   2.908   4.575   8.490  1.6204 -1.1558 -0.3871
  102CHL1  H23B13795   2.942   4.456   8.372  1.4697  0.5266 -0.1035
  102CHL1   C2413796   2.897   4.654   8.298 -0.0814  0.5628  0.2428
  102CHL1  H24A13797   3.005   4.679   8.312  0.6740 -1.5993 -1.2216
  102CHL1  H24B13798   2.866   4.616   8.198  1.0301 -2.7522  1.0199
  102CHL1   C2513799   2.817   4.779   8.329  0.0862  0.6039 -0.2289
  102CHL1   H2513800   2.710   4.754   8.344 -0.8182  2.9738 -2.1177
  102CHL1   C2613801   2.877   4.847   8.452 -0.7703 -0.1622 -0.8426
  102CHL1  H26A13802   2.854   4.792   8.546 -1.6601 -0.6057 -1.3062
  102CHL1  H26B13803   2.986   4.862   8.438 -0.2477 -2.2437  0.5807
  102CHL1  H26C13804   2.832   4.948   8.466  1.7530  0.7432  1.5600
  102CHL1   C2713805   2.834   4.875   8.208  0.4138  0.8447 -0.0327
  102CHL1  H27A13806   2.763   4.960   8.210 -0.6169 -0.0211  1.6930
  102CHL1  H27B13807   2.934   4.923   8.201  0.5300  0.3959 -2.8803
  102CHL1  H27C13808   2.811   4.812   8.119 -2.6834  2.2687 -0.3644
  103CHL1    C313809   1.524   2.073   9.147  0.2289 -0.5252  0.3384
  103CHL1    H313810   1.421   2.103   9.117  0.4222  0.9422  1.0469
  103CHL1    O313811   1.518   2.061   9.287  0.5987  0.0323 -0.2774
  103CHL1   H3'13812   1.607   2.037   9.316  0.9572 -0.8812 -2.0288
  103CHL1    C413813   1.560   1.942   9.082 -0.5135  0.1794 -0.5737
  103CHL1   H4A13814   1.657   1.897   9.114  0.1964  1.3118 -1.0597
  103CHL1   H4B13815   1.485   1.862   9.102 -0.1112  0.0891  0.6671
  103CHL1    C513816   1.565   1.958   8.934  0.1642 -0.1515 -0.4920
  103CHL1    C613817   1.491   1.888   8.846 -0.6239 -0.0618  0.0650
  103CHL1    H613818   1.416   1.817   8.887 -0.9954 -1.0811 -2.2051
  103CHL1    C713819   1.495   1.907   8.696 -0.3344 -0.4458 -0.0630
  103CHL1   H7A13820   1.513   1.807   8.652  1.9778 -0.2281  0.2781
  103CHL1   H7B13821   1.398   1.944   8.655  1.2762  3.3080 -0.9379
  103CHL1    C813822   1.602   2.002   8.640  0.1599 -0.1569  0.6180
  103CHL1    H813823   1.698   1.948   8.628  0.1152 -0.4802  1.6105
  103CHL1   C1413824   1.566   2.054   8.498 -0.3912 -0.1646 -0.3301
  103CHL1   H1413825   1.470   2.109   8.513 -0.1188  0.2416 -0.0224
  103CHL1   C1513826   1.543   1.952   8.387  0.0942 -0.4157  0.0035
  103CHL1  H15A13827   1.620   1.873   8.398  0.0197 -0.2571  1.9094
  103CHL1  H15B13828   1.444   1.901   8.389  0.1845 -0.5925  2.2997
  103CHL1   C1613829   1.561   2.034   8.263  0.2484 -0.2400 -0.4556
  103CHL1  H16A13830   1.628   1.975   8.197 -0.0002 -2.7142  1.3691
  103CHL1  H16B13831   1.466   2.057   8.210 -0.5688  1.1424  1.4872
  103CHL1   C1713832   1.616   2.169   8.305 -0.6011 -0.9287 -0.2477
  103CHL1   H1713833   1.526   2.231   8.326 -1.1236 -1.1305 -1.7959
  103CHL1   C1313834   1.681   2.149   8.439  0.3535 -0.1633  0.5495
  103CHL1   C1813835   1.820   2.089   8.417  0.5771  0.2474  0.4763
  103CHL1  H18A13836   1.887   2.155   8.357  0.5674 -0.5500 -0.4360
  103CHL1  H18B13837   1.868   2.070   8.515 -0.0508 -0.1384  0.7125
  103CHL1  H18C13838   1.810   1.986   8.378 -0.5636 -1.3009  4.3898
  103CHL1   C1213839   1.676   2.275   8.529 -0.0616 -0.1586 -0.1705
  103CHL1  H12A13840   1.739   2.354   8.484  0.1432 -1.2201 -1.8355
  103CHL1  H12B13841   1.576   2.323   8.518 -0.0029  0.0883  0.3349
  103CHL1   C1113842   1.704   2.234   8.683 -0.0675  0.6469  0.5363
  103CHL1  H11A13843   1.810   2.201   8.681 -0.6685 -1.7456  2.6586
  103CHL1  H11B13844   1.693   2.330   8.738  1.9218  1.4110 -0.3148
  103CHL1    C913845   1.614   2.114   8.737 -0.2856 -0.5401 -0.1869
  103CHL1    H913846   1.509   2.148   8.751 -0.5804 -1.0944 -0.9652
  103CHL1   C1013847   1.656   2.074   8.883  0.0946 -0.5323 -0.4164
  103CHL1   C1913848   1.797   2.024   8.890 -0.0051 -0.2642 -0.0855
  103CHL1  H19A13849   1.825   1.937   8.827  0.9535  0.0015 -0.0528
  103CHL1  H19B13850   1.876   2.095   8.857 -0.4599  0.3657  0.1606
  103CHL1  H19C13851   1.829   2.004   8.995 -0.3928 -0.9828 -0.0948
  103CHL1    C113852   1.639   2.208   8.961 -0.1343  0.5434 -0.1540
  103CHL1   H1A13853   1.731   2.267   8.939 -0.2607  0.3300 -1.2953
  103CHL1   H1B13854   1.550   2.264   8.926 -1.1132 -0.8563  0.0118
  103CHL1    C213855   1.627   2.184   9.116 -0.5486  0.0671 -0.8922
  103CHL1   H2A13856   1.602   2.280   9.167  4.2002  0.3057  1.5172
  103CHL1   H2B13857   1.724   2.159   9.163 -0.9268  0.3098  0.0416
  103CHL1   C2013858   1.696   2.236   8.188  0.0040  0.7565 -0.1829
  103CHL1   H2013859   1.779   2.168   8.158 -1.8939 -1.0180 -1.7988
  103CHL1   C2113860   1.749   2.378   8.218 -0.1904  0.2368  0.2376
  103CHL1  H21A13861   1.802   2.428   8.134  0.2568  2.0012  1.5274
  103CHL1  H21B13862   1.829   2.358   8.293  0.2349  0.3950 -0.1714
  103CHL1  H21C13863   1.670   2.448   8.251  1.0153  1.9612 -0.4025
  103CHL1   C2213864   1.612   2.237   8.057  0.0993  0.0582 -0.3481
  103CHL1  H22A13865   1.564   2.139   8.037 -1.9909  1.1890 -1.2836
  103CHL1  H22B13866   1.527   2.307   8.075 -0.4115 -0.7849  0.6172
  103CHL1   C2313867   1.691   2.274   7.923 -0.1247  0.9188 -1.0474
  103CHL1  H23A13868   1.731   2.377   7.930 -2.1413  1.6341  1.5064
  103CHL1  H23B13869   1.775   2.202   7.920  0.4553  1.5659 -0.4422
  103CHL1   C2413870   1.609   2.259   7.798  0.0501 -0.4201  0.5468
  103CHL1  H24A13871   1.568   2.156   7.808 -0.1131 -0.2451  1.9598
  103CHL1  H24B13872   1.523   2.329   7.802 -0.4735 -1.1029  3.2514
  103CHL1   C2513873   1.689   2.264   7.670  0.2788 -0.2895  0.3413
  103CHL1   H2513874   1.780   2.201   7.680  0.7613  0.5964  1.8118
  103CHL1   C2613875   1.600   2.208   7.558 -0.0514  0.2953  0.4922
  103CHL1  H26A13876   1.657   2.210   7.463 -1.6771 -2.1905 -0.6187
  103CHL1  H26B13877   1.574   2.102   7.580  1.2024 -0.8401 -2.8744
  103CHL1  H26C13878   1.509   2.270   7.543  1.4515  2.9722  1.6408
  103CHL1   C2713879   1.732   2.406   7.639 -0.3402 -0.5673 -0.1841
  103CHL1  H27A13880   1.647   2.475   7.658  0.0455  0.0156 -0.5429
  103CHL1  H27B13881   1.808   2.443   7.711 -0.6188 -0.9165  0.2916
  103CHL1  H27C13882   1.767   2.435   7.537  0.6853  0.2829  0.3876
  104CHL1    C313883   5.023   3.622   9.015  0.2222 -0.5605 -0.0294
  104CHL1    H313884   4.976   3.534   8.965  0.4299 -1.0814  0.6776
  104CHL1    O313885   4.997   3.615   9.150 -0.1265 -0.4312  0.0463
  104CHL1   H3'13886   5.015   3.699   9.192  1.5299 -1.0299  0.6142
  104CHL1    C413887   5.174   3.609   8.976 -0.3423 -0.0910  0.0701
  104CHL1   H4A13888   5.219   3.695   9.031 -0.9012 -0.9733  1.9998
  104CHL1   H4B13889   5.210   3.513   9.018 -0.9212 -1.4334 -2.3125
  104CHL1    C513890   5.201   3.633   8.829 -1.1225  0.5480 -0.2258
  104CHL1    C613891   5.284   3.547   8.768 -0.3907  0.4519  0.1371
  104CHL1    H613892   5.345   3.482   8.832  0.9038  0.1159 -1.3627
  104CHL1    C713893   5.316   3.552   8.619  0.2385  0.3386 -0.3600
  104CHL1   H7A13894   5.424   3.545   8.595  0.4643 -1.8772  0.9463
  104CHL1   H7B13895   5.274   3.456   8.581  1.6427 -0.2721 -0.4360
  104CHL1    C813896   5.253   3.670   8.545 -0.1499  1.0137  0.4341
  104CHL1    H813897   5.326   3.751   8.566 -1.3253  1.8997  1.2350
  104CHL1   C1413898   5.248   3.642   8.393  0.3348 -1.0318  0.1666
  104CHL1   H1413899   5.175   3.560   8.374  1.4540 -1.7092 -1.5440
  104CHL1   C1513900   5.377   3.592   8.323  0.0615  0.3745 -0.2695
  104CHL1  H15A13901   5.462   3.650   8.367 -0.8931 -0.4978  3.0144
  104CHL1  H15B13902   5.383   3.486   8.355 -2.1663 -0.0298 -1.0374
  104CHL1   C1613903   5.354   3.616   8.180 -0.4659 -0.3283  0.2713
  104CHL1  H16A13904   5.435   3.688   8.155  0.7637 -1.8665 -0.3359
  104CHL1  H16B13905   5.371   3.523   8.121  0.6837  0.5660 -0.8600
  104CHL1   C1713906   5.209   3.680   8.164 -0.0464  0.0602  0.2127
  104CHL1   H1713907   5.142   3.594   8.140  0.7951 -0.3179 -0.8711
  104CHL1   C1313908   5.177   3.744   8.303 -0.0636  0.4388  0.1162
  104CHL1   C1813909   5.256   3.876   8.317 -0.1344 -0.0480 -0.1376
  104CHL1  H18A13910   5.205   3.944   8.245 -1.8395 -0.6795  0.4285
  104CHL1  H18B13911   5.247   3.929   8.414  1.6826 -0.0174  0.0558
  104CHL1  H18C13912   5.364   3.866   8.292 -0.5366  1.0628 -2.7318
  104CHL1   C1213913   5.041   3.763   8.352 -0.0452  0.5316  0.6111
  104CHL1  H12A13914   4.983   3.833   8.289  1.7375  0.4465 -1.2419
  104CHL1  H12B13915   4.982   3.669   8.341 -0.0658  0.7974 -2.5301
  104CHL1   C1113916   5.040   3.800   8.500  0.6424 -0.1113  0.3317
  104CHL1  H11A13917   5.074   3.901   8.532  0.9703 -0.9842  2.9471
  104CHL1  H11B13918   4.931   3.796   8.525  0.9729 -0.9217  1.7536
  104CHL1    C913919   5.113   3.700   8.593  0.2828  0.3120 -0.5863
  104CHL1    H913920   5.061   3.603   8.574 -0.2384  0.8846 -2.2849
  104CHL1   C1013921   5.122   3.733   8.746  0.4424  0.5657 -0.0652
  104CHL1   C1913922   5.186   3.870   8.770 -0.1522  0.1423  0.8538
  104CHL1  H19A13923   5.136   3.956   8.720  2.7003  1.1973 -0.4206
  104CHL1  H19B13924   5.187   3.898   8.877 -1.8331  2.1314  0.3991
  104CHL1  H19C13925   5.290   3.866   8.731 -0.5708 -1.4995 -0.1997
  104CHL1    C113926   4.975   3.737   8.797  0.3858 -0.3617  0.2580
  104CHL1   H1A13927   4.925   3.831   8.765  1.5731 -0.2965 -1.5549
  104CHL1   H1B13928   4.918   3.652   8.752  0.3663  0.3441 -1.0765
  104CHL1    C213929   4.951   3.743   8.950  0.1717 -0.6220  0.9627
  104CHL1   H2A13930   4.840   3.729   8.954 -0.2305 -1.2570 -4.6838
  104CHL1   H2B13931   4.998   3.837   8.985 -0.5390 -0.2726  1.0027
  104CHL1   C2013932   5.194   3.755   8.028  0.2469  0.1853 -0.1701
  104CHL1   H2013933   5.267   3.839   8.023  0.2709  0.0715 -3.4834
  104CHL1   C2113934   5.051   3.810   8.021  0.4388 -0.4925 -0.2191
  104CHL1  H21A13935   4.974   3.732   8.041  1.3781 -1.3418  0.1980
  104CHL1  H21B13936   5.023   3.857   7.925  0.5718 -0.1790 -0.1056
  104CHL1  H21C13937   5.039   3.891   8.096 -2.2553  0.3821 -1.4621
  104CHL1   C2213938   5.245   3.681   7.903  0.5577  0.3522  0.0222
  104CHL1  H22A13939   5.346   3.642   7.930  0.2689  0.0961  0.7671
  104CHL1  H22B13940   5.172   3.598   7.890 -0.2948  1.1953 -0.6727
  104CHL1   C2313941   5.248   3.759   7.770  0.6285 -0.0328  0.4755
  104CHL1  H23A13942   5.145   3.789   7.741  0.5634 -0.5453  0.1486
  104CHL1  H23B13943   5.302   3.851   7.802 -0.2520  0.7872 -0.3490
  104CHL1   C2413944   5.311   3.678   7.650  0.0866  0.2085 -0.7266
  104CHL1  H24A13945   5.408   3.638   7.685  0.5192  2.1795  0.4965
  104CHL1  H24B13946   5.243   3.593   7.625 -1.0619  0.4486  1.3442
  104CHL1   C2513947   5.344   3.758   7.523 -0.3983  0.4061  0.2275
  104CHL1   H2513948   5.251   3.789   7.470 -0.1164 -0.9967 -1.1767
  104CHL1   C2613949   5.439   3.877   7.538  0.2212 -1.1011  0.1611
  104CHL1  H26A13950   5.540   3.841   7.568  0.1462 -0.9715  0.5641
  104CHL1  H26B13951   5.445   3.936   7.444 -1.1619 -0.8471  0.2093
  104CHL1  H26C13952   5.406   3.940   7.623  1.7546 -1.1041  0.7975
  104CHL1   C2713953   5.398   3.666   7.412  0.4209 -0.7976  0.2439
  104CHL1  H27A13954   5.312   3.601   7.383 -0.6874  0.2069  1.1493
  104CHL1  H27B13955   5.423   3.717   7.317 -1.5833  0.8017  0.5089
  104CHL1  H27C13956   5.484   3.604   7.444  0.2343 -0.5387  1.2916
  105CHL1    C313957   5.368   2.601   9.182 -0.1631  0.0087 -0.1301
  105CHL1    H313958   5.389   2.509   9.123 -1.8443 -0.3849 -0.1920
  105CHL1    O313959   5.437   2.599   9.309 -0.3194  0.2854 -0.2447
  105CHL1   H3'13960   5.405   2.523   9.356  0.9312  0.3777  0.8083
  105CHL1    C413961   5.405   2.720   9.105 -0.1630 -0.1473  0.5499
  105CHL1   H4A13962   5.398   2.820   9.153  1.4106  1.5093 -2.3905
  105CHL1   H4B13963   5.516   2.716   9.098 -0.2517 -2.7651 -1.0560
  105CHL1    C513964   5.329   2.732   8.973  0.5116 -0.4198  0.6569
  105CHL1    C613965   5.396   2.742   8.851  0.0494  0.0183  0.0196
  105CHL1    H613966   5.506   2.743   8.848  0.1595  3.2527  1.0307
  105CHL1    C713967   5.336   2.760   8.720 -0.2527  0.4235  0.1555
  105CHL1   H7A13968   5.389   2.838   8.663  0.3980  0.9368  1.4151
  105CHL1   H7B13969   5.347   2.669   8.658 -2.0191  0.9349 -0.9861
  105CHL1    C813970   5.183   2.785   8.722 -1.1527 -0.0924 -0.4452
  105CHL1    H813971   5.163   2.894   8.729 -2.5787 -0.4327  2.0480
  105CHL1   C1413972   5.119   2.754   8.579 -0.7254  0.0961  0.6033
  105CHL1   H1413973   5.152   2.650   8.556  1.2908  0.9236 -0.4387
  105CHL1   C1513974   5.172   2.836   8.455  0.7738  0.4426 -0.3098
  105CHL1  H15A13975   5.182   2.944   8.482 -1.5986  0.4006  1.0698
  105CHL1  H15B13976   5.264   2.792   8.412 -0.9813 -0.6274 -3.2306
  105CHL1   C1613977   5.056   2.822   8.353  0.8026 -0.3606  0.5138
  105CHL1  H16A13978   5.023   2.926   8.330  1.1196 -0.4610 -0.4591
  105CHL1  H16B13979   5.094   2.782   8.256  2.2264  0.2775  0.7800
  105CHL1   C1713980   4.944   2.744   8.422 -0.2083 -0.2095 -0.0811
  105CHL1   H1713981   4.963   2.635   8.407 -0.3176 -0.0448 -1.6046
  105CHL1   C1313982   4.969   2.768   8.576 -0.3921 -0.2965 -0.3983
  105CHL1   C1813983   4.927   2.917   8.603 -0.4196 -0.0313  0.2509
  105CHL1  H18A13984   4.969   2.999   8.541 -1.8958  0.2591 -0.4132
  105CHL1  H18B13985   4.816   2.922   8.599 -0.4299  1.9609  1.6108
  105CHL1  H18C13986   4.956   2.947   8.706 -1.6035  0.1015  0.5561
  105CHL1   C1213987   4.914   2.673   8.685 -0.1432  0.3300  0.7104
  105CHL1  H12A13988   4.804   2.669   8.694 -0.3096 -1.3439 -1.2395
  105CHL1  H12B13989   4.953   2.576   8.648  0.1913  1.0252 -0.8518
  105CHL1   C1113990   4.965   2.688   8.824 -0.4251 -0.1965 -0.5000
  105CHL1  H11A13991   4.912   2.776   8.868 -1.0138 -2.3058  3.4543
  105CHL1  H11B13992   4.939   2.600   8.885  0.0678  1.2582  1.9326
  105CHL1    C913993   5.122   2.697   8.835 -0.0537 -0.7902 -0.1008
  105CHL1    H913994   5.157   2.593   8.818 -1.2914 -0.8534 -2.7764
  105CHL1   C1013995   5.177   2.729   8.977 -0.3058 -0.2138 -0.3670
  105CHL1   C1913996   5.118   2.851   9.050  0.1803  0.1577 -0.6918
  105CHL1  H19A13997   5.159   2.857   9.153  0.7920 -0.0828 -0.9122
  105CHL1  H19B13998   5.141   2.946   8.997  1.9428 -0.3780 -0.9561
  105CHL1  H19C13999   5.010   2.830   9.069  0.8090 -1.2156  1.9450
  105CHL1    C114000   5.142   2.610   9.067 -0.3269  0.1474  0.2157
  105CHL1   H1A14001   5.035   2.591   9.094  0.2716 -1.9797  1.2830
  105CHL1   H1B14002   5.172   2.519   9.012 -0.2055  0.4038 -0.1450
  105CHL1    C214003   5.216   2.603   9.204 -0.1608  0.3638 -0.2976
  105CHL1   H2A14004   5.171   2.509   9.243 -0.9344  0.7405 -0.2612
  105CHL1   H2B14005   5.187   2.683   9.276  1.6300 -0.8559  1.9235
  105CHL1   C2014006   4.804   2.771   8.358  0.1487 -0.0116 -0.8830
  105CHL1   H2014007   4.772   2.876   8.379  1.6129 -0.0387  1.8327
  105CHL1   C2114008   4.698   2.674   8.419 -0.1806  0.4970 -0.3172
  105CHL1  H21A14009   4.604   2.688   8.361 -0.1116  0.0874 -0.5328
  105CHL1  H21B14010   4.675   2.690   8.527 -0.3003 -1.4327 -0.0143
  105CHL1  H21C14011   4.730   2.568   8.406  0.6175  0.7615 -0.5298
  105CHL1   C2214012   4.809   2.744   8.207  0.1891 -1.1287 -0.1084
  105CHL1  H22A14013   4.889   2.809   8.166 -1.6590  0.7194 -0.9552
  105CHL1  H22B14014   4.837   2.639   8.184  0.1017 -1.4480  1.1508
  105CHL1   C2314015   4.681   2.793   8.127 -0.4408  0.4754  0.0868
  105CHL1  H23A14016   4.585   2.754   8.167  0.9492 -3.0536  0.3391
  105CHL1  H23B14017   4.690   2.903   8.142 -0.1946  0.6943 -1.4764
  105CHL1   C2414018   4.685   2.759   7.974  0.6948 -0.0507 -0.3121
  105CHL1  H24A14019   4.769   2.687   7.967  2.4175  1.7267  0.8718
  105CHL1  H24B14020   4.589   2.712   7.942 -2.2008  4.0039  1.5689
  105CHL1   C2514021   4.707   2.882   7.885 -0.7432 -0.2550 -0.6871
  105CHL1   H2514022   4.651   2.961   7.938  1.9213  1.4041 -0.1415
  105CHL1   C2614023   4.856   2.921   7.874  0.7511  0.4778  0.2739
  105CHL1  H26A14024   4.899   2.921   7.977 -1.0381 -1.8026  1.1215
  105CHL1  H26B14025   4.905   2.840   7.816 -0.4048  1.3046 -1.9406
  105CHL1  H26C14026   4.880   3.019   7.829 -0.2219  0.7169  0.2765
  105CHL1   C2714027   4.639   2.870   7.749 -0.0784 -0.1431  0.1184
  105CHL1  H27A14028   4.644   2.953   7.676 -0.1279 -0.3241 -0.0899
  105CHL1  H27B14029   4.664   2.772   7.705  0.9695 -1.6972  3.7979
  105CHL1  H27C14030   4.530   2.859   7.770 -0.1352 -0.6871 -0.4523
  106CHL1    C314031   0.588   2.184   8.744 -0.5825  0.3685  0.2113
  106CHL1    H314032   0.514   2.108   8.712 -2.0811  1.9844 -0.2985
  106CHL1    O314033   0.611   2.177   8.884 -0.2000  0.4580  0.9485
  106CHL1   H3'14034   0.529   2.212   8.919 -1.1752  0.9129 -1.6231
  106CHL1    C414035   0.721   2.159   8.668  0.1031  0.0219  0.2093
  106CHL1   H4A14036   0.805   2.220   8.707 -0.1833 -0.7897  2.1984
  106CHL1   H4B14037   0.752   2.053   8.679  0.8919  0.4268  2.2681
  106CHL1    C514038   0.719   2.184   8.512 -0.2109 -0.8344 -0.2183
  106CHL1    C614039   0.759   2.096   8.421  0.5322  0.2465 -0.4868
  106CHL1    H614040   0.802   2.004   8.465 -0.2400  0.7669  1.4652
  106CHL1    C714041   0.776   2.123   8.274  0.4635  0.6210  0.1918
  106CHL1   H7A14042   0.877   2.096   8.236  0.0777 -0.0304 -0.3927
  106CHL1   H7B14043   0.705   2.070   8.207  2.3612  0.5194 -1.8677
  106CHL1    C814044   0.769   2.277   8.240 -0.3785 -0.1049 -0.4885
  106CHL1    H814045   0.866   2.324   8.268 -0.1910  0.7125 -2.3817
  106CHL1   C1414046   0.741   2.291   8.095  0.5836  0.1426 -0.0840
  106CHL1   H1414047   0.641   2.245   8.078  0.1673  1.3194 -0.9154
  106CHL1   C1514048   0.835   2.220   7.993  0.4725  0.5424  0.0558
  106CHL1  H15A14049   0.937   2.225   8.036  1.1919  2.6998 -1.7370
  106CHL1  H15B14050   0.813   2.115   7.964  2.2748  0.3351 -0.7214
  106CHL1   C1614051   0.819   2.307   7.865 -0.1092  0.4192 -0.1921
  106CHL1  H16A14052   0.917   2.357   7.845  0.0352  0.6840  1.1069
  106CHL1  H16B14053   0.798   2.245   7.775  1.6116 -1.1289  0.4077
  106CHL1   C1714054   0.711   2.408   7.902  0.6348 -0.0961 -0.5860
  106CHL1   H1714055   0.616   2.354   7.885  0.0896 -0.0469  1.9422
  106CHL1   C1314056   0.715   2.428   8.052 -0.2860 -0.8955  0.0044
  106CHL1   C1814057   0.840   2.527   8.083  0.0859  0.5173 -0.6164
  106CHL1  H18A14058   0.933   2.482   8.040  1.1672  1.7599  0.3430
  106CHL1  H18B14059   0.816   2.629   8.046 -1.4680  0.5871  0.5157
  106CHL1  H18C14060   0.868   2.535   8.190 -0.0073 -0.3663 -0.5199
  106CHL1   C1214061   0.596   2.491   8.121 -0.3291  0.2759  0.1510
  106CHL1  H12A14062   0.581   2.594   8.081  2.5714  0.7969  0.2043
  106CHL1  H12B14063   0.506   2.431   8.095  0.4944 -1.0644  0.3310
  106CHL1   C1114064   0.617   2.486   8.269 -0.6699 -0.4529 -0.2890
  106CHL1  H11A14065   0.701   2.552   8.299 -0.0106 -0.4370 -2.0648
  106CHL1  H11B14066   0.527   2.520   8.325  0.1945  1.0190  0.2850
  106CHL1    C914067   0.657   2.345   8.320 -0.3193 -0.7558 -0.1549
  106CHL1    H914068   0.561   2.294   8.296 -0.4363  0.0651 -1.4809
  106CHL1   C1014069   0.671   2.328   8.473  0.1139 -0.5576 -0.3410
  106CHL1   C1914070   0.780   2.428   8.516  0.4446 -0.0121  1.0454
  106CHL1  H19A14071   0.816   2.413   8.620  2.7606  1.7346  0.5925
  106CHL1  H19B14072   0.866   2.415   8.447 -0.8810 -0.8285 -0.5366
  106CHL1  H19C14073   0.745   2.533   8.513  0.8035  0.1118 -1.7858
  106CHL1    C114074   0.541   2.352   8.555  0.0687  0.1643  0.8288
  106CHL1   H1A14075   0.514   2.460   8.560  0.0667  0.1259  2.0332
  106CHL1   H1B14076   0.452   2.296   8.518 -1.2559  2.6400  0.0304
  106CHL1    C214077   0.548   2.322   8.707  0.1003  1.0829 -0.0909
  106CHL1   H2A14078   0.450   2.340   8.757  0.4073 -2.9818  2.4295
  106CHL1   H2B14079   0.618   2.395   8.753  0.5239  2.1666 -2.2921
  106CHL1   C2014080   0.698   2.528   7.813  0.0010  0.0849  0.4368
  106CHL1   H2014081   0.665   2.624   7.858  2.5278  0.8932  0.7434
  106CHL1   C2114082   0.585   2.492   7.710 -0.3569  0.1757 -0.4289
  106CHL1  H21A14083   0.614   2.409   7.641  0.0706 -1.3101  1.4485
  106CHL1  H21B14084   0.568   2.584   7.649 -2.3267  0.5804  0.6644
  106CHL1  H21C14085   0.487   2.483   7.761 -0.8850 -0.0246 -1.4507
  106CHL1   C2214086   0.826   2.559   7.734  0.5754 -0.7663 -0.6571
  106CHL1  H22A14087   0.911   2.571   7.805  0.9709  1.1360 -1.3968
  106CHL1  H22B14088   0.845   2.471   7.668 -0.0478 -0.2074 -1.5925
  106CHL1   C2314089   0.804   2.684   7.651 -0.4195  0.5931  0.6674
  106CHL1  H23A14090   0.706   2.734   7.667 -1.3812 -0.4591 -1.4945
  106CHL1  H23B14091   0.884   2.758   7.673 -0.2750  0.5153  0.4107
  106CHL1   C2414092   0.838   2.658   7.503  0.3170 -0.0327  0.2039
  106CHL1  H24A14093   0.945   2.626   7.497  1.1352  2.3967  0.6460
  106CHL1  H24B14094   0.763   2.593   7.453 -0.7378  2.3680 -1.5481
  106CHL1   C2514095   0.835   2.789   7.425 -0.4933 -0.0138  0.2872
  106CHL1   H2514096   0.913   2.854   7.470 -1.1627  0.3161  0.9860
  106CHL1   C2614097   0.880   2.747   7.278  0.2322  0.1933  0.3498
  106CHL1  H26A14098   0.821   2.665   7.231  0.3701  0.6502 -0.6441
  106CHL1  H26B14099   0.850   2.829   7.209 -0.5955 -0.8060 -0.5077
  106CHL1  H26C14100   0.988   2.729   7.265 -0.0236 -0.7891 -0.5122
  106CHL1   C2714101   0.700   2.865   7.429 -0.1511  0.1412 -0.1522
  106CHL1  H27A14102   0.614   2.806   7.392  0.1808 -1.3690  1.3794
  106CHL1  H27B14103   0.671   2.908   7.527 -0.7537 -1.9460  0.6267
  106CHL1  H27C14104   0.698   2.948   7.354 -1.3641  0.0939 -0.1848
  107CHL1    C314105   3.546   5.987   9.391 -0.2412  0.0600  0.7103
  107CHL1    H314106   3.643   5.942   9.421  0.2090  0.4496 -0.1357
  107CHL1    O314107   3.474   5.993   9.508  1.1460  0.2209 -0.2008
  107CHL1   H3'14108   3.408   6.061   9.495  0.2342 -0.9057 -1.7585
  107CHL1    C414109   3.585   6.127   9.345 -0.2247  0.7119  0.0008
  107CHL1   H4A14110   3.493   6.190   9.345 -2.0861 -1.7618  2.7469
  107CHL1   H4B14111   3.659   6.180   9.409 -0.1782  0.3777  0.2223
  107CHL1    C514112   3.636   6.135   9.201  0.2635 -0.4540 -0.3846
  107CHL1    C614113   3.753   6.180   9.174  0.3045 -0.2945 -0.7781
  107CHL1    H614114   3.810   6.234   9.251  0.2650  0.3636 -1.2007
  107CHL1    C714115   3.821   6.190   9.041  0.0826 -0.3550 -0.3224
  107CHL1   H7A14116   3.867   6.290   9.024 -2.3547  0.5244 -2.2344
  107CHL1   H7B14117   3.898   6.110   9.031  1.2925  0.6963  0.1884
  107CHL1    C814118   3.723   6.178   8.919  0.9064 -0.0057 -0.5095
  107CHL1    H814119   3.672   6.276   8.908  2.4650  0.8294 -0.4907
  107CHL1   C1414120   3.789   6.155   8.785 -0.3430  0.6474 -0.6872
  107CHL1   H1414121   3.850   6.062   8.787  0.9417  1.3997 -2.3404
  107CHL1   C1514122   3.901   6.251   8.743 -0.1315 -0.9338 -0.2953
  107CHL1  H15A14123   3.866   6.355   8.763 -0.5166 -1.2677  0.8802
  107CHL1  H15B14124   3.995   6.239   8.801  0.6112  1.3460 -0.9307
  107CHL1   C1614125   3.902   6.236   8.594 -0.5126  0.0721  0.1621
  107CHL1  H16A14126   3.874   6.331   8.545 -0.7798 -0.4296 -0.6825
  107CHL1  H16B14127   3.998   6.198   8.552 -0.5754 -0.3521  0.3900
  107CHL1   C1714128   3.795   6.133   8.549 -0.0770 -0.0235 -0.2083
  107CHL1   H1714129   3.829   6.028   8.560 -0.2064 -0.2947 -2.0620
  107CHL1   C1314130   3.693   6.143   8.668 -0.3595 -0.0280 -0.4393
  107CHL1   C1814131   3.603   6.270   8.657 -0.0507  0.6942  0.0512
  107CHL1  H18A14132   3.653   6.368   8.639  1.3068  0.3812  1.8262
  107CHL1  H18B14133   3.520   6.247   8.587 -1.8966  0.5423  2.1910
  107CHL1  H18C14134   3.540   6.297   8.744 -0.2072  2.9288 -0.6698
  107CHL1   C1214135   3.604   6.020   8.699 -0.1896  0.4439  0.7294
  107CHL1  H12A14136   3.518   6.016   8.628  0.7041  0.5109 -0.3880
  107CHL1  H12B14137   3.668   5.930   8.686 -0.8903 -0.0816  0.8482
  107CHL1   C1114138   3.532   6.024   8.831  0.3539 -0.0593 -0.4401
  107CHL1  H11A14139   3.449   6.098   8.825 -1.4079 -1.7816  1.2519
  107CHL1  H11B14140   3.477   5.929   8.851 -2.3219  1.8618  2.1554
  107CHL1    C914141   3.621   6.059   8.955 -0.3875 -0.1014  0.2790
  107CHL1    H914142   3.687   5.969   8.958  0.2799  0.2310 -2.1390
  107CHL1   C1014143   3.550   6.071   9.091  0.8130 -0.3700  0.2673
  107CHL1   C1914144   3.420   6.151   9.074 -0.6663 -0.0084 -0.3097
  107CHL1  H19A14145   3.366   6.161   9.170  2.6596 -2.1900  1.9981
  107CHL1  H19B14146   3.439   6.253   9.034 -0.9442  1.3032  2.6369
  107CHL1  H19C14147   3.336   6.103   9.020 -1.4505 -0.2991  1.1463
  107CHL1    C114148   3.518   5.926   9.135 -0.4402  0.0155  0.3087
  107CHL1   H1A14149   3.448   5.883   9.060  0.7930  0.0500 -0.9116
  107CHL1   H1B14150   3.608   5.862   9.123  0.3363  1.3281 -1.3725
  107CHL1    C214151   3.466   5.911   9.279  0.2265  0.5299 -0.3904
  107CHL1   H2A14152   3.449   5.804   9.300  0.6883  0.1768 -1.7031
  107CHL1   H2B14153   3.364   5.954   9.284 -0.2272 -0.5928  0.2657
  107CHL1   C2014154   3.747   6.160   8.404  1.0842 -1.0676 -0.2738
  107CHL1   H2014155   3.706   6.263   8.400  0.5317 -1.1339  2.2217
  107CHL1   C2114156   3.638   6.062   8.375  0.2591  0.5690 -0.5807
  107CHL1  H21A14157   3.644   6.028   8.269 -2.2760  1.1147 -0.9469
  107CHL1  H21B14158   3.537   6.098   8.404 -0.2258 -0.0636 -1.4266
  107CHL1  H21C14159   3.663   5.974   8.437  1.7759  0.1136 -1.7752
  107CHL1   C2214160   3.851   6.162   8.294 -0.6955 -0.0996  0.0072
  107CHL1  H22A14161   3.938   6.216   8.336  0.6513 -1.7252 -0.5998
  107CHL1  H22B14162   3.891   6.061   8.271 -0.2360  0.1428 -0.2716
  107CHL1   C2314163   3.815   6.250   8.173  0.2964 -0.0121  1.1301
  107CHL1  H23A14164   3.728   6.218   8.112  0.4649 -1.6784  1.7165
  107CHL1  H23B14165   3.796   6.351   8.215  0.9090 -0.2425  1.9865
  107CHL1   C2414166   3.937   6.256   8.077  0.2086  0.5427 -0.1050
  107CHL1  H24A14167   4.009   6.312   8.140  0.7186 -0.5584  0.3072
  107CHL1  H24B14168   3.969   6.155   8.045 -1.2489 -0.3269  1.0663
  107CHL1   C2514169   3.929   6.345   7.949 -0.5028 -0.3855 -0.2760
  107CHL1   H2514170   3.878   6.442   7.966 -2.1917 -1.2997  0.1821
  107CHL1   C2614171   4.078   6.365   7.901  0.4638  0.0675  0.0548
  107CHL1  H26A14172   4.146   6.422   7.968  1.6636  0.3206 -1.3198
  107CHL1  H26B14173   4.111   6.261   7.879 -0.7873 -0.5404  0.9742
  107CHL1  H26C14174   4.069   6.415   7.802  0.8265 -0.1456 -0.0882
  107CHL1   C2714175   3.842   6.273   7.856 -0.1335  0.6105 -0.5150
  107CHL1  H27A14176   3.828   6.310   7.753  0.9245 -1.4527 -1.4652
  107CHL1  H27B14177   3.887   6.172   7.844  0.4298  1.0104 -1.9383
  107CHL1  H27C14178   3.744   6.257   7.906  0.7911 -1.2784  0.8720
  108CHL1    C314179   4.535   3.025   9.263 -0.3101  0.1938  0.1240
  108CHL1    H314180   4.464   3.109   9.277 -1.3962 -0.8245  0.8926
  108CHL1    O314181   4.579   2.977   9.384 -0.3658 -0.1273  0.2647
  108CHL1   H3'14182   4.656   2.925   9.358  0.5546  0.7682  1.1118
  108CHL1    C414183   4.466   2.907   9.192  0.5485  0.0677 -0.2385
  108CHL1   H4A14184   4.528   2.815   9.198 -0.3747 -0.5207  0.6973
  108CHL1   H4B14185   4.385   2.888   9.266  0.1990 -1.0007 -0.8823
  108CHL1    C514186   4.421   2.949   9.058 -0.7381 -0.2120 -0.5649
  108CHL1    C614187   4.293   2.944   9.029 -0.0763  0.2493 -0.7520
  108CHL1    H614188   4.221   2.896   9.097  0.6078 -1.2165 -1.0198
  108CHL1    C714189   4.241   2.977   8.889 -0.1190 -0.4959  0.2319
  108CHL1   H7A14190   4.180   2.892   8.851 -1.2549  0.5075 -0.2667
  108CHL1   H7B14191   4.193   3.076   8.903  2.2161  0.5754  1.1568
  108CHL1    C814192   4.361   2.978   8.787  0.5702  0.3315 -0.9131
  108CHL1    H814193   4.396   2.874   8.771  1.5387  0.1442  1.9397
  108CHL1   C1414194   4.308   3.039   8.660  0.3539 -0.2127  0.6978
  108CHL1   H1414195   4.283   3.143   8.688  0.0350  0.4025 -1.6234
  108CHL1   C1514196   4.184   2.971   8.592 -0.3021 -0.2480 -0.0680
  108CHL1  H15A14197   4.193   2.861   8.583 -1.9197 -0.2695 -2.1022
  108CHL1  H15B14198   4.085   2.992   8.638 -0.8791 -1.2442 -0.8147
  108CHL1   C1614199   4.186   3.037   8.448  0.6453 -0.2694 -0.0573
  108CHL1  H16A14200   4.165   2.962   8.370 -1.9884  1.4968 -1.1743
  108CHL1  H16B14201   4.100   3.106   8.457 -1.2178 -2.4822 -0.1745
  108CHL1   C1714202   4.326   3.112   8.427 -0.3810 -0.4869  0.4027
  108CHL1   H1714203   4.316   3.221   8.445 -2.7045 -0.7866  1.2422
  108CHL1   C1314204   4.410   3.058   8.546 -0.0073  0.0824  0.2254
  108CHL1   C1814205   4.468   2.914   8.506  0.2288 -0.3821 -0.7935
  108CHL1  H18A14206   4.533   2.933   8.418  0.0546 -0.5540 -0.9594
  108CHL1  H18B14207   4.511   2.862   8.594 -2.0645 -0.3601  0.4251
  108CHL1  H18C14208   4.383   2.850   8.475 -0.1436 -0.8853  1.1364
  108CHL1   C1214209   4.534   3.145   8.605 -0.2849 -0.1770 -0.0687
  108CHL1  H12A14210   4.616   3.162   8.533  1.4487 -1.5067  1.4905
  108CHL1  H12B14211   4.496   3.246   8.633 -0.5718 -0.5253  0.8382
  108CHL1   C1114212   4.587   3.085   8.737  0.0405  0.3463 -0.1558
  108CHL1  H11A14213   4.640   2.990   8.712 -0.0881 -0.0082  0.8668
  108CHL1  H11B14214   4.666   3.152   8.777 -0.1622  1.0886 -0.9670
  108CHL1    C914215   4.478   3.059   8.838  0.2465  0.1050  0.0006
  108CHL1    H914216   4.436   3.157   8.867 -1.2488 -0.6704  0.5583
  108CHL1   C1014217   4.531   3.001   8.966  0.1738 -0.2446  0.0877
  108CHL1   C1914218   4.627   2.883   8.932 -0.5055 -0.3390  0.1631
  108CHL1  H19A14219   4.579   2.817   8.857 -1.5699 -1.3876  1.6773
  108CHL1  H19B14220   4.718   2.917   8.879 -0.6582  2.5653  1.5942
  108CHL1  H19C14221   4.658   2.828   9.024 -0.8095  0.0174  0.4846
  108CHL1    C114222   4.609   3.115   9.041 -0.1008  0.0763  0.1106
  108CHL1   H1A14223   4.699   3.151   8.986  0.1594 -1.7349 -0.6924
  108CHL1   H1B14224   4.546   3.205   9.058  2.4648  2.1159 -0.5289
  108CHL1    C214225   4.653   3.079   9.184 -0.1327  1.1142 -0.3689
  108CHL1   H2A14226   4.692   3.174   9.228 -0.8278  1.5324 -0.6314
  108CHL1   H2B14227   4.736   3.005   9.180 -1.8190 -0.8340 -0.7120
  108CHL1   C2014228   4.378   3.098   8.281 -0.0980 -0.3476 -0.3143
  108CHL1   H2014229   4.390   2.991   8.253 -0.3807 -0.4487 -0.0516
  108CHL1   C2114230   4.503   3.182   8.254 -0.0620 -0.2744 -0.3416
  108CHL1  H21A14231   4.564   3.161   8.344 -0.1406  0.2343 -0.1660
  108CHL1  H21B14232   4.484   3.291   8.245  2.5022  0.1638 -1.6964
  108CHL1  H21C14233   4.560   3.151   8.163 -0.8961  0.2567 -1.0626
  108CHL1   C2214234   4.280   3.138   8.166  0.3506 -0.5135  0.3352
  108CHL1  H22A14235   4.178   3.120   8.204 -0.4419  1.2080 -0.8217
  108CHL1  H22B14236   4.277   3.247   8.143 -1.3908 -0.7925 -0.9979
  108CHL1   C2314237   4.308   3.064   8.035 -0.1960  0.7970  0.6735
  108CHL1  H23A14238   4.398   3.095   7.979  0.3153 -1.4277  0.1690
  108CHL1  H23B14239   4.340   2.959   8.052  1.8037  0.6081 -3.2715
  108CHL1   C2414240   4.187   3.062   7.935  1.0969  0.6666 -0.0628
  108CHL1  H24A14241   4.105   3.007   7.985 -0.4617  1.8512 -1.2294
  108CHL1  H24B14242   4.161   3.162   7.895  0.9823  0.1079 -1.4313
  108CHL1   C2514243   4.218   2.986   7.805 -0.4465  0.6297 -0.0400
  108CHL1   H2514244   4.286   2.902   7.830  1.0523  1.8559  0.2187
  108CHL1   C2614245   4.098   2.935   7.730  0.4363  0.1674  0.3142
  108CHL1  H26A14246   4.138   2.885   7.640 -0.2520  0.7387 -0.3198
  108CHL1  H26B14247   4.029   2.865   7.780  0.6514 -0.3639 -0.1242
  108CHL1  H26C14248   4.034   3.017   7.692 -1.9206 -2.3830 -1.5967
  108CHL1   C2714249   4.292   3.084   7.717 -0.2599  0.7191 -0.3476
  108CHL1  H27A14250   4.230   3.176   7.708 -1.1677 -0.0649 -3.3336
  108CHL1  H27B14251   4.399   3.088   7.747 -0.3102 -1.3818  0.2497
  108CHL1  H27C14252   4.299   3.061   7.609  0.7395  2.3724 -0.6767
  109CHL1    C314253   2.219   5.665   9.409  0.4584  0.8251  0.8571
  109CHL1    H314254   2.173   5.763   9.383  1.1727  1.0347  0.3467
  109CHL1    O314255   2.214   5.664   9.550 -0.2203 -0.5817  0.0733
  109CHL1   H3'14256   2.218   5.569   9.564  0.4727 -0.7110 -0.8826
  109CHL1    C414257   2.120   5.561   9.358 -0.2692  0.7409  0.5832
  109CHL1   H4A14258   2.164   5.465   9.391  2.4072  2.2339  1.6240
  109CHL1   H4B14259   2.020   5.579   9.403 -0.3590  0.8812  0.3309
  109CHL1    C514260   2.113   5.555   9.204  0.4845  0.4813  0.0655
  109CHL1    C614261   1.998   5.566   9.135 -0.0866 -0.3446  0.5340
  109CHL1    H614262   1.906   5.578   9.193  0.0090 -0.4115  0.6990
  109CHL1    C714263   1.999   5.588   8.989 -0.7665 -0.2828  0.3320
  109CHL1   H7A14264   1.904   5.550   8.945  0.7273 -3.2251 -0.5810
  109CHL1   H7B14265   2.008   5.695   8.962  0.8426 -0.0692  1.5902
  109CHL1    C814266   2.116   5.518   8.919  0.1661 -0.0302 -0.5306
  109CHL1    H814267   2.095   5.409   8.927  0.2023 -0.0264 -0.3915
  109CHL1   C1414268   2.122   5.549   8.766 -0.9513  0.1210 -0.0201
  109CHL1   H1414269   2.123   5.660   8.754  0.1470  0.0455 -0.8257
  109CHL1   C1514270   1.993   5.515   8.680  0.2441  0.8604 -0.8044
  109CHL1  H15A14271   1.965   5.409   8.698 -0.4761  0.4590 -3.8485
  109CHL1  H15B14272   1.907   5.582   8.699 -0.9590 -0.8208 -0.1268
  109CHL1   C1614273   2.039   5.536   8.536 -0.1778  0.2610 -0.3457
  109CHL1  H16A14274   2.008   5.451   8.472 -0.7576  0.7438 -0.7202
  109CHL1  H16B14275   2.013   5.637   8.499  0.1932  0.0109 -1.3077
  109CHL1   C1714276   2.195   5.548   8.537  0.0530 -0.1362  0.0466
  109CHL1   H1714277   2.226   5.654   8.526  0.0450 -0.4037 -3.7114
  109CHL1   C1314278   2.239   5.501   8.680 -0.3522 -0.6222 -0.2289
  109CHL1   C1814279   2.243   5.348   8.691 -0.3463  0.2455 -0.6235
  109CHL1  H18A14280   2.231   5.307   8.793 -0.6397 -0.3788 -0.9026
  109CHL1  H18B14281   2.174   5.305   8.615  1.5772 -0.5122 -2.0151
  109CHL1  H18C14282   2.345   5.313   8.667  0.2422  0.2007  1.7853
  109CHL1   C1214283   2.367   5.556   8.748  0.1074 -0.2343 -1.2191
  109CHL1  H12A14284   2.463   5.515   8.708  0.0946 -1.7349  0.1647
  109CHL1  H12B14285   2.363   5.665   8.731  0.1376 -0.0792 -0.2797
  109CHL1   C1114286   2.375   5.529   8.899  0.0865  0.0745 -0.4764
  109CHL1  H11A14287   2.382   5.420   8.918 -1.0228  0.0070 -0.3474
  109CHL1  H11B14288   2.457   5.593   8.940 -1.5221  1.6764  0.4000
  109CHL1    C914289   2.248   5.569   8.981 -0.2463  0.3587 -0.6202
  109CHL1    H914290   2.237   5.680   8.979 -1.2152  0.4508  2.8876
  109CHL1   C1014291   2.252   5.541   9.138 -0.0479 -0.2356 -0.0897
  109CHL1   C1914292   2.296   5.392   9.154 -0.0356 -0.2166 -0.3193
  109CHL1  H19A14293   2.306   5.368   9.262 -0.2971  2.3808  0.3465
  109CHL1  H19B14294   2.223   5.325   9.104 -2.0754  1.0872  0.7621
  109CHL1  H19C14295   2.400   5.374   9.119  0.1841 -1.8762  1.0619
  109CHL1    C114296   2.365   5.633   9.205 -0.1867  0.3009  0.1463
  109CHL1   H1A14297   2.468   5.626   9.163  0.2297  0.9696  1.0381
  109CHL1   H1B14298   2.333   5.730   9.162 -3.0266 -0.7083 -0.1992
  109CHL1    C214299   2.361   5.640   9.357  0.3376  0.2304  0.6710
  109CHL1   H2A14300   2.420   5.725   9.399  0.1340  0.6388  0.1499
  109CHL1   H2B14301   2.402   5.546   9.399 -0.0442 -0.0477  0.4254
  109CHL1   C2014302   2.246   5.474   8.412  0.0220 -0.0503  0.1371
  109CHL1   H2014303   2.225   5.365   8.422  0.6658 -0.0989  1.0941
  109CHL1   C2114304   2.397   5.488   8.416 -0.2034  0.5710  0.0420
  109CHL1  H21A14305   2.422   5.596   8.408  0.0370  0.5969  1.0933
  109CHL1  H21B14306   2.444   5.426   8.336 -0.2308  0.1054  0.3814
  109CHL1  H21C14307   2.451   5.460   8.509  2.5046  1.6568 -1.1032
  109CHL1   C2214308   2.189   5.524   8.279  0.1770 -0.2485 -0.9507
  109CHL1  H22A14309   2.078   5.518   8.280  0.1688 -1.0986  1.8490
  109CHL1  H22B14310   2.207   5.633   8.278  1.0706 -0.3728 -3.1353
  109CHL1   C2314311   2.233   5.443   8.156  0.6762  0.0252 -0.3993
  109CHL1  H23A14312   2.342   5.461   8.148  0.4090  2.7132  0.7102
  109CHL1  H23B14313   2.227   5.334   8.177  0.0010  0.2706  0.8269
  109CHL1   C2414314   2.161   5.485   8.029  0.2382  0.3076 -0.0792
  109CHL1  H24A14315   2.052   5.470   8.040  0.2216  0.2671 -0.3022
  109CHL1  H24B14316   2.175   5.595   8.020  0.2756  0.5681  2.3718
  109CHL1   C2514317   2.200   5.415   7.897  0.0561  0.2956  0.3346
  109CHL1   H2514318   2.202   5.305   7.914  0.7456  0.1803 -0.4162
  109CHL1   C2614319   2.091   5.450   7.796 -0.1428  0.3468  0.3653
  109CHL1  H26A14320   2.113   5.413   7.694  0.9813  1.1863  0.2811
  109CHL1  H26B14321   1.995   5.399   7.820 -0.6753  0.2819 -1.6980
  109CHL1  H26C14322   2.066   5.558   7.788  1.0942  0.7039  1.0470
  109CHL1   C2714323   2.337   5.452   7.841  0.1995 -0.0566  0.1695
  109CHL1  H27A14324   2.354   5.562   7.833 -1.7787  0.3883  1.3730
  109CHL1  H27B14325   2.419   5.416   7.906 -0.5186 -1.1022  0.5224
  109CHL1  H27C14326   2.338   5.401   7.743 -0.4088  1.0619 -0.4495
  110CHL1    C314327   1.415   4.499   9.174 -0.4302  0.8258 -0.1258
  110CHL1    H314328   1.317   4.528   9.131 -1.9556  1.1456  3.2932
  110CHL1    O314329   1.409   4.494   9.314  0.0908 -0.9433 -0.6465
  110CHL1   H3'14330   1.497   4.485   9.351 -0.5387  0.1945  1.3193
  110CHL1    C414331   1.451   4.366   9.109  0.0172  0.2811  0.2823
  110CHL1   H4A14332   1.540   4.314   9.152  0.1838 -0.3051 -0.7453
  110CHL1   H4B14333   1.368   4.297   9.135  0.6707 -0.4041  0.6188
  110CHL1    C514334   1.475   4.389   8.956  0.6698 -0.3796 -0.8420
  110CHL1    C614335   1.390   4.331   8.874 -0.0427  0.1389  0.2624
  110CHL1    H614336   1.316   4.257   8.908 -1.1268  0.3818 -1.4175
  110CHL1    C714337   1.407   4.355   8.726  1.0467  0.3317  0.1797
  110CHL1   H7A14338   1.397   4.257   8.674  1.1542  0.0162  0.7370
  110CHL1   H7B14339   1.319   4.414   8.694 -0.8766 -2.2271  0.4417
  110CHL1    C814340   1.544   4.409   8.682  0.5136  0.0123  0.9945
  110CHL1    H814341   1.626   4.336   8.696  0.8102  0.1634  0.0898
  110CHL1   C1414342   1.542   4.446   8.535 -0.3183 -0.2128 -0.7151
  110CHL1   H1414343   1.465   4.525   8.522 -0.7721 -0.8397 -2.0924
  110CHL1   C1514344   1.511   4.339   8.427 -0.1926 -0.2617  0.4725
  110CHL1  H15A14345   1.564   4.244   8.447 -0.5878 -0.3943  0.8923
  110CHL1  H15B14346   1.401   4.320   8.430 -0.6785  1.9120 -1.2178
  110CHL1   C1614347   1.541   4.415   8.294  0.4187 -0.6934 -0.2148
  110CHL1  H16A14348   1.600   4.348   8.228 -1.7826 -1.5101 -1.4408
  110CHL1  H16B14349   1.441   4.437   8.251  0.8039 -1.4928 -1.5747
  110CHL1   C1714350   1.623   4.542   8.330  0.0896  0.4154 -0.3498
  110CHL1   H1714351   1.555   4.630   8.333 -0.3151  0.2164 -2.2259
  110CHL1   C1314352   1.669   4.514   8.481  0.5791 -0.1306  0.2017
  110CHL1   C1814353   1.790   4.420   8.480  0.2226 -0.0828 -0.0981
  110CHL1  H18A14354   1.788   4.345   8.562  2.0909 -0.3963 -0.3034
  110CHL1  H18B14355   1.795   4.354   8.391  1.1331 -0.9682  0.5760
  110CHL1  H18C14356   1.886   4.476   8.480  0.6658 -0.8289  0.0041
  110CHL1   C1214357   1.699   4.644   8.565 -0.2104 -0.4184 -0.0028
  110CHL1  H12A14358   1.800   4.681   8.538  0.5721 -2.3088  0.1593
  110CHL1  H12B14359   1.627   4.727   8.549  0.9322  1.0290  1.8779
  110CHL1   C1114360   1.703   4.610   8.707 -0.2386 -0.2135 -0.1864
  110CHL1  H11A14361   1.791   4.542   8.705  0.0988  0.2257 -2.2826
  110CHL1  H11B14362   1.711   4.700   8.772 -0.2083  0.1565 -0.6951
  110CHL1    C914363   1.571   4.534   8.765 -0.6206 -0.1656  0.0520
  110CHL1    H914364   1.494   4.612   8.747  0.6947  1.5106  1.3513
  110CHL1   C1014365   1.571   4.499   8.917  0.2863 -0.1257  0.7396
  110CHL1   C1914366   1.712   4.443   8.971 -0.5845  0.8351  0.6843
  110CHL1  H19A14367   1.787   4.521   8.949  0.5293 -0.6824 -1.2425
  110CHL1  H19B14368   1.721   4.402   9.074 -3.9181 -3.1490 -0.3553
  110CHL1  H19C14369   1.744   4.350   8.919 -0.7980  0.2487  1.5606
  110CHL1    C114370   1.537   4.628   8.994  0.7291 -0.5307 -0.5211
  110CHL1   H1A14371   1.616   4.705   8.980  0.3500  0.2228  1.1860
  110CHL1   H1B14372   1.450   4.680   8.949  0.1282 -0.8210  0.2840
  110CHL1    C214373   1.513   4.612   9.143  0.0355  0.1766 -0.1627
  110CHL1   H2A14374   1.487   4.708   9.193  2.9528 -0.1284  2.2295
  110CHL1   H2B14375   1.613   4.596   9.189 -0.1759 -1.3210 -0.1871
  110CHL1   C2014376   1.723   4.573   8.225 -0.2347 -0.0222  0.4063
  110CHL1   H2014377   1.806   4.500   8.217  1.0989  1.5775 -1.2309
  110CHL1   C2114378   1.801   4.707   8.258  0.5798  0.3106  0.1027
  110CHL1  H21A14379   1.861   4.691   8.350  0.8103 -1.1619 -0.2924
  110CHL1  H21B14380   1.724   4.788   8.267  1.0609  1.0750 -2.0571
  110CHL1  H21C14381   1.859   4.732   8.167  1.5591 -1.4157  0.2169
  110CHL1   C2214382   1.668   4.582   8.071 -0.7559  0.6862 -1.1624
  110CHL1  H22A14383   1.757   4.593   8.006  0.9872  2.8767  1.3745
  110CHL1  H22B14384   1.609   4.490   8.052 -1.0161  0.7465 -0.6429
  110CHL1   C2314385   1.571   4.692   8.036 -0.0745 -0.0360 -0.8629
  110CHL1  H23A14386   1.499   4.704   8.119  1.5501  2.2142  0.3464
  110CHL1  H23B14387   1.625   4.789   8.023 -0.6566  0.1853 -1.7509
  110CHL1   C2414388   1.516   4.665   7.895  0.7337 -0.6363 -0.2599
  110CHL1  H24A14389   1.594   4.636   7.822 -0.5030 -0.2195 -1.7945
  110CHL1  H24B14390   1.430   4.596   7.908 -0.4839  0.3734 -2.4263
  110CHL1   C2514391   1.440   4.787   7.823 -1.2381 -0.1646 -0.1459
  110CHL1   H2514392   1.406   4.744   7.726  0.7456 -2.6584  0.1605
  110CHL1   C2614393   1.314   4.824   7.899 -0.7974  0.0711 -0.0073
  110CHL1  H26A14394   1.271   4.911   7.846  1.5124 -0.0624 -2.3013
  110CHL1  H26B14395   1.240   4.741   7.892 -0.2984 -0.5225  1.3318
  110CHL1  H26C14396   1.341   4.846   8.005 -1.6163  0.3012  0.1605
  110CHL1   C2714397   1.526   4.908   7.816  0.0353 -0.0832  0.5499
  110CHL1  H27A14398   1.471   4.971   7.743 -0.9568 -1.1677  0.3212
  110CHL1  H27B14399   1.537   4.962   7.913 -0.2208  0.2546  0.3920
  110CHL1  H27C14400   1.624   4.882   7.772 -0.3053 -0.3460 -0.0693
  111CHL1    C314401   2.332   0.851   9.222  0.2613  0.2263  0.2502
  111CHL1    H314402   2.443   0.844   9.224  0.3098 -0.4444 -2.1518
  111CHL1    O314403   2.282   0.842   9.354  0.3331  0.3671  0.5582
  111CHL1   H3'14404   2.314   0.920   9.400  1.6287 -0.2499  0.7410
  111CHL1    C414405   2.297   0.986   9.157 -0.5867 -0.0895 -0.1242
  111CHL1   H4A14406   2.192   1.016   9.172 -0.0978  1.9854 -0.5444
  111CHL1   H4B14407   2.365   1.056   9.210 -0.0042 -0.6952 -0.0534
  111CHL1    C514408   2.315   1.007   9.008  0.8010  0.0240 -0.1070
  111CHL1    C614409   2.378   1.111   8.952  0.1228 -0.4144 -0.5240
  111CHL1    H614410   2.404   1.199   9.012  0.4050 -0.1730 -0.9980
  111CHL1    C714411   2.398   1.133   8.808  0.7438  0.1001 -0.1225
  111CHL1   H7A14412   2.375   1.241   8.794  0.3018 -0.0764 -0.8155
  111CHL1   H7B14413   2.506   1.121   8.785  0.4928 -2.1060 -0.3390
  111CHL1    C814414   2.313   1.032   8.719 -0.0083 -0.5308  0.1523
  111CHL1    H814415   2.209   1.070   8.725  0.6186  1.1288  1.6290
  111CHL1   C1414416   2.374   1.035   8.581  0.1074  0.6081  0.5221
  111CHL1   H1414417   2.477   0.996   8.600  0.7947  2.1159  0.0099
  111CHL1   C1514418   2.391   1.174   8.516  0.0979  0.0852 -0.0494
  111CHL1  H15A14419   2.297   1.232   8.505  0.1800  0.1100 -0.6730
  111CHL1  H15B14420   2.464   1.243   8.564  0.4652  0.6112 -1.3182
  111CHL1   C1614421   2.443   1.132   8.375 -0.5303 -0.0927 -0.1605
  111CHL1  H16A14422   2.402   1.193   8.292  0.6604 -1.0664 -1.5148
  111CHL1  H16B14423   2.554   1.139   8.368 -0.5386 -0.3654 -0.6596
  111CHL1   C1714424   2.406   0.978   8.360 -0.0093 -0.6112  0.2146
  111CHL1   H1714425   2.507   0.935   8.374  1.4528  2.1254 -1.1627
  111CHL1   C1314426   2.315   0.944   8.480 -0.7498  0.7093  0.3578
  111CHL1   C1814427   2.171   0.975   8.445 -0.2821  0.1142 -0.1591
  111CHL1  H18A14428   2.151   1.082   8.421 -0.1279  0.4028  0.9771
  111CHL1  H18B14429   2.115   0.902   8.382  0.1596  0.1334 -0.5819
  111CHL1  H18C14430   2.124   0.965   8.545 -0.2777 -1.0363 -0.2543
  111CHL1   C1214431   2.324   0.801   8.534 -0.2743  0.5413 -0.1234
  111CHL1  H12A14432   2.258   0.733   8.475 -0.7327  0.3066  0.6484
  111CHL1  H12B14433   2.428   0.763   8.526 -0.3800  0.1334  0.3814
  111CHL1   C1114434   2.272   0.777   8.679 -0.2618 -0.0603 -0.3259
  111CHL1  H11A14435   2.161   0.765   8.680 -0.2774 -0.3879  2.2878
  111CHL1  H11B14436   2.316   0.677   8.700  0.4381  0.5223  1.1867
  111CHL1    C914437   2.322   0.886   8.777  0.4905 -0.7027 -0.2256
  111CHL1    H914438   2.432   0.874   8.779  0.4936 -0.6673  1.2613
  111CHL1   C1014439   2.273   0.879   8.923 -0.4996 -0.4269  0.5998
  111CHL1   C1914440   2.117   0.876   8.920 -0.3474 -0.1498  0.8700
  111CHL1  H19A14441   2.079   0.921   8.826 -1.2004 -0.9548  0.8213
  111CHL1  H19B14442   2.091   0.769   8.933  2.7002 -1.0958  0.0956
  111CHL1  H19C14443   2.066   0.933   9.000  2.1323  2.3001  0.8700
  111CHL1    C114444   2.327   0.751   8.992 -0.9660  0.0531 -0.0759
  111CHL1   H1A14445   2.292   0.658   8.941  0.1308 -0.9019  0.8397
  111CHL1   H1B14446   2.437   0.735   8.994 -0.3626  3.4987 -0.0138
  111CHL1    C214447   2.276   0.738   9.136 -0.8309 -0.5972 -0.1514
  111CHL1   H2A14448   2.310   0.639   9.172 -0.5583 -1.4990 -2.7055
  111CHL1   H2B14449   2.164   0.738   9.139 -0.8336 -2.1104  1.2196
  111CHL1   C2014450   2.353   0.943   8.222  0.0614 -0.0454 -0.0076
  111CHL1   H2014451   2.252   0.990   8.212  0.3831  1.3047  2.3317
  111CHL1   C2114452   2.333   0.785   8.205  0.5474  0.3432 -0.3295
  111CHL1  H21A14453   2.299   0.756   8.102  0.3697 -3.6705  0.6717
  111CHL1  H21B14454   2.250   0.750   8.269  1.3296 -0.2164  0.3962
  111CHL1  H21C14455   2.425   0.724   8.222  0.5946  0.8475  1.3563
  111CHL1   C2214456   2.438   1.003   8.098  0.6231  0.0390 -0.5520
  111CHL1  H22A14457   2.449   1.113   8.108  3.3468 -0.3108  1.7386
  111CHL1  H22B14458   2.543   0.968   8.092  0.6595  0.0198  0.0657
  111CHL1   C2314459   2.369   0.975   7.965 -0.7326  0.9391 -0.1274
  111CHL1  H23A14460   2.394   0.871   7.936  1.9371  1.2087  0.9397
  111CHL1  H23B14461   2.259   0.987   7.964 -1.1926 -1.2324 -5.0066
  111CHL1   C2414462   2.437   1.064   7.851 -0.4247 -0.1695  0.3172
  111CHL1  H24A14463   2.426   1.173   7.866  0.6932 -0.2787  2.2672
  111CHL1  H24B14464   2.546   1.045   7.846 -0.7916 -2.5216  0.0823
  111CHL1   C2514465   2.388   1.044   7.703  0.1585  0.0413 -0.4390
  111CHL1   H2514466   2.453   1.112   7.643  0.5843  0.8066  0.8269
  111CHL1   C2614467   2.419   0.905   7.643  0.3092 -0.5174 -0.1961
  111CHL1  H26A14468   2.408   0.905   7.532 -2.3687 -1.2014  0.0109
  111CHL1  H26B14469   2.522   0.872   7.669  0.6200  0.9363  0.4949
  111CHL1  H26C14470   2.346   0.839   7.694 -1.3273  1.6475  0.3953
  111CHL1   C2714471   2.242   1.091   7.688  0.4476 -0.4603  0.5915
  111CHL1  H27A14472   2.216   1.079   7.581  0.2674  2.4956  0.2226
  111CHL1  H27B14473   2.186   1.018   7.751  2.1105 -1.2806  1.1954
  111CHL1  H27C14474   2.218   1.193   7.725  0.7349 -0.3384  0.4498
  112CHL1    C314475   3.621   0.898   9.284 -0.4509 -0.6904 -0.4717
  112CHL1    H314476   3.547   0.979   9.267 -0.4315 -0.9181 -1.7240
  112CHL1    O314477   3.662   0.890   9.423  0.3042  0.5070  0.2647
  112CHL1   H3'14478   3.582   0.864   9.469  1.4876 -0.8694  1.6641
  112CHL1    C414479   3.582   0.755   9.227 -0.3834  0.4612  0.0142
  112CHL1   H4A14480   3.663   0.680   9.234  1.3136  2.0015 -1.7100
  112CHL1   H4B14481   3.502   0.720   9.295 -0.6426  0.0707 -0.4981
  112CHL1    C514482   3.544   0.764   9.078 -0.4417 -0.0984 -0.0476
  112CHL1    C614483   3.423   0.728   9.031 -0.7149  0.4336 -0.0233
  112CHL1    H614484   3.347   0.679   9.094  0.0806  0.8356  1.2847
  112CHL1    C714485   3.386   0.741   8.884  0.6414  0.4784 -0.1637
  112CHL1   H7A14486   3.324   0.656   8.849  1.0805  0.4637 -0.9358
  112CHL1   H7B14487   3.313   0.823   8.876 -1.2965 -1.1801 -0.2256
  112CHL1    C814488   3.513   0.759   8.794  0.6934  0.2322  0.3203
  112CHL1    H814489   3.556   0.656   8.793  2.5627  0.9554 -1.5885
  112CHL1   C1414490   3.468   0.805   8.652  0.2004 -0.1015  0.0781
  112CHL1   H1414491   3.427   0.908   8.661 -0.4725 -0.3952  0.4033
  112CHL1   C1514492   3.358   0.721   8.586 -0.4369  0.2851 -0.2553
  112CHL1  H15A14493   3.348   0.614   8.614 -1.5604  0.8673  1.8699
  112CHL1  H15B14494   3.257   0.761   8.611 -0.3245 -0.0588  0.8246
  112CHL1   C1614495   3.377   0.732   8.435  0.2926  0.1101 -0.8097
  112CHL1  H16A14496   3.421   0.637   8.397  1.3682  0.2157  0.0952
  112CHL1  H16B14497   3.286   0.767   8.383  1.9495  1.3622 -3.0763
  112CHL1   C1714498   3.496   0.839   8.416 -0.4850  0.1890 -0.6506
  112CHL1   H1714499   3.458   0.943   8.411 -0.3659  0.2554 -0.1787
  112CHL1   C1314500   3.583   0.817   8.549 -0.3233  0.4683  0.0774
  112CHL1   C1814501   3.661   0.685   8.534  0.3098  0.4699 -0.4044
  112CHL1  H18A14502   3.726   0.684   8.443  2.3370  1.6057  0.9570
  112CHL1  H18B14503   3.727   0.680   8.623 -1.1656  1.3068  0.7677
  112CHL1  H18C14504   3.607   0.588   8.546  1.4608 -0.0761  0.5416
  112CHL1   C1214505   3.667   0.940   8.597  0.3879  0.9895 -0.1733
  112CHL1  H12A14506   3.756   0.949   8.530  1.6579 -0.4397  1.2396
  112CHL1  H12B14507   3.600   1.027   8.580 -2.0140 -0.6937  0.1879
  112CHL1   C1114508   3.713   0.920   8.750  0.8875 -0.5529  0.9862
  112CHL1  H11A14509   3.790   0.840   8.747  0.7467 -0.7200  1.6158
  112CHL1  H11B14510   3.766   1.014   8.779  0.5311 -0.2631  0.7117
  112CHL1    C914511   3.604   0.866   8.845 -0.4565 -0.5798 -0.0331
  112CHL1    H914512   3.538   0.954   8.860 -0.2013  0.0949 -2.4909
  112CHL1   C1014513   3.655   0.827   8.987  0.4664 -0.1374 -0.3994
  112CHL1   C1914514   3.775   0.725   8.972  0.1169  0.1597  0.0653
  112CHL1  H19A14515   3.790   0.684   9.074  0.2416  0.2632  0.0880
  112CHL1  H19B14516   3.743   0.641   8.906  0.2661 -0.3461  0.6259
  112CHL1  H19C14517   3.868   0.764   8.926  1.1283 -1.7562  0.3405
  112CHL1    C114518   3.719   0.957   9.060  0.5817 -0.8264  0.0060
  112CHL1   H1A14519   3.813   0.985   9.008  1.4317 -1.2684  1.2555
  112CHL1   H1B14520   3.645   1.040   9.052 -0.0967 -1.5668 -1.9122
  112CHL1    C214521   3.745   0.942   9.212 -0.1007  0.7026 -0.1157
  112CHL1   H2A14522   3.782   1.036   9.258 -2.1212  1.0809  0.8553
  112CHL1   H2B14523   3.821   0.863   9.225 -0.7393 -0.0595 -0.8856
  112CHL1   C2014524   3.564   0.826   8.279  0.2553  0.0112  0.5112
  112CHL1   H2014525   3.601   0.723   8.259  1.9087  0.6480  0.0739
  112CHL1   C2114526   3.690   0.922   8.263  0.2199  0.3007  0.0830
  112CHL1  H21A14527   3.695   0.974   8.165  0.1720  1.5799  0.7452
  112CHL1  H21B14528   3.783   0.864   8.280  0.7381  0.6379 -1.4480
  112CHL1  H21C14529   3.675   1.014   8.323 -3.1175  1.3976 -2.1520
  112CHL1   C2214530   3.453   0.856   8.170  0.0178  0.5806  0.0309
  112CHL1  H22A14531   3.359   0.800   8.187 -0.3657  0.3018 -2.6454
  112CHL1  H22B14532   3.433   0.965   8.184  1.4097  1.0299 -1.1687
  112CHL1   C2314533   3.482   0.835   8.024 -0.6045 -0.0535  0.7362
  112CHL1  H23A14534   3.557   0.913   8.000  0.0002 -0.4378  1.3340
  112CHL1  H23B14535   3.547   0.746   8.015 -0.9534 -0.2094 -0.3110
  112CHL1   C2414536   3.364   0.841   7.931 -0.6532 -0.1812 -0.2153
  112CHL1  H24A14537   3.295   0.755   7.946 -0.3886 -0.5015 -0.7952
  112CHL1  H24B14538   3.309   0.936   7.949  0.2911  0.8073 -2.2091
  112CHL1   C2514539   3.399   0.825   7.783  0.0976 -0.1392  0.2839
  112CHL1   H2514540   3.466   0.908   7.752  1.3439 -1.4993 -0.8091
  112CHL1   C2614541   3.468   0.694   7.747 -0.1292  0.9311  0.0332
  112CHL1  H26A14542   3.570   0.686   7.790  0.0637  1.7804 -0.2443
  112CHL1  H26B14543   3.409   0.604   7.776  3.1345 -0.9514  1.3963
  112CHL1  H26C14544   3.474   0.699   7.636 -0.2786  2.0157  0.0656
  112CHL1   C2714545   3.283   0.859   7.686 -0.4450  0.1593 -0.4658
  112CHL1  H27A14546   3.308   0.856   7.578  0.6390  0.3348 -0.2312
  112CHL1  H27B14547   3.205   0.782   7.705  0.0336 -0.5717 -1.3602
  112CHL1  H27C14548   3.241   0.960   7.700 -0.9364 -0.3455  2.1512
  113CHL1    C314549   1.073   4.220   9.113  0.1537 -0.1039  0.1003
  113CHL1    H314550   1.141   4.296   9.068  1.1777 -0.9633  0.1632
  113CHL1    O314551   1.038   4.261   9.245  0.2518 -0.3423  0.3311
  113CHL1   H3'14552   0.979   4.192   9.276  1.8693 -1.4983  1.0054
  113CHL1    C414553   0.942   4.205   9.031  0.0770 -0.1660 -0.4653
  113CHL1   H4A14554   0.877   4.132   9.083  0.9391 -2.6236 -2.6196
  113CHL1   H4B14555   0.891   4.304   9.031  0.0960 -0.1490 -1.4536
  113CHL1    C514556   0.978   4.165   8.892  0.3983  0.2770  0.3793
  113CHL1    C614557   0.947   4.242   8.789 -0.5036 -0.6092  0.3674
  113CHL1    H614558   0.899   4.340   8.806  1.9685  0.6589  0.4826
  113CHL1    C714559   0.978   4.211   8.648  0.3115  0.1502  0.2683
  113CHL1   H7A14560   0.884   4.231   8.592  1.5350  2.8237 -1.0592
  113CHL1   H7B14561   1.056   4.278   8.606 -0.1313  0.2505 -0.4213
  113CHL1    C814562   1.015   4.062   8.622  0.2648  0.1491  0.7717
  113CHL1    H814563   0.930   3.990   8.624 -0.5778  1.0010 -1.4699
  113CHL1   C1414564   1.083   4.045   8.490  0.3051  0.0456  0.2227
  113CHL1   H1414565   1.184   4.090   8.497  1.8795 -2.6815 -2.2086
  113CHL1   C1514566   1.012   4.097   8.367 -0.6368 -0.6607  0.3781
  113CHL1  H15A14567   0.907   4.061   8.368 -0.1656 -2.1761 -0.9320
  113CHL1  H15B14568   1.006   4.208   8.361 -2.2596 -0.7541 -0.7118
  113CHL1   C1614569   1.070   4.021   8.248  0.3300  0.0414  0.3339
  113CHL1  H16A14570   0.989   3.979   8.185 -0.9980 -0.3387  2.2128
  113CHL1  H16B14571   1.129   4.096   8.191  0.2480 -0.5829 -0.5882
  113CHL1   C1714572   1.158   3.907   8.315 -0.2713 -0.4827 -0.4388
  113CHL1   H1714573   1.260   3.952   8.319 -0.0053 -1.1467  0.3157
  113CHL1   C1314574   1.110   3.893   8.456  0.4140 -0.0823 -0.6843
  113CHL1   C1814575   0.977   3.804   8.449  0.5975 -0.3553  0.0664
  113CHL1  H18A14576   0.988   3.693   8.447  0.6450 -0.4738  2.9194
  113CHL1  H18B14577   0.912   3.808   8.539  0.5149 -1.0447  0.0478
  113CHL1  H18C14578   0.912   3.837   8.365 -0.8082 -2.7059  0.1104
  113CHL1   C1214579   1.215   3.839   8.565  0.3876 -0.6750  0.5478
  113CHL1  H12A14580   1.229   3.730   8.551 -1.6912 -0.7480 -1.7564
  113CHL1  H12B14581   1.309   3.896   8.547  0.1975 -0.2263  0.9624
  113CHL1   C1114582   1.163   3.868   8.705  0.1779 -0.5023  0.1535
  113CHL1  H11A14583   1.088   3.787   8.719  0.2859 -0.4994  0.7904
  113CHL1  H11B14584   1.241   3.837   8.778 -0.3077 -1.7668  0.1703
  113CHL1    C914585   1.120   4.016   8.733 -0.2940  0.1962 -0.1375
  113CHL1    H914586   1.208   4.083   8.728  2.0958 -2.6267  1.5712
  113CHL1   C1014587   1.064   4.033   8.878 -0.6610 -0.5220 -0.2128
  113CHL1   C1914588   0.954   3.927   8.916 -0.6517 -0.4652  0.8288
  113CHL1  H19A14589   0.921   3.947   9.020 -0.4572  1.9473  0.4656
  113CHL1  H19B14590   0.871   3.927   8.842  0.2562 -1.6237 -0.2289
  113CHL1  H19C14591   1.004   3.828   8.921  1.0241  0.2358 -1.0672
  113CHL1    C114592   1.180   4.022   8.979  0.2515 -0.0216  0.0946
  113CHL1   H1A14593   1.215   3.917   8.989  0.8311  0.1723  0.1556
  113CHL1   H1B14594   1.273   4.069   8.940  0.0853  1.3362  1.2773
  113CHL1    C214595   1.150   4.081   9.119  0.1565  0.0141  0.5251
  113CHL1   H2A14596   1.243   4.092   9.178  1.6204 -0.3651 -1.6098
  113CHL1   H2B14597   1.077   4.023   9.180 -1.4557 -0.2372 -1.5105
  113CHL1   C2014598   1.171   3.787   8.220 -0.3236 -0.2231 -0.1846
  113CHL1   H2014599   1.076   3.731   8.228  0.9416 -2.5568 -0.7027
  113CHL1   C2114600   1.292   3.696   8.267 -0.1130 -0.8401 -0.5399
  113CHL1  H21A14601   1.300   3.605   8.204 -1.2989 -0.9289 -0.5810
  113CHL1  H21B14602   1.280   3.657   8.370 -2.5614 -0.7840 -0.7398
  113CHL1  H21C14603   1.386   3.754   8.252 -0.4640 -0.6484 -2.1770
  113CHL1   C2214604   1.188   3.815   8.069  0.2452 -0.6203 -0.4833
  113CHL1  H22A14605   1.196   3.719   8.013 -0.6518 -0.5792 -0.7036
  113CHL1  H22B14606   1.094   3.866   8.039 -0.9976 -0.4987  3.1076
  113CHL1   C2314607   1.312   3.902   8.043 -0.2764 -0.3879 -0.4337
  113CHL1  H23A14608   1.292   3.996   8.099 -0.2358  0.0764 -1.1799
  113CHL1  H23B14609   1.408   3.851   8.068  0.3981  1.5000  1.0709
  113CHL1   C2414610   1.320   3.949   7.899 -0.6469  0.0920  0.0095
  113CHL1  H24A14611   1.319   3.853   7.844  0.0876  0.2404 -0.2783
  113CHL1  H24B14612   1.234   4.007   7.861  0.3013  2.0954  0.7640
  113CHL1   C2514613   1.447   4.020   7.858 -0.1563 -0.1077 -0.4382
  113CHL1   H2514614   1.526   3.955   7.899  0.5161 -0.7460 -2.6397
  113CHL1   C2614615   1.446   4.029   7.713  0.4397 -0.2560 -0.2183
  113CHL1  H26A14616   1.359   4.084   7.673  1.7605  0.3535 -2.3955
  113CHL1  H26B14617   1.539   4.083   7.686  0.4410  0.5275  1.2447
  113CHL1  H26C14618   1.453   3.927   7.670  1.5182 -1.1127  1.8309
  113CHL1   C2714619   1.449   4.154   7.923  0.2089 -0.1924 -0.7448
  113CHL1  H27A14620   1.357   4.209   7.893  0.6865  0.2059 -1.5014
  113CHL1  H27B14621   1.449   4.142   8.034 -0.9739 -0.8518 -0.8014
  113CHL1  H27C14622   1.535   4.219   7.898  0.4740 -0.5316 -0.7149
  114CHL1    C314623   4.443   0.210   9.283  0.5814  0.7170  0.0504
  114CHL1    H314624   4.336   0.193   9.308  0.4365  2.3178  0.6160
  114CHL1    O314625   4.517   0.172   9.398  0.0747 -0.1978  0.1299
  114CHL1   H3'14626   4.610   0.193   9.386 -0.2076  0.7939 -0.4009
  114CHL1    C414627   4.479   0.124   9.164 -0.2121  0.5056 -0.1542
  114CHL1   H4A14628   4.588   0.118   9.143 -0.4149  0.0333 -1.1402
  114CHL1   H4B14629   4.458   0.021   9.202  2.0345  0.6521  1.7113
  114CHL1    C514630   4.403   0.162   9.037  0.3362 -0.1142  0.2609
  114CHL1    C614631   4.325   0.073   8.971  0.2251 -0.4807 -0.3213
  114CHL1    H614632   4.320  -0.033   9.001 -1.5987 -0.6360 -1.0597
  114CHL1    C714633   4.240   0.104   8.848  0.1439  0.0895  0.0468
  114CHL1   H7A14634   4.242   0.019   8.776  2.1519 -0.6536  0.9005
  114CHL1   H7B14635   4.136   0.126   8.879  1.3310  2.3928  2.8212
  114CHL1    C814636   4.300   0.234   8.782  1.0287 -0.3780  0.3375
  114CHL1    H814637   4.397   0.213   8.733  0.2637  1.1306 -1.9502
  114CHL1   C1414638   4.198   0.290   8.675 -0.3655  0.1747  0.3935
  114CHL1   H1414639   4.103   0.323   8.724 -0.2434  0.1018  0.6809
  114CHL1   C1514640   4.150   0.195   8.569 -0.2529  0.1417  0.5356
  114CHL1  H15A14641   4.223   0.133   8.513 -3.7351 -2.4691 -1.5224
  114CHL1  H15B14642   4.066   0.131   8.605 -0.8706  0.1080 -0.9019
  114CHL1   C1614643   4.087   0.281   8.453 -0.4547  0.2010  0.1586
  114CHL1  H16A14644   4.124   0.238   8.357  0.5903 -0.7736  0.9622
  114CHL1  H16B14645   3.979   0.278   8.476 -0.7015  1.0035 -0.8423
  114CHL1   C1714646   4.134   0.428   8.482 -0.0023 -0.1821 -0.2856
  114CHL1   H1714647   4.045   0.460   8.540 -1.5080 -1.5434 -1.7318
  114CHL1   C1314648   4.246   0.413   8.596 -0.2695  0.0564  0.4491
  114CHL1   C1814649   4.382   0.394   8.523 -0.5632 -1.3430  0.0141
  114CHL1  H18A14650   4.459   0.356   8.594 -0.0520  1.9770  1.4114
  114CHL1  H18B14651   4.371   0.333   8.431  0.3079  2.7072 -3.0654
  114CHL1  H18C14652   4.417   0.492   8.484  0.3160 -1.1052  1.3427
  114CHL1   C1214653   4.262   0.525   8.696 -0.3460 -0.3788 -0.8026
  114CHL1  H12A14654   4.304   0.613   8.643 -0.5664 -0.4502 -1.0983
  114CHL1  H12B14655   4.168   0.558   8.744  0.4435 -0.0803  0.5973
  114CHL1   C1114656   4.351   0.487   8.818  0.2503 -0.5380  0.1140
  114CHL1  H11A14657   4.454   0.481   8.778  1.2737  2.2501  2.0212
  114CHL1  H11B14658   4.357   0.570   8.892  2.6790  3.2014 -3.8101
  114CHL1    C914659   4.313   0.350   8.888 -0.7239 -0.1293 -0.5065
  114CHL1    H914660   4.208   0.358   8.925 -0.2185 -3.1079  1.9658
  114CHL1   C1014661   4.401   0.310   8.999  0.1252  0.1338  0.6733
  114CHL1   C1914662   4.554   0.340   8.959 -0.0560  0.4321  0.7135
  114CHL1  H19A14663   4.633   0.315   9.033  1.5389  1.5424 -0.5290
  114CHL1  H19B14664   4.585   0.280   8.870  0.6724 -1.4639  2.1810
  114CHL1  H19C14665   4.580   0.447   8.945  0.4680  0.2712  0.4293
  114CHL1    C114666   4.367   0.394   9.131  0.7168 -0.0952 -0.3122
  114CHL1   H1A14667   4.380   0.502   9.110  0.3204 -0.2997 -1.6777
  114CHL1   H1B14668   4.261   0.367   9.150  1.2606 -1.4435  1.0276
  114CHL1    C214669   4.455   0.350   9.253 -0.5231 -0.6982 -0.4259
  114CHL1   H2A14670   4.422   0.406   9.344  0.5167 -1.6898  0.5915
  114CHL1   H2B14671   4.560   0.384   9.240 -0.5719 -0.1587  0.4782
  114CHL1   C2014672   4.146   0.533   8.363 -0.4225  0.4194 -0.7314
  114CHL1   H2014673   4.215   0.604   8.413  1.1170 -3.3500  3.1645
  114CHL1   C2114674   4.010   0.612   8.344 -0.2496 -0.1872  0.4114
  114CHL1  H21A14675   3.924   0.548   8.316 -0.3162  0.2978 -0.5405
  114CHL1  H21B14676   4.021   0.699   8.276  0.5565 -0.3387  0.3439
  114CHL1  H21C14677   3.994   0.663   8.442  0.8915 -0.4299  0.7380
  114CHL1   C2214678   4.192   0.469   8.243 -0.2969  0.0146 -0.0160
  114CHL1  H22A14679   4.288   0.415   8.257 -0.1105  0.4550  0.4274
  114CHL1  H22B14680   4.124   0.401   8.188  1.8967 -1.3217 -1.2068
  114CHL1   C2314681   4.221   0.561   8.127 -0.4414 -0.0363 -0.2945
  114CHL1  H23A14682   4.132   0.622   8.103 -0.9727 -1.0794 -1.0745
  114CHL1  H23B14683   4.296   0.633   8.167 -1.4690  0.8126  0.1481
  114CHL1   C2414684   4.262   0.483   8.000  0.1733  0.2961  0.2598
  114CHL1  H24A14685   4.343   0.530   7.940  0.0311 -0.5178 -0.5798
  114CHL1  H24B14686   4.302   0.384   8.029 -0.7602 -0.1405  0.1091
  114CHL1   C2514687   4.142   0.455   7.904 -0.0155  0.1934  0.2963
  114CHL1   H2514688   4.059   0.423   7.970  1.6316 -3.5546  0.8175
  114CHL1   C2614689   4.101   0.574   7.827  0.4941 -0.7581 -0.0029
  114CHL1  H26A14690   4.002   0.552   7.783 -0.3104  2.4072  0.0090
  114CHL1  H26B14691   4.076   0.652   7.903  0.1555 -2.1707  1.3825
  114CHL1  H26C14692   4.170   0.614   7.749  1.6149 -1.2886  0.6773
  114CHL1   C2714693   4.172   0.331   7.817  0.4255  0.1340 -0.3463
  114CHL1  H27A14694   4.094   0.326   7.738 -0.7625  2.1475  0.6102
  114CHL1  H27B14695   4.263   0.337   7.753 -0.1521 -1.7588 -1.4199
  114CHL1  H27C14696   4.164   0.244   7.885  0.4370  0.7089  0.4051
  115CHL1    C314697   1.313   0.815   8.976  0.2711 -0.3652 -0.6209
  115CHL1    H314698   1.323   0.706   8.960  0.5057 -0.1851 -1.8218
  115CHL1    O314699   1.343   0.855   9.110 -0.1970  0.2454  0.8451
  115CHL1   H3'14700   1.285   0.798   9.161 -1.2372 -0.8831 -1.4533
  115CHL1    C414701   1.411   0.901   8.890  0.4829  0.1131 -0.1359
  115CHL1   H4A14702   1.404   1.006   8.924  0.9999 -0.1510  0.8281
  115CHL1   H4B14703   1.515   0.869   8.916  0.1098 -0.6339  0.4829
  115CHL1    C514704   1.390   0.908   8.739  0.0345  0.1251 -0.0672
  115CHL1    C614705   1.489   0.886   8.650 -0.4446 -0.4554 -0.4982
  115CHL1    H614706   1.581   0.859   8.703 -1.5205 -0.9364  1.2337
  115CHL1    C714707   1.483   0.921   8.501  0.3405 -0.6141 -0.1630
  115CHL1   H7A14708   1.567   0.982   8.462  0.0605 -1.1671 -1.6698
  115CHL1   H7B14709   1.492   0.824   8.447  0.5404  0.1297 -1.4916
  115CHL1    C814710   1.342   0.977   8.453  0.5970 -0.4920  0.0566
  115CHL1    H814711   1.348   1.088   8.443 -0.2293 -0.4332  0.1697
  115CHL1   C1414712   1.320   0.931   8.313  0.2055  0.0390  0.0674
  115CHL1   H1414713   1.311   0.820   8.315 -3.8982  0.2152 -0.5076
  115CHL1   C1514714   1.429   0.960   8.218 -0.2147  0.1836 -0.0189
  115CHL1  H15A14715   1.462   1.066   8.227 -1.7188  0.6384  0.3813
  115CHL1  H15B14716   1.515   0.892   8.232 -0.1078 -0.1176 -1.9194
  115CHL1   C1614717   1.372   0.934   8.082 -0.1653 -0.7070 -0.0745
  115CHL1  H16A14718   1.398   1.003   7.999 -0.1682 -1.4760 -0.7344
  115CHL1  H16B14719   1.409   0.837   8.041  0.2712 -0.3703 -0.4861
  115CHL1   C1714720   1.217   0.922   8.100 -0.0644 -0.1872 -0.0580
  115CHL1   H1714721   1.192   0.813   8.103 -1.1890  0.0350 -0.6721
  115CHL1   C1314722   1.190   0.970   8.243 -0.5373 -0.2293 -0.6152
  115CHL1   C1814723   1.181   1.127   8.239  0.2135  0.1277 -0.1961
  115CHL1  H18A14724   1.268   1.167   8.183  1.0562 -0.2913  0.7735
  115CHL1  H18B14725   1.087   1.167   8.197 -1.0403 -1.8575  0.5534
  115CHL1  H18C14726   1.182   1.179   8.337  1.4319  2.7524 -1.5178
  115CHL1   C1214727   1.076   0.912   8.333 -0.0945 -0.0626 -0.6519
  115CHL1  H12A14728   0.982   0.967   8.307 -0.1318  0.9649  1.4307
  115CHL1  H12B14729   1.054   0.803   8.333 -0.8370  0.0691 -0.1075
  115CHL1   C1114730   1.088   0.954   8.481 -0.4365 -0.0812  0.0753
  115CHL1  H11A14731   1.062   1.062   8.489  1.9770  0.7757 -2.1410
  115CHL1  H11B14732   1.007   0.909   8.542 -1.1139  0.6753 -0.2509
  115CHL1    C914733   1.230   0.920   8.543  0.2671 -0.2780  0.2403
  115CHL1    H914734   1.244   0.810   8.536  0.8293 -0.1552 -0.8653
  115CHL1   C1014735   1.249   0.953   8.696 -0.0845 -0.0595 -0.5344
  115CHL1   C1914736   1.231   1.109   8.709  0.0615 -0.0873  0.6379
  115CHL1  H19A14737   1.127   1.139   8.686 -0.2350 -2.1750 -1.0469
  115CHL1  H19B14738   1.255   1.133   8.815 -2.2880  1.6283  0.8541
  115CHL1  H19C14739   1.313   1.158   8.652  1.2577 -2.1989  0.4124
  115CHL1    C114740   1.154   0.862   8.784 -0.3739 -0.6352 -0.1713
  115CHL1   H1A14741   1.053   0.904   8.764 -0.0457  1.5595  2.3211
  115CHL1   H1B14742   1.169   0.757   8.750  0.7753  0.0478 -1.9105
  115CHL1    C214743   1.166   0.860   8.937 -0.5353 -0.6746 -0.2432
  115CHL1   H2A14744   1.098   0.782   8.977 -0.7482  0.0078  0.7756
  115CHL1   H2B14745   1.130   0.958   8.975  0.9986 -0.1730 -0.0365
  115CHL1   C2014746   1.133   0.968   7.983 -0.1206 -0.2517  0.4422
  115CHL1   H2014747   1.148   1.078   7.981 -2.3707  0.0838 -0.3697
  115CHL1   C2114748   0.981   0.949   8.014  0.0922  0.1224  0.1968
  115CHL1  H21A14749   0.961   0.852   8.065  1.4310  0.3622  1.2305
  115CHL1  H21B14750   0.921   0.962   7.922  1.1084 -1.3255 -0.7218
  115CHL1  H21C14751   0.949   1.029   8.084 -0.3650  1.4046 -1.4399
  115CHL1   C2214752   1.163   0.907   7.841 -0.1883  0.1765  0.3104
  115CHL1  H22A14753   1.271   0.912   7.814 -0.3876  2.3535 -0.2188
  115CHL1  H22B14754   1.127   0.802   7.838  1.0425 -0.2528 -0.4006
  115CHL1   C2314755   1.089   0.971   7.727  0.5057  0.7959  0.0505
  115CHL1  H23A14756   0.980   0.972   7.745  0.5511 -0.3922  0.4661
  115CHL1  H23B14757   1.117   1.078   7.720  0.0482  0.9055 -0.0895
  115CHL1   C2414758   1.120   0.897   7.595  0.3148  0.3735 -0.1986
  115CHL1  H24A14759   1.230   0.884   7.588  0.6684  2.1385  1.5161
  115CHL1  H24B14760   1.068   0.798   7.594  0.0904  0.4849 -1.3385
  115CHL1   C2514761   1.075   0.960   7.467 -0.5239 -0.2256 -0.0172
  115CHL1   H2514762   1.116   0.894   7.388  0.7906 -1.7285  1.8205
  115CHL1   C2614763   0.922   0.971   7.450 -0.6509  0.1970  0.1230
  115CHL1  H26A14764   0.897   1.040   7.368 -0.4092 -2.2387 -2.1364
  115CHL1  H26B14765   0.877   0.870   7.441 -0.3217  0.0517  0.0941
  115CHL1  H26C14766   0.872   1.026   7.532 -0.8719  2.4159 -1.4269
  115CHL1   C2714767   1.139   1.094   7.438  0.0118 -0.2060 -0.3455
  115CHL1  H27A14768   1.248   1.081   7.459 -0.0678 -1.0956 -0.4433
  115CHL1  H27B14769   1.114   1.127   7.336 -1.7229 -0.0732  0.0929
  115CHL1  H27C14770   1.097   1.168   7.509  0.4167 -1.2639  1.0689
  116CHL1    C314771   2.066   0.452   8.919 -0.1894  0.4446 -0.1283
  116CHL1    H314772   2.131   0.542   8.905  0.8739 -0.3160 -0.2437
  116CHL1    O314773   2.065   0.414   9.053  0.7634  0.2406 -0.4611
  116CHL1   H3'14774   2.060   0.318   9.042 -0.3486  0.3325 -0.8150
  116CHL1    C414775   1.920   0.472   8.877  0.0962 -0.4670  0.3316
  116CHL1   H4A14776   1.858   0.380   8.886  1.5581 -1.3433  2.0481
  116CHL1   H4B14777   1.866   0.546   8.939  1.7280  0.0370  1.2283
  116CHL1    C514778   1.927   0.522   8.733  0.8268 -0.4752  0.4280
  116CHL1    C614779   1.868   0.642   8.692 -0.4173  0.1192 -0.3295
  116CHL1    H614780   1.833   0.704   8.776  0.0343 -0.6461  0.4452
  116CHL1    C714781   1.866   0.698   8.549 -0.0668 -0.4942 -0.0961
  116CHL1   H7A14782   1.774   0.756   8.525  0.4582  0.9139  1.0944
  116CHL1   H7B14783   1.950   0.771   8.549  1.2062 -1.9095 -1.3079
  116CHL1    C814784   1.878   0.580   8.441 -0.5736  0.5232 -0.6455
  116CHL1    H814785   1.781   0.526   8.449 -0.3300  0.3097  1.8728
  116CHL1   C1414786   1.894   0.632   8.296  0.3824  0.0959 -0.5453
  116CHL1   H1414787   1.991   0.685   8.305  0.8587 -0.9188  0.6004
  116CHL1   C1514788   1.797   0.736   8.243 -0.0222  0.2851 -0.5641
  116CHL1  H15A14789   1.693   0.710   8.273 -0.4461  0.6873 -1.6501
  116CHL1  H15B14790   1.816   0.841   8.273  0.4481  0.3293 -1.0020
  116CHL1   C1614791   1.803   0.722   8.093 -0.0174 -0.1231  0.4827
  116CHL1  H16A14792   1.704   0.684   8.061 -1.0299  2.3926  0.3475
  116CHL1  H16B14793   1.806   0.824   8.047  0.5359  0.7583  2.3818
  116CHL1   C1714794   1.922   0.615   8.063 -0.2214 -0.5408  0.1576
  116CHL1   H1714795   2.008   0.685   8.073 -0.8034  0.1836  0.1574
  116CHL1   C1314796   1.920   0.524   8.188 -0.2721 -0.5291  0.5617
  116CHL1   C1814797   1.806   0.419   8.181  0.5911  0.2733 -0.2666
  116CHL1  H18A14798   1.706   0.459   8.155  0.3387  0.4231  0.8564
  116CHL1  H18B14799   1.826   0.331   8.116 -2.1937  1.0280 -2.3329
  116CHL1  H18C14800   1.789   0.375   8.282 -0.6224 -0.4211 -0.7543
  116CHL1   C1214801   2.054   0.461   8.232  0.7305 -0.6206  0.4293
  116CHL1  H12A14802   2.089   0.388   8.155  0.6908 -0.3459  0.1515
  116CHL1  H12B14803   2.129   0.541   8.249  1.9097 -1.7466  0.7076
  116CHL1   C1114804   2.044   0.396   8.367  0.5796  0.3664  0.0793
  116CHL1  H11A14805   1.979   0.307   8.373  1.9624 -0.7269 -0.5509
  116CHL1  H11B14806   2.142   0.361   8.407  0.0968 -1.1243 -0.0072
  116CHL1    C914807   2.000   0.493   8.481  0.3347 -0.0124 -0.4981
  116CHL1    H914808   2.081   0.568   8.498  2.4680 -1.8002 -2.1762
  116CHL1   C1014809   1.983   0.433   8.628 -0.0813  0.1665 -0.0096
  116CHL1   C1914810   1.894   0.306   8.616 -0.2606  0.0099  0.2132
  116CHL1  H19A14811   1.953   0.218   8.582  0.4875  0.6205 -0.0783
  116CHL1  H19B14812   1.838   0.289   8.711 -2.5550  0.0299 -1.0835
  116CHL1  H19C14813   1.814   0.320   8.540 -1.0768 -0.7453  0.9044
  116CHL1    C114814   2.123   0.395   8.678 -0.3182 -0.1262  0.1361
  116CHL1   H1A14815   2.174   0.315   8.620  1.8132 -1.2185  3.2717
  116CHL1   H1B14816   2.189   0.484   8.672 -0.3188 -0.2067 -1.3873
  116CHL1    C214817   2.134   0.349   8.825 -0.9888  0.2492 -0.1726
  116CHL1   H2A14818   2.242   0.346   8.851 -1.0206  2.4842  0.4246
  116CHL1   H2B14819   2.084   0.252   8.846 -2.0571  1.0674  1.2034
  116CHL1   C2014820   1.929   0.557   7.918 -0.1313  0.4825  0.4706
  116CHL1   H2014821   1.993   0.467   7.931 -2.1489 -0.8479  1.6765
  116CHL1   C2114822   2.019   0.646   7.830 -0.2183  0.0207  0.0573
  116CHL1  H21A14823   2.017   0.606   7.726 -1.4304  1.2589 -0.4295
  116CHL1  H21B14824   2.122   0.650   7.870  0.7237  0.3185 -2.2012
  116CHL1  H21C14825   1.976   0.749   7.834  0.3348  0.2183  0.9962
  116CHL1   C2214826   1.794   0.523   7.847 -0.1917  0.1935 -0.0244
  116CHL1  H22A14827   1.725   0.471   7.917  1.0238 -0.5496  0.6451
  116CHL1  H22B14828   1.752   0.621   7.817 -1.6739 -0.5997 -0.6272
  116CHL1   C2314829   1.821   0.421   7.735 -0.3388 -0.1243 -0.5282
  116CHL1  H23A14830   1.853   0.479   7.646 -0.4249 -2.1477 -1.9526
  116CHL1  H23B14831   1.901   0.363   7.786  0.6995  0.8790 -0.9668
  116CHL1   C2414832   1.708   0.328   7.696  0.3116 -1.1350 -0.3270
  116CHL1  H24A14833   1.684   0.272   7.789  1.7908  0.5542  1.1683
  116CHL1  H24B14834   1.620   0.393   7.677 -0.6740 -1.3920  2.8496
  116CHL1   C2514835   1.737   0.240   7.576  0.7341  0.0364  0.0780
  116CHL1   H2514836   1.823   0.177   7.608 -0.0407 -1.2935 -0.3893
  116CHL1   C2614837   1.608   0.162   7.562 -1.2688 -0.6510 -0.1309
  116CHL1  H26A14838   1.627   0.081   7.488 -0.0316 -2.0510  1.6361
  116CHL1  H26B14839   1.584   0.119   7.662 -0.5622 -0.5368  0.0979
  116CHL1  H26C14840   1.526   0.230   7.534 -0.2414  0.8087  0.2912
  116CHL1   C2714841   1.767   0.316   7.445 -0.3093 -0.1041  0.8048
  116CHL1  H27A14842   1.864   0.369   7.444 -0.8316  1.0676 -3.0381
  116CHL1  H27B14843   1.772   0.250   7.356 -2.2282  2.5065 -1.4099
  116CHL1  H27C14844   1.696   0.398   7.421 -2.5498 -2.3262 -0.6766
  117CHL1    C314845   4.483   1.006   9.357 -0.2399  0.0214 -1.0761
  117CHL1    H314846   4.375   0.982   9.344  0.0472 -0.1569 -3.4758
  117CHL1    O314847   4.501   1.020   9.495  0.2343  0.1698  0.5564
  117CHL1   H3'14848   4.595   1.038   9.501  0.7579 -1.1775 -2.0175
  117CHL1    C414849   4.584   0.901   9.306  0.1609  0.2471  0.6034
  117CHL1   H4A14850   4.683   0.912   9.354 -0.3306  0.8248  1.5346
  117CHL1   H4B14851   4.545   0.809   9.355  2.1706 -0.5752  0.7262
  117CHL1    C514852   4.607   0.891   9.158  0.6153 -0.0748  0.2414
  117CHL1    C614853   4.616   0.772   9.096  0.5433  1.1050  0.2571
  117CHL1    H614854   4.607   0.683   9.161 -0.1323  1.2108  0.3170
  117CHL1    C714855   4.641   0.752   8.952 -0.0760  0.2394  0.0160
  117CHL1   H7A14856   4.737   0.696   8.946  0.7297  1.6172 -0.3364
  117CHL1   H7B14857   4.563   0.692   8.900  1.2565 -0.9004 -0.7539
  117CHL1    C814858   4.656   0.883   8.864 -0.7417 -0.1545  0.4431
  117CHL1    H814859   4.765   0.902   8.853  0.0020 -3.7982  0.1788
  117CHL1   C1414860   4.592   0.866   8.718 -0.2986  0.1583 -0.1884
  117CHL1   H1414861   4.482   0.857   8.732 -0.1459  0.4843  1.5217
  117CHL1   C1514862   4.634   0.741   8.639 -0.1399  0.0411 -0.0447
  117CHL1  H15A14863   4.743   0.724   8.638 -0.1593 -0.3497 -2.3730
  117CHL1  H15B14864   4.581   0.649   8.671 -0.0833  0.4719  1.3151
  117CHL1   C1614865   4.590   0.776   8.498  0.0539 -0.4475 -0.4516
  117CHL1  H16A14866   4.668   0.737   8.430 -0.3616 -2.9832  0.4084
  117CHL1  H16B14867   4.496   0.730   8.460  0.9602 -1.1800 -1.8586
  117CHL1   C1714868   4.556   0.929   8.493  0.0394 -0.3079  0.2750
  117CHL1   H1714869   4.446   0.941   8.499  0.2800  2.7058  0.0970
  117CHL1   C1314870   4.618   0.991   8.629  0.1393  1.1299  0.3185
  117CHL1   C1814871   4.769   1.017   8.609  1.3036 -0.2235 -0.4095
  117CHL1  H18A14872   4.786   1.080   8.519 -0.1764 -1.3906 -1.5605
  117CHL1  H18B14873   4.817   1.065   8.696 -1.4923 -1.1977  1.8117
  117CHL1  H18C14874   4.834   0.929   8.587  1.5527 -0.2996  0.5792
  117CHL1   C1214875   4.546   1.110   8.678 -0.3817  0.3614  0.2190
  117CHL1  H12A14876   4.568   1.205   8.625  1.5338  0.4167  1.0368
  117CHL1  H12B14877   4.438   1.082   8.674 -0.1726 -0.4254 -0.1242
  117CHL1   C1114878   4.582   1.131   8.832  0.2874  0.3593  0.0143
  117CHL1  H11A14879   4.687   1.167   8.835 -0.6998  3.4647  1.5399
  117CHL1  H11B14880   4.522   1.218   8.867 -0.9788  0.1807 -1.5526
  117CHL1    C914881   4.583   1.004   8.928 -0.3910 -0.8387 -0.4077
  117CHL1    H914882   4.478   0.965   8.932 -0.8640  0.4609  2.0705
  117CHL1   C1014883   4.607   1.029   9.080  0.0392 -0.0874 -0.5287
  117CHL1   C1914884   4.747   1.095   9.100 -0.1456 -0.3448  0.4411
  117CHL1  H19A14885   4.829   1.050   9.040  0.8072 -0.6819  1.9382
  117CHL1  H19B14886   4.733   1.200   9.067  2.4599  0.7200  2.3744
  117CHL1  H19C14887   4.772   1.107   9.207 -0.8451  0.8406  0.4851
  117CHL1    C114888   4.499   1.136   9.131  0.2481  0.5426 -0.2051
  117CHL1   H1A14889   4.506   1.237   9.086  2.5355  0.8316  0.6253
  117CHL1   H1B14890   4.404   1.091   9.095  0.7939 -1.4834  0.7066
  117CHL1    C214891   4.507   1.147   9.289 -0.8501  0.5603 -0.6572
  117CHL1   H2A14892   4.423   1.215   9.318  0.8100  2.5643 -0.3333
  117CHL1   H2B14893   4.600   1.181   9.339 -1.5103 -1.0325  1.8531
  117CHL1   C2014894   4.588   0.989   8.352  0.6047  0.0099  0.2588
  117CHL1   H2014895   4.698   0.994   8.345  0.7254 -1.8112  0.3058
  117CHL1   C2114896   4.528   1.129   8.336  1.0561  0.1697  0.4948
  117CHL1  H21A14897   4.559   1.199   8.416  2.3151 -0.3661  0.4959
  117CHL1  H21B14898   4.417   1.131   8.336  1.0341  0.0496 -0.8818
  117CHL1  H21C14899   4.579   1.176   8.250 -0.8863 -1.9792 -2.0126
  117CHL1   C2214900   4.541   0.892   8.240  0.1131 -0.2420 -0.1434
  117CHL1  H22A14901   4.580   0.791   8.264  1.4620  0.5877  1.3796
  117CHL1  H22B14902   4.432   0.872   8.247 -0.2721  1.3661 -1.0809
  117CHL1   C2314903   4.567   0.934   8.098  0.0029 -0.0861 -0.0958
  117CHL1  H23A14904   4.508   1.022   8.063  0.7511  0.6170  0.3693
  117CHL1  H23B14905   4.673   0.956   8.073  0.1465 -0.6971 -0.0449
  117CHL1   C2414906   4.537   0.815   8.002  0.2012  0.6925 -0.9773
  117CHL1  H24A14907   4.609   0.731   8.010 -2.1021 -1.3741 -0.8359
  117CHL1  H24B14908   4.442   0.764   8.028 -0.2179  1.7437 -0.3456
  117CHL1   C2514909   4.529   0.841   7.849  0.3206 -0.4068  0.3213
  117CHL1   H2514910   4.455   0.924   7.839 -0.5652 -1.1321  0.6382
  117CHL1   C2614911   4.665   0.881   7.787 -1.0069 -0.0193 -0.3414
  117CHL1  H26A14912   4.656   0.904   7.679  0.9457 -0.1708 -0.5669
  117CHL1  H26B14913   4.710   0.966   7.843 -2.4711  0.2758  0.4304
  117CHL1  H26C14914   4.743   0.802   7.796 -0.7268  0.3258  0.4123
  117CHL1   C2714915   4.473   0.721   7.773 -0.6544  0.3209 -0.0309
  117CHL1  H27A14916   4.448   0.759   7.672  1.1413 -0.9381 -1.0048
  117CHL1  H27B14917   4.554   0.650   7.746 -0.3926  1.3455 -2.1223
  117CHL1  H27C14918   4.387   0.680   7.829 -1.8983  3.6816  0.8093
  118CHL1    C314919   6.202   1.146   9.279  0.5424 -0.2068 -0.0594
  118CHL1    H314920   6.115   1.078   9.273 -0.4358  1.0706 -1.1575
  118CHL1    O314921   6.202   1.215   9.404 -0.2514  0.0016 -0.0623
  118CHL1   H3'14922   6.234   1.149   9.465  0.1501  1.5870  1.5451
  118CHL1    C414923   6.324   1.065   9.261  0.9091 -0.3388 -0.2758
  118CHL1   H4A14924   6.412   1.126   9.287  0.5985 -0.7903  2.0264
  118CHL1   H4B14925   6.327   0.980   9.333  0.0277  0.3369  0.5821
  118CHL1    C514926   6.341   1.008   9.120  0.1234 -0.4350 -0.2765
  118CHL1    C614927   6.343   0.870   9.107 -0.1727 -0.3310  0.9329
  118CHL1    H614928   6.345   0.810   9.198  1.0307 -0.2679  0.9659
  118CHL1    C714929   6.351   0.802   8.972  0.1803  0.0737  0.7692
  118CHL1   H7A14930   6.428   0.722   8.975 -1.3866 -1.5128  0.1901
  118CHL1   H7B14931   6.245   0.774   8.953  0.1669  0.8751 -0.4501
  118CHL1    C814932   6.390   0.911   8.860  0.3737  0.7844  0.4143
  118CHL1    H814933   6.497   0.936   8.875  0.6242 -0.2906  0.5045
  118CHL1   C1414934   6.363   0.855   8.725 -0.0366 -0.2514 -0.0753
  118CHL1   H1414935   6.252   0.849   8.720 -0.1240  0.4369  0.7687
  118CHL1   C1514936   6.411   0.718   8.699 -1.1461 -0.0397 -0.5798
  118CHL1  H15A14937   6.517   0.716   8.732 -2.1072 -0.1388  2.7798
  118CHL1  H15B14938   6.345   0.640   8.744 -0.5901 -1.2502 -1.7726
  118CHL1   C1614939   6.401   0.706   8.544  0.1817  0.2834 -0.6678
  118CHL1  H16A14940   6.495   0.670   8.496  0.5148  0.8382 -0.4308
  118CHL1  H16B14941   6.334   0.621   8.520  3.1680 -2.1127 -1.1964
  118CHL1   C1714942   6.359   0.845   8.485 -0.2120  0.3955 -0.3302
  118CHL1   H1714943   6.249   0.847   8.470 -0.1879 -1.2461 -0.8745
  118CHL1   C1314944   6.396   0.942   8.600  0.1425 -0.4808  0.1176
  118CHL1   C1814945   6.545   0.973   8.595  0.3776 -0.5642  0.4569
  118CHL1  H18A14946   6.606   0.882   8.579 -0.2845 -1.0433  0.5905
  118CHL1  H18B14947   6.567   1.028   8.501  0.4444 -1.9324 -0.3501
  118CHL1  H18C14948   6.574   1.044   8.675  0.3202 -1.5427  1.3584
  118CHL1   C1214949   6.323   1.077   8.613 -0.2484  0.7990 -0.2410
  118CHL1  H12A14950   6.360   1.148   8.536  2.3439 -0.0261  0.1722
  118CHL1  H12B14951   6.214   1.074   8.588 -0.1689  1.1062 -0.6311
  118CHL1   C1114952   6.328   1.137   8.755  0.6415  0.2883  0.2151
  118CHL1  H11A14953   6.426   1.189   8.767  1.2996 -1.4599  3.7366
  118CHL1  H11B14954   6.252   1.217   8.767 -0.7511 -1.3690  3.6873
  118CHL1    C914955   6.310   1.040   8.871 -0.4485 -0.0226 -0.1211
  118CHL1    H914956   6.203   1.013   8.857 -0.1998 -0.8372 -0.5416
  118CHL1   C1014957   6.325   1.105   9.008  0.2626 -0.0631 -0.5353
  118CHL1   C1914958   6.458   1.199   9.011  0.2994  0.6719 -0.2403
  118CHL1  H19A14959   6.548   1.136   8.992  0.2521  0.4285  0.3548
  118CHL1  H19B14960   6.449   1.278   8.933  0.2232 -0.3638 -1.3051
  118CHL1  H19C14961   6.472   1.254   9.106 -0.0982  0.2202  0.0761
  118CHL1    C114962   6.197   1.196   9.035 -0.1439  0.1289 -0.0367
  118CHL1   H1A14963   6.197   1.280   8.963  1.2412  0.6068  0.5016
  118CHL1   H1B14964   6.110   1.137   8.999  0.0365  1.2457 -2.4941
  118CHL1    C214965   6.187   1.254   9.169  0.4114  0.4211 -0.8524
  118CHL1   H2A14966   6.092   1.308   9.188 -0.7732 -0.9538 -2.5152
  118CHL1   H2B14967   6.266   1.332   9.173 -0.6566  1.5011 -0.4925
  118CHL1   C2014968   6.422   0.873   8.341 -0.0726 -0.1894  0.1972
  118CHL1   H2014969   6.533   0.878   8.343 -0.0034  5.6109 -1.2831
  118CHL1   C2114970   6.365   0.998   8.279 -0.0137 -0.0402 -0.1317
  118CHL1  H21A14971   6.255   0.986   8.262 -0.5406  1.4927  1.7800
  118CHL1  H21B14972   6.412   1.038   8.187 -1.1638 -1.1820 -1.2555
  118CHL1  H21C14973   6.383   1.084   8.348  1.5839 -1.4802  1.3150
  118CHL1   C2214974   6.384   0.758   8.238  0.4484 -0.3401  0.1100
  118CHL1  H22A14975   6.409   0.788   8.134 -1.2930 -2.6041 -1.0555
  118CHL1  H22B14976   6.448   0.669   8.251 -1.8643 -2.2504 -0.8355
  118CHL1   C2314977   6.234   0.717   8.240 -0.5288 -0.3322  0.0320
  118CHL1  H23A14978   6.207   0.682   8.342  0.3891  1.3729  0.9025
  118CHL1  H23B14979   6.168   0.807   8.243 -2.5730 -1.7696  0.2899
  118CHL1   C2414980   6.183   0.628   8.128 -0.2192  0.5012  0.0014
  118CHL1  H24A14981   6.208   0.667   8.027  1.0535 -1.3652 -0.4676
  118CHL1  H24B14982   6.249   0.539   8.143 -0.7769  0.2909  1.3868
  118CHL1   C2514983   6.036   0.580   8.144 -0.0919 -0.5672  0.1120
  118CHL1   H2514984   6.019   0.569   8.253 -0.1563  0.5358  0.2158
  118CHL1   C2614985   5.934   0.673   8.069  0.2165  0.2075 -0.6665
  118CHL1  H26A14986   5.932   0.769   8.125  0.5048  0.5166 -1.1785
  118CHL1  H26B14987   5.961   0.698   7.964 -1.1543 -1.6575 -1.5225
  118CHL1  H26C14988   5.836   0.621   8.071  0.2157  0.1448 -1.7807
  118CHL1   C2714989   6.014   0.440   8.093 -0.5568  0.0055 -0.9185
  118CHL1  H27A14990   6.033   0.441   7.983  1.1245 -1.9730 -0.7081
  118CHL1  H27B14991   6.093   0.373   8.133 -1.5494 -0.2092  0.7361
  118CHL1  H27C14992   5.915   0.402   8.123  1.0688 -1.2670  3.6177
  119CHL1    C314993   0.748   6.692   9.392  0.6564  0.8689  0.4762
  119CHL1    H314994   0.845   6.638   9.385 -0.3802 -0.8136 -2.4773
  119CHL1    O314995   0.711   6.708   9.529 -0.0717  0.5276 -0.4892
  119CHL1   H3'14996   0.667   6.627   9.556 -1.2463  0.2246 -3.0012
  119CHL1    C414997   0.772   6.826   9.324  0.6390  0.4778  0.6852
  119CHL1   H4A14998   0.684   6.891   9.346  0.5397  1.0624 -1.2714
  119CHL1   H4B14999   0.847   6.890   9.373  0.8374 -0.6158  1.8610
  119CHL1    C515000   0.799   6.818   9.179 -0.2749  0.2919  0.6710
  119CHL1    C615001   0.916   6.856   9.121 -0.0174  0.3497  0.1519
  119CHL1    H615002   1.004   6.901   9.169 -0.4839  3.0448 -1.2748
  119CHL1    C715003   0.946   6.845   8.975 -0.6952  0.5041 -0.3684
  119CHL1   H7A15004   0.992   6.940   8.941  1.0671 -1.0666 -2.7119
  119CHL1   H7B15005   1.029   6.772   8.963 -1.1276 -0.0224 -0.2002
  119CHL1    C815006   0.820   6.822   8.887 -0.0408 -0.3286  0.0764
  119CHL1    H815007   0.768   6.920   8.877 -1.8295 -1.4147 -2.3553
  119CHL1   C1415008   0.848   6.776   8.745  0.7320 -0.5318  0.5115
  119CHL1   H1415009   0.887   6.672   8.756 -0.1117 -0.6713  2.8350
  119CHL1   C1515010   0.958   6.853   8.668 -0.7390 -0.1007  0.2704
  119CHL1  H15A15011   0.945   6.962   8.679 -1.8538 -0.0964 -0.8681
  119CHL1  H15B15012   1.060   6.820   8.698 -0.3322  0.9994  0.1469
  119CHL1   C1615013   0.938   6.807   8.525  0.6298 -0.2019 -0.9588
  119CHL1  H16A15014   0.936   6.895   8.456  3.0430 -0.5424 -1.5605
  119CHL1  H16B15015   0.999   6.724   8.484 -0.9564 -2.0410  0.2365
  119CHL1   C1715016   0.806   6.723   8.516  1.0713 -0.6197  0.3058
  119CHL1   H1715017   0.818   6.613   8.520 -0.0211 -0.7630 -0.0352
  119CHL1   C1315018   0.727   6.754   8.647 -0.1204 -0.0282  0.0046
  119CHL1   C1815019   0.649   6.892   8.644 -0.5835  0.9088 -0.0498
  119CHL1  H18A15020   0.594   6.897   8.741 -1.5737  1.6439 -0.6276
  119CHL1  H18B15021   0.716   6.980   8.631 -0.0622  0.5988  0.4920
  119CHL1  H18C15022   0.571   6.885   8.565 -1.4866 -0.2085  0.9048
  119CHL1   C1215023   0.640   6.645   8.714  0.7210 -0.3139 -0.1588
  119CHL1  H12A15024   0.541   6.649   8.664 -0.3034  1.5776  1.8505
  119CHL1  H12B15025   0.679   6.541   8.709  1.3381 -0.2050  1.8725
  119CHL1   C1115026   0.620   6.662   8.861 -0.3556  0.8067  0.1064
  119CHL1  H11A15027   0.526   6.721   8.858 -0.7939  0.1068 -1.0128
  119CHL1  H11B15028   0.584   6.566   8.904  0.3012  0.7858  0.6105
  119CHL1    C915029   0.732   6.713   8.949 -0.3192 -0.3842  0.3416
  119CHL1    H915030   0.806   6.630   8.953 -0.4510 -0.5370 -0.2884
  119CHL1   C1015031   0.692   6.748   9.097 -1.3409  0.2146 -0.2509
  119CHL1   C1915032   0.561   6.834   9.101 -0.9724 -0.6582  0.5982
  119CHL1  H19A15033   0.476   6.781   9.053 -0.8673  0.8748 -1.4248
  119CHL1  H19B15034   0.533   6.861   9.205 -2.2531  2.9617 -0.5334
  119CHL1  H19C15035   0.583   6.932   9.056  0.7699 -3.2361 -5.0772
  119CHL1    C115036   0.661   6.609   9.167  0.2636 -0.3657 -0.4679
  119CHL1   H1A15037   0.574   6.556   9.123  0.8499 -1.1228 -0.7266
  119CHL1   H1B15038   0.753   6.548   9.151  0.2354 -0.1729 -1.4674
  119CHL1    C215039   0.637   6.620   9.321  0.0391  0.2701 -0.0861
  119CHL1   H2A15040   0.617   6.519   9.361  1.3398  0.0235 -0.0030
  119CHL1   H2B15041   0.550   6.688   9.331  0.6017  1.4349 -2.3227
  119CHL1   C2015042   0.733   6.742   8.376 -0.0120  1.2829 -0.7272
  119CHL1   H2015043   0.721   6.852   8.371 -0.7673  1.4617  2.7154
  119CHL1   C2115044   0.602   6.659   8.384 -0.1339  0.4949  0.1981
  119CHL1  H21A15045   0.548   6.650   8.287  2.5216 -0.5054 -1.3195
  119CHL1  H21B15046   0.541   6.708   8.463 -2.8166 -0.5749 -1.0835
  119CHL1  H21C15047   0.637   6.562   8.423  1.7726  1.7891  1.9229
  119CHL1   C2215048   0.818   6.702   8.263 -0.7528 -0.0380 -0.5385
  119CHL1  H22A15049   0.915   6.756   8.269 -0.7145  0.0484 -1.6453
  119CHL1  H22B15050   0.848   6.596   8.275  2.3269  0.6584 -1.2553
  119CHL1   C2315051   0.758   6.731   8.126 -0.1962 -0.2789 -0.9160
  119CHL1  H23A15052   0.656   6.687   8.118 -0.4115  0.0826 -0.2042
  119CHL1  H23B15053   0.741   6.840   8.116  2.2727  0.1601 -1.0063
  119CHL1   C2415054   0.845   6.682   8.013  0.8554 -0.5312 -0.0399
  119CHL1  H24A15055   0.948   6.714   8.038  0.2614 -0.1522  2.0410
  119CHL1  H24B15056   0.832   6.573   7.996 -0.8005 -0.5568  1.1474
  119CHL1   C2515057   0.814   6.751   7.879  0.1351 -0.9964  0.4639
  119CHL1   H2515058   0.776   6.854   7.898  0.5127 -0.4689 -1.4561
  119CHL1   C2615059   0.935   6.761   7.780 -0.4716  0.8410 -0.2630
  119CHL1  H26A15060   0.912   6.802   7.680 -1.9481  0.4585 -0.1111
  119CHL1  H26B15061   1.022   6.812   7.826  1.3845 -1.8535 -0.5608
  119CHL1  H26C15062   0.978   6.662   7.753 -1.0480  0.8192 -1.1374
  119CHL1   C2715063   0.698   6.680   7.807 -0.2852  0.5279  0.2153
  119CHL1  H27A15064   0.730   6.577   7.783  0.4093  0.5762  0.8775
  119CHL1  H27B15065   0.616   6.672   7.881 -0.2423 -2.2394  0.0503
  119CHL1  H27C15066   0.665   6.731   7.713 -1.8242 -0.6455  0.0797
  120CHL1    C315067   5.791   6.546   9.664  0.0227  0.2633  0.6510
  120CHL1    H315068   5.873   6.620   9.647  0.9609 -0.9013 -0.0632
  120CHL1    O315069   5.768   6.532   9.803  0.6444 -0.3207  0.3266
  120CHL1   H3'15070   5.731   6.446   9.820  1.4038 -1.0797 -1.5846
  120CHL1    C415071   5.658   6.592   9.601  0.0391  0.2483  0.5349
  120CHL1   H4A15072   5.582   6.515   9.629  1.6134 -1.7292 -0.3983
  120CHL1   H4B15073   5.625   6.688   9.646 -1.8050  0.0742 -0.3578
  120CHL1    C515074   5.676   6.597   9.453  0.0607 -0.3487  0.1410
  120CHL1    C615075   5.650   6.705   9.386  0.3598 -0.1573  0.0388
  120CHL1    H615076   5.594   6.774   9.451 -0.8989 -1.3526  0.2730
  120CHL1    C715077   5.649   6.725   9.235  0.8327  0.4282  0.2514
  120CHL1   H7A15078   5.554   6.765   9.193  0.0700 -0.1886  1.3351
  120CHL1   H7B15079   5.735   6.793   9.215 -0.0743  1.3944 -0.4400
  120CHL1    C815080   5.669   6.588   9.162  0.1566  0.1433  0.1591
  120CHL1    H815081   5.569   6.539   9.165  1.2464 -2.3110 -0.4672
  120CHL1   C1415082   5.707   6.609   9.011  0.4839  0.2141 -0.3098
  120CHL1   H1415083   5.812   6.645   9.016  0.3189  0.7004 -0.2844
  120CHL1   C1515084   5.626   6.712   8.936 -0.0430  0.2788 -0.3811
  120CHL1  H15A15085   5.521   6.715   8.972  0.4820  0.3000  1.1912
  120CHL1  H15B15086   5.670   6.813   8.919 -0.0450  0.1250 -1.4009
  120CHL1   C1615087   5.632   6.651   8.786 -0.1674 -0.4046  0.0600
  120CHL1  H16A15088   5.535   6.613   8.746  0.5682 -0.1773 -2.0495
  120CHL1  H16B15089   5.674   6.731   8.723 -2.2670  0.6321 -0.1113
  120CHL1   C1715090   5.729   6.526   8.792 -0.0732  0.6339 -0.0384
  120CHL1   H1715091   5.832   6.568   8.791  0.0390  0.3600 -0.1395
  120CHL1   C1315092   5.706   6.474   8.937 -1.1000  0.5349  0.2863
  120CHL1   C1815093   5.570   6.395   8.946 -0.1864 -0.1678  0.0685
  120CHL1  H18A15094   5.573   6.300   8.890 -1.8520 -1.3985  1.9503
  120CHL1  H18B15095   5.559   6.360   9.051  1.0736 -2.5950 -0.5604
  120CHL1  H18C15096   5.494   6.468   8.910  0.0787  0.5773  0.9623
  120CHL1   C1215097   5.828   6.394   8.998 -0.5435 -0.3076 -0.1895
  120CHL1  H12A15098   5.834   6.292   8.954  1.3341 -0.3819  0.1545
  120CHL1  H12B15099   5.915   6.462   8.981 -0.3531 -0.0358  1.6124
  120CHL1   C1115100   5.807   6.373   9.151 -0.3568  0.0451  0.4141
  120CHL1  H11A15101   5.728   6.297   9.161 -1.1177  0.6892 -0.5267
  120CHL1  H11B15102   5.903   6.330   9.188  0.6622  0.8679 -1.1281
  120CHL1    C915103   5.777   6.511   9.228  0.2905  0.4910 -0.1511
  120CHL1    H915104   5.871   6.570   9.232 -0.3961  1.5607  2.8662
  120CHL1   C1015105   5.735   6.479   9.378 -0.5170 -0.4716 -0.5346
  120CHL1   C1915106   5.631   6.367   9.378  0.0975  0.3978  0.0879
  120CHL1  H19A15107   5.692   6.277   9.354 -0.5372  0.3427 -1.4015
  120CHL1  H19B15108   5.590   6.332   9.475 -1.0704 -1.7868 -1.1178
  120CHL1  H19C15109   5.548   6.379   9.306 -0.1562  0.9622  0.4678
  120CHL1    C115110   5.858   6.434   9.454 -0.1613  0.2964 -0.6627
  120CHL1   H1A15111   5.892   6.336   9.415 -0.0633  0.3060 -0.6010
  120CHL1   H1B15112   5.939   6.506   9.433  0.7784 -0.5229  0.0683
  120CHL1    C215113   5.839   6.413   9.600 -0.1399 -0.6335  0.0996
  120CHL1   H2A15114   5.928   6.379   9.658  0.3956 -0.6171 -0.6887
  120CHL1   H2B15115   5.762   6.338   9.629 -2.0759  1.8107  1.5999
  120CHL1   C2015116   5.714   6.435   8.671  0.0067 -0.0901  0.7442
  120CHL1   H2015117   5.608   6.403   8.658 -0.4443  1.3777  0.5203
  120CHL1   C2115118   5.798   6.310   8.687 -0.1128  0.6784  0.7674
  120CHL1  H21A15119   5.900   6.349   8.705 -0.0970  0.4801  1.1130
  120CHL1  H21B15120   5.784   6.265   8.586 -1.4302 -1.4787  1.8282
  120CHL1  H21C15121   5.757   6.239   8.763  1.8712 -2.1633 -0.6394
  120CHL1   C2215122   5.759   6.508   8.539 -0.0371  0.4112 -0.7036
  120CHL1  H22A15123   5.703   6.604   8.536 -1.2279 -0.2817 -1.7595
  120CHL1  H22B15124   5.865   6.534   8.560  0.3011 -2.2958  1.4095
  120CHL1   C2315125   5.732   6.443   8.402  0.2000  0.2489 -0.8371
  120CHL1  H23A15126   5.774   6.340   8.400  0.6361  0.3814  0.3894
  120CHL1  H23B15127   5.622   6.427   8.396  0.0798  1.1858 -1.2635
  120CHL1   C2415128   5.785   6.524   8.285 -0.2439  0.1674 -0.0823
  120CHL1  H24A15129   5.744   6.627   8.292 -0.0119  0.2241  0.4979
  120CHL1  H24B15130   5.895   6.543   8.293 -0.1934  0.5712 -1.3857
  120CHL1   C2515131   5.787   6.465   8.140 -0.9182 -0.1062 -0.0883
  120CHL1   H2515132   5.682   6.438   8.119 -0.9093 -0.4612  0.3026
  120CHL1   C2615133   5.847   6.555   8.030  0.5975 -0.4907 -0.0170
  120CHL1  H26A15134   5.822   6.496   7.939 -0.2461  0.3647 -0.3526
  120CHL1  H26B15135   5.810   6.659   8.022 -1.9064 -1.4505 -2.6881
  120CHL1  H26C15136   5.958   6.558   8.033  0.6684  0.3025 -2.1693
  120CHL1   C2715137   5.858   6.325   8.127 -0.1767 -0.1398  0.5353
  120CHL1  H27A15138   5.829   6.250   8.204  1.5046  1.1973  2.5988
  120CHL1  H27B15139   5.836   6.281   8.028  1.8916 -1.5912  0.6805
  120CHL1  H27C15140   5.968   6.328   8.133  0.0671 -1.3935 -2.1439
  121CHL1    C315141   3.730   3.189   5.810 -1.0364 -0.5741  1.0033
  121CHL1    H315142   3.700   3.082   5.811  1.7568 -1.4875 -1.0407
  121CHL1    O315143   3.742   3.224   5.671  0.0962 -0.2376  0.0643
  121CHL1   H3'15144   3.756   3.319   5.675  2.2359 -0.5367  1.3928
  121CHL1    C415145   3.628   3.279   5.880 -0.3281  0.2217 -0.3677
  121CHL1   H4A15146   3.660   3.386   5.873  1.1222 -0.0438  1.4303
  121CHL1   H4B15147   3.534   3.282   5.820  0.1589  3.0071 -1.1386
  121CHL1    C515148   3.613   3.247   6.028  0.5603 -0.9699 -0.1588
  121CHL1    C615149   3.496   3.231   6.090  0.1617  0.0042 -0.2700
  121CHL1    H615150   3.402   3.242   6.033  0.3474  0.7850 -0.4361
  121CHL1    C715151   3.475   3.203   6.233  0.7339  0.1002  0.5651
  121CHL1   H7A15152   3.398   3.264   6.285 -0.2709 -0.1439 -0.5955
  121CHL1   H7B15153   3.443   3.099   6.253  2.2529 -0.2615  1.2911
  121CHL1    C815154   3.606   3.216   6.315  0.1936 -0.3937  0.1853
  121CHL1    H815155   3.624   3.325   6.328  1.1514 -0.8067  3.0682
  121CHL1   C1415156   3.591   3.154   6.450 -0.6355  0.3156 -0.1620
  121CHL1   H1415157   3.581   3.047   6.423  0.6719  0.2626 -0.5054
  121CHL1   C1515158   3.464   3.176   6.533 -0.2203 -0.0141 -0.2762
  121CHL1  H15A15159   3.435   3.284   6.536  0.9474  0.2934  0.6122
  121CHL1  H15B15160   3.374   3.116   6.505 -0.6657 -0.7773  2.5300
  121CHL1   C1615161   3.505   3.121   6.668 -0.0268 -0.1403  0.0684
  121CHL1  H16A15162   3.479   3.207   6.734  1.5006  0.3109  0.1019
  121CHL1  H16B15163   3.447   3.030   6.695  1.8753 -1.5682 -0.4636
  121CHL1   C1715164   3.651   3.083   6.670 -0.3691 -0.8163 -0.0437
  121CHL1   H1715165   3.649   2.975   6.643 -1.6013 -0.2627 -2.4812
  121CHL1   C1315166   3.712   3.166   6.550  0.3006  0.4286 -0.4130
  121CHL1   C1815167   3.727   3.309   6.596  0.1835 -0.2773  0.7274
  121CHL1  H18A15168   3.823   3.318   6.651  0.1317 -0.8156  0.9056
  121CHL1  H18B15169   3.735   3.373   6.505  2.3703 -1.4439  0.0262
  121CHL1  H18C15170   3.644   3.345   6.661 -0.2591  0.2731 -0.1155
  121CHL1   C1215171   3.831   3.103   6.475  0.1780 -0.0495 -0.4432
  121CHL1  H12A15172   3.923   3.115   6.536 -0.1761  1.8627 -0.2349
  121CHL1  H12B15173   3.802   2.996   6.466 -3.3389  0.6925  0.7230
  121CHL1   C1115174   3.858   3.174   6.337 -0.0881  0.2403 -1.0248
  121CHL1  H11A15175   3.874   3.277   6.374 -2.6191  0.2186  0.3597
  121CHL1  H11B15176   3.950   3.146   6.281  0.4255  0.7446 -0.4428
  121CHL1    C915177   3.734   3.168   6.246 -0.7011 -0.6637  0.9225
  121CHL1    H915178   3.715   3.061   6.223  0.1120 -0.7434  0.6058
  121CHL1   C1015179   3.747   3.238   6.103 -0.7922 -0.2949 -0.3172
  121CHL1   C1915180   3.808   3.378   6.123  0.0076 -0.3872 -0.3825
  121CHL1  H19A15181   3.911   3.373   6.163 -0.2704  1.2740  0.6570
  121CHL1  H19B15182   3.807   3.443   6.033  1.9806  1.9780  1.1565
  121CHL1  H19C15183   3.751   3.441   6.194 -0.7137  0.9006 -2.0401
  121CHL1    C115184   3.856   3.159   6.017 -0.3480  0.1163 -0.3314
  121CHL1   H1A15185   3.958   3.157   6.062  0.0516 -0.0626 -1.2107
  121CHL1   H1B15186   3.816   3.056   6.020  0.1015 -0.0339  1.5205
  121CHL1    C215187   3.868   3.203   5.876 -0.1197  0.0714  0.1735
  121CHL1   H2A15188   3.937   3.131   5.828  2.5457  1.1089  2.2191
  121CHL1   H2B15189   3.916   3.302   5.865  0.7162 -0.4076 -0.6750
  121CHL1   C2015190   3.707   3.095   6.808 -0.3758 -0.8669  0.6573
  121CHL1   H2015191   3.699   3.198   6.847 -0.4673  0.0306 -1.5965
  121CHL1   C2115192   3.861   3.074   6.789  0.3158  0.1443 -0.5537
  121CHL1  H21A15193   3.911   3.086   6.887 -1.2457  2.0701  0.1024
  121CHL1  H21B15194   3.911   3.154   6.729  0.4435  1.0064  0.6797
  121CHL1  H21C15195   3.876   2.972   6.748  3.4866  0.7123 -1.0268
  121CHL1   C2215196   3.656   2.996   6.913  0.0699  0.4019 -0.3739
  121CHL1  H22A15197   3.546   2.980   6.908 -0.1319  1.8731 -1.0989
  121CHL1  H22B15198   3.710   2.902   6.888 -0.3350  0.2936 -0.8703
  121CHL1   C2315199   3.682   3.036   7.059  0.4413  0.1995 -0.5419
  121CHL1  H23A15200   3.792   3.026   7.069  0.2888 -2.9829 -1.2084
  121CHL1  H23B15201   3.655   3.143   7.070  0.3143  0.0560  0.5883
  121CHL1   C2415202   3.605   2.949   7.162 -0.5003 -0.1624 -0.2696
  121CHL1  H24A15203   3.494   2.961   7.157 -0.6373 -1.5823 -1.1953
  121CHL1  H24B15204   3.628   2.842   7.144 -0.7102 -0.1300 -0.7660
  121CHL1   C2515205   3.644   2.994   7.307  0.6480 -0.6143 -0.3825
  121CHL1   H2515206   3.754   3.008   7.314  0.3389  1.8396  0.6521
  121CHL1   C2615207   3.582   3.133   7.341  0.3158  0.1996  0.2040
  121CHL1  H26A15208   3.594   3.163   7.448 -1.6304 -0.6293  0.6852
  121CHL1  H26B15209   3.610   3.208   7.264  1.2300 -0.0642  0.2634
  121CHL1  H26C15210   3.472   3.129   7.328  0.3529  2.2377 -1.1086
  121CHL1   C2715211   3.592   2.900   7.420 -0.3807  0.2801 -0.1003
  121CHL1  H27A15212   3.485   2.870   7.409 -0.5681  0.3216  1.3728
  121CHL1  H27B15213   3.653   2.808   7.414 -0.7009 -0.1085  1.7915
  121CHL1  H27C15214   3.617   2.949   7.517  2.3660 -1.7360  0.3349
  122CHL1    C315215   1.889   3.919   6.347  0.7851 -0.1164  0.2494
  122CHL1    H315216   1.902   3.821   6.295 -1.0558 -0.8261  1.0468
  122CHL1    O315217   1.820   4.002   6.258 -0.1012 -0.2884  0.5932
  122CHL1   H3'15218   1.882   4.017   6.186 -1.0313 -0.6816 -0.3348
  122CHL1    C415219   1.803   3.901   6.466  0.1216  0.7487 -0.2703
  122CHL1   H4A15220   1.778   4.002   6.503  2.2241  1.2665 -0.1742
  122CHL1   H4B15221   1.707   3.855   6.431  0.2544  0.2060  0.0592
  122CHL1    C515222   1.872   3.809   6.574  0.5382  0.2081 -0.0937
  122CHL1    C615223   1.815   3.698   6.621  0.0527  0.1408  0.0175
  122CHL1    H615224   1.719   3.664   6.580  0.4764 -0.7259 -0.2663
  122CHL1    C715225   1.867   3.613   6.728  0.4000 -0.3316 -0.4573
  122CHL1   H7A15226   1.782   3.589   6.796 -0.3546  1.1448 -0.8256
  122CHL1   H7B15227   1.895   3.520   6.674 -1.3677 -0.6700 -0.8573
  122CHL1    C815228   1.985   3.685   6.802  0.4261 -0.1133  0.1051
  122CHL1    H815229   1.937   3.766   6.862  2.2470 -0.2938  1.9014
  122CHL1   C1415230   2.058   3.591   6.892 -0.0974  0.3366  0.7080
  122CHL1   H1415231   2.108   3.522   6.820  0.2288 -0.7638  1.9488
  122CHL1   C1515232   1.981   3.502   6.993  0.5651 -0.2175 -0.6994
  122CHL1  H15A15233   1.896   3.558   7.037  1.0202  1.0513 -1.3622
  122CHL1  H15B15234   1.946   3.418   6.929  0.2908 -1.3792  0.9321
  122CHL1   C1615235   2.085   3.476   7.109  0.2295  0.5768 -0.5530
  122CHL1  H16A15236   2.045   3.520   7.203  0.2491  2.5905 -1.4311
  122CHL1  H16B15237   2.113   3.371   7.132 -1.7323  0.1407  0.0574
  122CHL1   C1715238   2.219   3.542   7.069  0.2139  0.2963 -0.0080
  122CHL1   H1715239   2.265   3.464   7.005 -0.4837 -0.9063  0.9201
  122CHL1   C1315240   2.177   3.654   6.970 -0.4501  0.7901 -0.6832
  122CHL1   C1815241   2.124   3.769   7.057 -0.3809  0.1409  0.5770
  122CHL1  H18A15242   2.206   3.791   7.129  0.9942 -2.1586 -0.1609
  122CHL1  H18B15243   2.100   3.862   7.001  0.0267 -0.2677 -0.2944
  122CHL1  H18C15244   2.037   3.730   7.114  0.2441  0.4191  1.7337
  122CHL1   C1215245   2.278   3.692   6.860 -0.2767  0.1825  0.8633
  122CHL1  H12A15246   2.374   3.731   6.900  0.1887 -0.9603  0.8969
  122CHL1  H12B15247   2.299   3.598   6.805 -0.9090  0.5818 -0.0895
  122CHL1   C1115248   2.212   3.793   6.763 -0.3955  0.2811 -0.1201
  122CHL1  H11A15249   2.201   3.882   6.828  0.4157 -0.4468  1.0653
  122CHL1  H11B15250   2.293   3.813   6.689  2.2469 -4.4800  1.0332
  122CHL1    C915251   2.083   3.745   6.697  0.7178 -0.3450 -0.6024
  122CHL1    H915252   2.113   3.661   6.632 -0.3826  0.0701 -1.7109
  122CHL1   C1015253   2.012   3.858   6.612 -0.2900  1.2388 -0.0578
  122CHL1   C1915254   1.993   3.989   6.696  0.7932 -0.1850 -0.5429
  122CHL1  H19A15255   2.088   4.039   6.724 -0.0976  0.7569  0.9111
  122CHL1  H19B15256   1.932   4.061   6.636  2.5748  0.6512 -1.4386
  122CHL1  H19C15257   1.938   3.957   6.786 -1.4879  1.0578 -1.4137
  122CHL1    C115258   2.098   3.888   6.484  0.0033  0.2310  0.2131
  122CHL1   H1A15259   2.193   3.938   6.512  0.6912 -1.9243  2.0820
  122CHL1   H1B15260   2.124   3.797   6.426  1.4904  0.8407 -0.1363
  122CHL1    C215261   2.026   3.986   6.388 -0.4838  0.3584 -0.6213
  122CHL1   H2A15262   2.089   4.014   6.301 -0.2205 -3.3191 -1.8199
  122CHL1   H2B15263   2.008   4.076   6.450  2.1999 -0.5594  1.6904
  122CHL1   C2015264   2.317   3.580   7.187  0.3557  0.8254  0.5284
  122CHL1   H2015265   2.272   3.655   7.254  2.6091  0.5944  2.4146
  122CHL1   C2115266   2.452   3.635   7.129 -0.1186 -0.6538 -0.6962
  122CHL1  H21A15267   2.481   3.578   7.038 -3.4529 -1.6243 -1.2771
  122CHL1  H21B15268   2.533   3.652   7.202 -0.3103 -2.7378  0.0805
  122CHL1  H21C15269   2.418   3.730   7.083 -0.9818 -1.3916 -1.6347
  122CHL1   C2215270   2.349   3.460   7.278  0.6727  0.7757  0.5394
  122CHL1  H22A15271   2.261   3.396   7.299  0.9043  0.8583  1.8943
  122CHL1  H22B15272   2.417   3.389   7.226 -0.0129  1.0086 -0.7182
  122CHL1   C2315273   2.418   3.500   7.411  0.6593 -0.1488  0.3147
  122CHL1  H23A15274   2.521   3.534   7.389 -0.3197  1.7614 -1.7205
  122CHL1  H23B15275   2.353   3.576   7.459  0.0423  0.0505 -0.8018
  122CHL1   C2415276   2.409   3.377   7.503  0.4772  0.0059 -0.2717
  122CHL1  H24A15277   2.303   3.346   7.500  0.5430 -0.3656  0.9273
  122CHL1  H24B15278   2.465   3.292   7.457 -0.9219 -0.5122 -1.0851
  122CHL1   C2515279   2.471   3.388   7.642  0.4239  0.8444  0.0382
  122CHL1   H2515280   2.578   3.363   7.627  0.2031 -0.7616  0.9214
  122CHL1   C2615281   2.436   3.516   7.706 -0.0507  0.2664 -0.5003
  122CHL1  H26A15282   2.326   3.524   7.717 -0.0218  0.5667 -0.4299
  122CHL1  H26B15283   2.469   3.517   7.812 -0.8119 -1.4435 -0.2019
  122CHL1  H26C15284   2.474   3.602   7.648  0.8425  0.3562  0.1957
  122CHL1   C2715285   2.424   3.266   7.730 -0.4362 -0.4709  0.2180
  122CHL1  H27A15286   2.448   3.174   7.672  0.4327  0.6599 -1.2958
  122CHL1  H27B15287   2.480   3.276   7.825 -0.9807 -1.0661  0.6067
  122CHL1  H27C15288   2.317   3.275   7.757 -0.9855 -0.5388 -1.7381
  123CHL1    C315289   4.667   4.185   5.560  0.2624 -0.3013 -1.1630
  123CHL1    H315290   4.594   4.107   5.591  0.0150  0.9794  1.8101
  123CHL1    O315291   4.650   4.213   5.423 -0.5619  0.4542  0.2212
  123CHL1   H3'15292   4.558   4.240   5.413 -0.6802  0.5534  1.4005
  123CHL1    C415293   4.646   4.309   5.644 -0.3277 -0.3343  0.1994
  123CHL1   H4A15294   4.719   4.386   5.609 -1.5286  1.3052  1.1787
  123CHL1   H4B15295   4.549   4.353   5.613 -0.2536 -1.1353 -1.2558
  123CHL1    C515296   4.658   4.281   5.789  0.2627 -0.0337 -0.3056
  123CHL1    C615297   4.553   4.315   5.866  0.4611  0.4402 -0.0986
  123CHL1    H615298   4.466   4.357   5.813 -0.1377  2.3488  2.2044
  123CHL1    C715299   4.548   4.293   6.021 -0.0682  0.1713  0.4611
  123CHL1   H7A15300   4.544   4.397   6.059  0.6381  0.5252 -0.3886
  123CHL1   H7B15301   4.471   4.221   6.054  0.6872 -0.7364  0.3019
  123CHL1    C815302   4.689   4.255   6.085 -0.6769  1.0183  0.8119
  123CHL1    H815303   4.749   4.349   6.095  1.0364  0.0932 -0.2802
  123CHL1   C1415304   4.676   4.176   6.216  0.3086  0.2884  0.1688
  123CHL1   H1415305   4.610   4.090   6.189  1.7557  0.1186 -3.4020
  123CHL1   C1515306   4.615   4.259   6.324 -0.1661 -0.3459 -0.3452
  123CHL1  H15A15307   4.675   4.352   6.326  1.6969 -1.4307 -1.6443
  123CHL1  H15B15308   4.508   4.280   6.303 -0.2802 -0.7116 -0.1438
  123CHL1   C1615309   4.635   4.171   6.446  0.6626 -0.5531 -0.2972
  123CHL1  H16A15310   4.670   4.235   6.530 -0.3052 -2.2059  1.4467
  123CHL1  H16B15311   4.535   4.136   6.479  0.3960 -0.0958 -0.6198
  123CHL1   C1715312   4.741   4.069   6.412 -0.6409 -0.3748 -0.3961
  123CHL1   H1715313   4.683   3.982   6.373 -2.0631  1.6544 -3.1566
  123CHL1   C1315314   4.806   4.122   6.279 -0.0705 -0.7353  0.2130
  123CHL1   C1815315   4.907   4.227   6.317  0.0637 -0.0773  0.3414
  123CHL1  H18A15316   4.916   4.300   6.234 -1.5092 -1.1440 -0.8314
  123CHL1  H18B15317   4.876   4.287   6.405 -1.3006 -0.9966  0.5248
  123CHL1  H18C15318   5.003   4.186   6.355  0.6668  0.8300 -0.1618
  123CHL1   C1215319   4.855   4.015   6.174  1.0014  0.1975 -0.2588
  123CHL1  H12A15320   4.945   3.958   6.205 -0.1695 -1.3272  0.4483
  123CHL1  H12B15321   4.778   3.936   6.159  1.3345  0.0610 -1.3428
  123CHL1   C1115322   4.891   4.081   6.042  0.4523 -0.1341 -0.4999
  123CHL1  H11A15323   4.977   4.152   6.046  0.3058  0.0067  0.8359
  123CHL1  H11B15324   4.912   3.997   5.973 -1.1178 -3.2083  2.4459
  123CHL1    C915325   4.766   4.161   5.981 -0.0054  0.2474  0.1665
  123CHL1    H915326   4.695   4.076   5.972 -0.1684  0.2806  1.0967
  123CHL1   C1015327   4.784   4.215   5.841  0.1656 -0.2862  0.4238
  123CHL1   C1915328   4.904   4.316   5.843  0.0629 -0.6398  0.5912
  123CHL1  H19A15329   4.877   4.407   5.901  0.1589 -0.7368  0.7885
  123CHL1  H19B15330   4.998   4.266   5.874  1.1048  0.4484 -0.6740
  123CHL1  H19C15331   4.922   4.351   5.739  0.4623 -0.6155  0.6661
  123CHL1    C115332   4.812   4.085   5.747  0.4237 -0.3599  0.2204
  123CHL1   H1A15333   4.908   4.033   5.768  1.1177  0.5697 -0.5346
  123CHL1   H1B15334   4.737   4.005   5.763  0.0324 -0.9931 -3.7680
  123CHL1    C215335   4.809   4.125   5.596  0.0383 -0.1803 -0.0128
  123CHL1   H2A15336   4.843   4.038   5.535  1.7436  0.0665  0.5345
  123CHL1   H2B15337   4.883   4.203   5.568 -1.5111  1.4679  0.3688
  123CHL1   C2015338   4.826   4.045   6.539 -0.2062 -0.5273 -0.0247
  123CHL1   H2015339   4.868   4.138   6.584 -2.0753 -0.4903  1.7805
  123CHL1   C2115340   4.933   3.943   6.501  0.2419  0.2919 -0.1267
  123CHL1  H21A15341   4.999   3.921   6.588 -0.7654 -2.5448  0.0234
  123CHL1  H21B15342   4.999   3.970   6.416  0.7487 -1.1744 -0.2374
  123CHL1  H21C15343   4.885   3.846   6.475  1.9707 -0.0841 -2.1711
  123CHL1   C2215344   4.738   3.992   6.655 -0.1157 -0.2209 -0.5209
  123CHL1  H22A15345   4.660   4.065   6.687  0.4492 -0.7890  2.5149
  123CHL1  H22B15346   4.699   3.892   6.628  0.4199 -0.4021 -0.6448
  123CHL1   C2315347   4.811   3.970   6.792  0.0993  1.0153  0.0465
  123CHL1  H23A15348   4.887   3.889   6.793  0.1364  1.0489  1.3202
  123CHL1  H23B15349   4.857   4.067   6.819  2.2708 -0.1100  0.5788
  123CHL1   C2415350   4.715   3.934   6.909  0.2448 -0.7267  0.1010
  123CHL1  H24A15351   4.630   4.005   6.914  0.6023 -0.2549 -0.3253
  123CHL1  H24B15352   4.671   3.836   6.883 -0.3668 -0.8178  1.4118
  123CHL1   C2515353   4.796   3.930   7.040 -0.3590  0.4281 -0.6560
  123CHL1   H2515354   4.858   3.838   7.044 -0.6059  0.2862  2.3302
  123CHL1   C2615355   4.883   4.050   7.069 -0.2402  0.0370  0.2839
  123CHL1  H26A15356   4.979   4.060   7.014 -1.5594  2.4023 -1.7962
  123CHL1  H26B15357   4.823   4.138   7.039 -2.2364 -1.4847 -0.3933
  123CHL1  H26C15358   4.920   4.049   7.173 -1.7872  1.2454  0.8856
  123CHL1   C2715359   4.692   3.901   7.149 -0.5022 -0.8872 -0.4016
  123CHL1  H27A15360   4.744   3.879   7.244 -0.9968 -2.7847 -0.5413
  123CHL1  H27B15361   4.636   3.997   7.159  1.1580  0.2483 -1.3964
  123CHL1  H27C15362   4.618   3.821   7.131  1.6783 -2.7639 -1.6571
  124CHL1    C315363   3.559   4.387   5.839 -0.2310  0.6953  0.2434
  124CHL1    H315364   3.659   4.361   5.798 -0.6241 -0.5206  0.0394
  124CHL1    O315365   3.465   4.408   5.734  0.1643 -0.1351  0.2334
  124CHL1   H3'15366   3.385   4.445   5.772 -0.5076 -0.3005 -0.9714
  124CHL1    C415367   3.496   4.273   5.917  0.4855  0.7202  0.3171
  124CHL1   H4A15368   3.388   4.297   5.929  0.3913 -0.0992  1.1981
  124CHL1   H4B15369   3.502   4.190   5.842 -0.5411  0.5146  0.4480
  124CHL1    C515370   3.554   4.241   6.046 -0.0741  0.0039 -0.0573
  124CHL1    C615371   3.612   4.116   6.068  0.3256 -0.1343 -0.1097
  124CHL1    H615372   3.599   4.039   5.991  2.1220  2.6912 -3.5497
  124CHL1    C715373   3.679   4.067   6.196  0.7040  0.0382 -0.1728
  124CHL1   H7A15374   3.653   3.961   6.213 -1.2288  0.1288 -2.2033
  124CHL1   H7B15375   3.790   4.073   6.193  0.6699  0.4090 -1.4074
  124CHL1    C815376   3.652   4.167   6.314  0.8600  0.1640 -0.5238
  124CHL1    H815377   3.548   4.149   6.348  0.8709  0.6217 -0.2320
  124CHL1   C1415378   3.734   4.140   6.439 -0.1702  0.6837 -0.0527
  124CHL1   H1415379   3.841   4.155   6.414 -0.4506  3.6646  0.1779
  124CHL1   C1515380   3.734   3.999   6.503 -0.4387 -0.0065 -0.4534
  124CHL1  H15A15381   3.631   3.958   6.505 -0.1820 -0.6707 -0.4163
  124CHL1  H15B15382   3.796   3.927   6.446 -1.3178  0.5572 -2.1758
  124CHL1   C1615383   3.787   4.018   6.651 -0.3302  0.2001  0.1231
  124CHL1  H16A15384   3.705   3.984   6.718 -0.6484  2.4464  0.9574
  124CHL1  H16B15385   3.883   3.964   6.668 -0.3112 -1.0283 -3.1067
  124CHL1   C1715386   3.802   4.167   6.662  0.1112 -0.8851 -0.4156
  124CHL1   H1715387   3.903   4.201   6.633  0.3468 -0.0993  1.2033
  124CHL1   C1315388   3.702   4.229   6.558 -0.1455 -0.2950  0.2315
  124CHL1   C1815389   3.549   4.213   6.597  0.3415 -0.5598 -0.0375
  124CHL1  H18A15390   3.521   4.109   6.624 -1.7887 -0.2115 -0.7294
  124CHL1  H18B15391   3.528   4.285   6.679  1.6584 -1.0630  0.7805
  124CHL1  H18C15392   3.472   4.246   6.525 -1.3980 -0.7495  1.6485
  124CHL1   C1215393   3.734   4.368   6.520  0.4187 -0.6547  0.3290
  124CHL1  H12A15394   3.692   4.427   6.604  0.6310  1.6760 -1.0980
  124CHL1  H12B15395   3.841   4.397   6.510  0.7452 -1.7097  0.6950
  124CHL1   C1115396   3.654   4.415   6.391 -0.4307 -0.1460 -0.2785
  124CHL1  H11A15397   3.548   4.437   6.417  0.6861  1.8155  3.2484
  124CHL1  H11B15398   3.698   4.508   6.349 -0.5000 -0.2459 -0.5739
  124CHL1    C915399   3.657   4.313   6.269  0.3179  0.8597 -0.7217
  124CHL1    H915400   3.758   4.314   6.223  1.6995 -0.2481  2.0703
  124CHL1   C1015401   3.569   4.356   6.145  0.0153  0.4286 -0.2036
  124CHL1   C1915402   3.419   4.390   6.197 -0.6123 -0.5480  0.6271
  124CHL1  H19A15403   3.347   4.382   6.112 -0.2270  0.5881  0.1832
  124CHL1  H19B15404   3.395   4.310   6.271 -0.0972 -0.4141  0.9411
  124CHL1  H19C15405   3.432   4.486   6.251  0.1812 -1.2375  1.6989
  124CHL1    C115406   3.643   4.464   6.071 -0.3946  0.2681 -0.3552
  124CHL1   H1A15407   3.662   4.556   6.129  0.5967 -0.2494  0.1537
  124CHL1   H1B15408   3.747   4.430   6.054  0.0256  1.4230 -0.1180
  124CHL1    C215409   3.586   4.502   5.928 -0.4793  0.0568 -0.2487
  124CHL1   H2A15410   3.664   4.562   5.876 -0.3741  0.5501  0.4731
  124CHL1   H2B15411   3.501   4.571   5.947  0.6621  0.7223  2.8862
  124CHL1   C2015412   3.786   4.216   6.810  0.1474  1.2994 -0.2596
  124CHL1   H2015413   3.686   4.214   6.859  0.2170  1.4249 -0.1133
  124CHL1   C2115414   3.830   4.362   6.834  0.0846 -0.2155 -0.1714
  124CHL1  H21A15415   3.911   4.393   6.766 -0.9310  1.1778 -0.7942
  124CHL1  H21B15416   3.868   4.384   6.936 -0.9775 -0.6287  0.3346
  124CHL1  H21C15417   3.751   4.438   6.816  0.6683  0.2226 -0.8981
  124CHL1   C2215418   3.874   4.123   6.901 -0.1456  0.3520 -0.1699
  124CHL1  H22A15419   3.861   4.164   7.004 -3.5125  4.1027 -1.8157
  124CHL1  H22B15420   3.836   4.019   6.902 -2.6313  1.1706 -1.1689
  124CHL1   C2315421   4.025   4.123   6.880  1.0583  0.2867 -0.1822
  124CHL1  H23A15422   4.056   4.071   6.787  2.7403  0.9032 -0.0057
  124CHL1  H23B15423   4.055   4.228   6.863  0.1501  0.5794 -0.0169
  124CHL1   C2415424   4.100   4.066   6.996  0.9211  0.4406  0.3247
  124CHL1  H24A15425   4.098   4.120   7.092  1.0247 -0.7747  1.0351
  124CHL1  H24B15426   4.048   3.969   7.010 -2.6040  1.1831 -4.7943
  124CHL1   C2515427   4.251   4.031   6.970  0.4318 -0.3792  0.3397
  124CHL1   H2515428   4.264   3.950   6.894  2.0724  1.1804 -1.1364
  124CHL1   C2615429   4.328   4.156   6.917  0.3317 -0.1131 -0.4288
  124CHL1  H26A15430   4.422   4.120   6.870  0.4888 -0.7622  0.3482
  124CHL1  H26B15431   4.274   4.201   6.832 -0.5960  0.7963  0.6202
  124CHL1  H26C15432   4.335   4.231   6.999  1.8196  1.5004 -1.9418
  124CHL1   C2715433   4.315   3.990   7.099  0.9669  0.5481  0.0048
  124CHL1  H27A15434   4.259   3.903   7.140  1.5634 -0.4996 -1.3156
  124CHL1  H27B15435   4.420   3.961   7.079  0.7155 -0.1520 -0.3735
  124CHL1  H27C15436   4.314   4.070   7.175  0.3251  0.4890  0.0666
  125CHL1    C315437   4.033   4.392   5.921 -0.7670 -0.2772  0.5149
  125CHL1    H315438   3.943   4.339   5.957 -2.9900  2.8164 -0.0636
  125CHL1    O315439   4.035   4.389   5.777  0.0139 -0.5401 -0.0833
  125CHL1   H3'15440   4.115   4.439   5.757  1.1964 -2.9137 -1.8603
  125CHL1    C415441   4.029   4.537   5.964 -0.5965 -0.1079  0.0690
  125CHL1   H4A15442   4.100   4.598   5.904 -1.2707 -1.2663 -2.0306
  125CHL1   H4B15443   3.933   4.571   5.918 -0.0493  0.5987 -0.5840
  125CHL1    C515444   4.044   4.548   6.113 -0.8961 -0.8602 -0.5279
  125CHL1    C615445   3.950   4.616   6.186  0.1329  0.2350  0.2392
  125CHL1    H615446   3.861   4.658   6.138 -0.1334 -0.8063 -0.2097
  125CHL1    C715447   3.969   4.653   6.333  0.3559  0.5017  0.0199
  125CHL1   H7A15448   3.926   4.753   6.357  0.5139  0.5765 -0.0083
  125CHL1   H7B15449   3.912   4.576   6.389  0.6367 -0.7372 -1.3410
  125CHL1    C815450   4.114   4.636   6.382 -0.0011  0.3657  0.2628
  125CHL1    H815451   4.169   4.715   6.327 -1.5477  0.4838 -1.2089
  125CHL1   C1415452   4.118   4.643   6.528 -0.8632  0.0043  0.1851
  125CHL1   H1415453   4.054   4.559   6.565  0.2242 -0.7143  0.4809
  125CHL1   C1515454   4.049   4.764   6.595  0.3923  1.3942 -0.1449
  125CHL1  H15A15455   4.091   4.859   6.555  1.9866  0.1669 -1.5324
  125CHL1  H15B15456   3.938   4.767   6.598  0.2941 -0.0082  4.3689
  125CHL1   C1615457   4.103   4.759   6.739  0.4910  0.0204  0.6876
  125CHL1  H16A15458   4.144   4.855   6.776  1.6382  0.3248 -1.2748
  125CHL1  H16B15459   4.019   4.726   6.805 -1.3995 -2.1598 -2.4987
  125CHL1   C1715460   4.210   4.642   6.742 -0.7486  0.1356 -0.5282
  125CHL1   H1715461   4.159   4.551   6.779  1.3168 -0.2131  1.6674
  125CHL1   C1315462   4.254   4.620   6.592  0.2863 -0.1427 -0.4350
  125CHL1   C1815463   4.344   4.732   6.557 -0.1192 -0.0232 -0.6116
  125CHL1  H18A15464   4.346   4.743   6.446 -1.7897 -2.1987 -0.9270
  125CHL1  H18B15465   4.314   4.830   6.598 -2.6524 -1.3058  0.8335
  125CHL1  H18C15466   4.444   4.707   6.598 -0.7767 -2.7351 -0.4358
  125CHL1   C1215467   4.308   4.482   6.552 -0.4734 -0.2844  0.1869
  125CHL1  H12A15468   4.411   4.470   6.591 -1.0947 -0.2149  1.9568
  125CHL1  H12B15469   4.243   4.408   6.604  0.5519  0.8927  3.4231
  125CHL1   C1115470   4.308   4.455   6.402  0.6012 -0.0209 -0.1527
  125CHL1  H11A15471   4.402   4.499   6.365  1.2787 -0.2680  1.2267
  125CHL1  H11B15472   4.325   4.345   6.397  0.8598  0.0026  0.2004
  125CHL1    C915473   4.168   4.505   6.331  0.6125  0.2460 -0.4400
  125CHL1    H915474   4.096   4.426   6.361  1.1126 -0.2901 -0.6309
  125CHL1   C1015475   4.172   4.490   6.174  0.1016 -0.1944 -0.5482
  125CHL1   C1915476   4.300   4.575   6.122  0.0605  0.2459 -0.6896
  125CHL1  H19A15477   4.387   4.506   6.124 -0.3826 -0.3990  2.4614
  125CHL1  H19B15478   4.286   4.618   6.021 -1.8645  1.8746  0.2061
  125CHL1  H19C15479   4.312   4.660   6.193  0.4711  2.0891 -2.8607
  125CHL1    C115480   4.187   4.349   6.127  0.1454  0.2200  0.7550
  125CHL1   H1A15481   4.288   4.310   6.150 -0.2103  0.7852  3.5519
  125CHL1   H1B15482   4.118   4.273   6.169  0.8646 -1.4139 -0.8542
  125CHL1    C215483   4.165   4.326   5.965 -0.4385  0.2727 -0.2464
  125CHL1   H2A15484   4.148   4.218   5.947  2.6136 -0.2150 -0.6780
  125CHL1   H2B15485   4.257   4.372   5.923  1.6273 -1.7164  1.7871
  125CHL1   C2015486   4.328   4.659   6.843 -0.4010  0.1740  0.2764
  125CHL1   H2015487   4.391   4.744   6.809 -1.2636  0.6886 -0.0686
  125CHL1   C2115488   4.414   4.525   6.854  0.0991 -0.3598  0.9077
  125CHL1  H21A15489   4.498   4.539   6.783 -1.2097  3.5743 -0.0936
  125CHL1  H21B15490   4.353   4.434   6.832 -0.2529 -0.0738  0.6827
  125CHL1  H21C15491   4.458   4.526   6.956 -3.1295 -2.3239  2.5117
  125CHL1   C2215492   4.275   4.683   6.986 -0.9084  0.3233  0.1660
  125CHL1  H22A15493   4.360   4.699   7.056 -1.6308 -1.0731  1.4346
  125CHL1  H22B15494   4.220   4.777   7.006  1.8693  1.5297  3.0294
  125CHL1   C2315495   4.200   4.562   7.057 -0.6589  0.2350 -0.1749
  125CHL1  H23A15496   4.122   4.528   6.986 -1.2105  0.7122  0.1891
  125CHL1  H23B15497   4.267   4.481   7.093 -2.0961 -1.2315 -0.6711
  125CHL1   C2415498   4.132   4.606   7.192  0.3580 -0.0083  0.3352
  125CHL1  H24A15499   4.192   4.668   7.261  0.2037 -1.2706  1.6539
  125CHL1  H24B15500   4.041   4.662   7.161  0.8412 -0.6889 -2.5906
  125CHL1   C2515501   4.081   4.492   7.279 -0.0748 -0.9926  0.1730
  125CHL1   H2515502   4.172   4.441   7.317  1.4440  0.9087 -0.7070
  125CHL1   C2615503   3.999   4.548   7.396 -0.0641 -0.4737  0.2539
  125CHL1  H26A15504   3.984   4.464   7.467 -0.6974 -3.5437 -3.2063
  125CHL1  H26B15505   4.055   4.631   7.444  1.2699  0.8935 -3.2966
  125CHL1  H26C15506   3.899   4.588   7.365  1.6054  2.6072 -1.7136
  125CHL1   C2715507   4.004   4.391   7.190 -0.2513  0.1084 -0.0295
  125CHL1  H27A15508   4.068   4.366   7.103 -1.4492 -0.5611 -0.7410
  125CHL1  H27B15509   3.977   4.294   7.239 -0.6497  0.9176  1.4089
  125CHL1  H27C15510   3.906   4.424   7.150 -0.6748 -0.5460  0.4446
  126CHL1    C315511   2.875   4.306   6.325  0.7218  0.3248  0.0735
  126CHL1    H315512   2.768   4.308   6.294  1.3310  0.3987 -2.2248
  126CHL1    O315513   2.942   4.269   6.204  0.2093 -0.0490 -0.1852
  126CHL1   H3'15514   3.026   4.229   6.226 -0.2591 -2.6489 -2.4590
  126CHL1    C415515   2.920   4.452   6.359  0.1152 -0.2187 -0.3330
  126CHL1   H4A15516   3.030   4.471   6.354  0.0549  1.1027  1.9660
  126CHL1   H4B15517   2.879   4.513   6.276  1.1026 -0.2978 -0.8944
  126CHL1    C515518   2.881   4.496   6.491 -0.3357  0.1291  0.0745
  126CHL1    C615519   2.800   4.602   6.515 -0.2375  0.1128  0.6356
  126CHL1    H615520   2.777   4.663   6.426  0.9735 -1.2173 -0.6607
  126CHL1    C715521   2.766   4.665   6.645 -0.0575  0.1866 -0.3701
  126CHL1   H7A15522   2.787   4.774   6.641 -1.7670  0.7105  2.3588
  126CHL1   H7B15523   2.657   4.654   6.663 -0.4963  3.6587 -0.1855
  126CHL1    C815524   2.842   4.598   6.754 -0.6350  0.0532 -0.9965
  126CHL1    H815525   2.943   4.641   6.742 -0.3464 -1.1233 -3.5761
  126CHL1   C1415526   2.785   4.632   6.891 -0.0751 -0.5216  0.6903
  126CHL1   H1415527   2.685   4.584   6.890 -0.1260 -0.4229 -0.2783
  126CHL1   C1515528   2.762   4.782   6.916 -0.3591 -0.2724 -0.6734
  126CHL1  H15A15529   2.841   4.849   6.876 -0.2146 -0.2925 -0.4206
  126CHL1  H15B15530   2.673   4.830   6.871  0.6151  1.7608 -0.5344
  126CHL1   C1615531   2.757   4.799   7.070 -0.1674  0.4868  0.0787
  126CHL1  H16A15532   2.843   4.861   7.105 -1.5285  1.3144  2.2031
  126CHL1  H16B15533   2.657   4.837   7.100 -0.7042 -0.7224 -0.1032
  126CHL1   C1715534   2.775   4.653   7.123 -0.2360  0.3119  0.2406
  126CHL1   H1715535   2.677   4.600   7.126 -0.0231 -0.2537 -1.7742
  126CHL1   C1315536   2.859   4.576   7.010 -0.1282  0.4084  0.2121
  126CHL1   C1815537   3.008   4.619   7.018  0.0382  0.2893  0.1925
  126CHL1  H18A15538   3.058   4.571   7.105 -1.3128 -2.1793 -0.2783
  126CHL1  H18B15539   3.058   4.598   6.921 -0.5839 -1.4771  0.2135
  126CHL1  H18C15540   3.021   4.729   7.024 -2.7393  0.7394 -0.4905
  126CHL1   C1215541   2.855   4.423   7.003  0.1281  0.6518  0.7520
  126CHL1  H12A15542   2.902   4.376   7.092 -1.3695  0.4038  1.4356
  126CHL1  H12B15543   2.747   4.398   6.999  0.1575  0.4712  1.0875
  126CHL1   C1115544   2.913   4.369   6.864 -0.8448 -0.4751  0.6013
  126CHL1  H11A15545   3.024   4.368   6.866 -0.7813 -3.0691 -0.4120
  126CHL1  H11B15546   2.869   4.267   6.861 -2.6397  0.2429  0.9979
  126CHL1    C915547   2.855   4.443   6.740  0.0105 -0.0370 -0.0320
  126CHL1    H915548   2.746   4.424   6.739 -0.4651  2.1228  2.0135
  126CHL1   C1015549   2.919   4.405   6.607 -0.1394 -0.0355  0.4287
  126CHL1   C1915550   3.080   4.401   6.613  0.3046 -0.4214  0.1771
  126CHL1  H19A15551   3.126   4.501   6.629 -0.8025  0.4762 -1.8705
  126CHL1  H19B15552   3.118   4.327   6.687  1.5619  0.9626  0.9782
  126CHL1  H19C15553   3.120   4.374   6.513  2.5049  0.3136  0.7993
  126CHL1    C115554   2.880   4.255   6.568 -0.0760  0.0279  0.0870
  126CHL1   H1A15555   2.920   4.193   6.651 -1.0870  0.0493  0.6063
  126CHL1   H1B15556   2.770   4.241   6.572 -0.3644  2.2177  1.0174
  126CHL1    C215557   2.925   4.209   6.429 -0.0223 -0.0673  0.6650
  126CHL1   H2A15558   2.885   4.109   6.402 -1.4054  0.5141  0.4694
  126CHL1   H2B15559   3.035   4.197   6.422  0.0174  1.0215 -2.8507
  126CHL1   C2015560   2.834   4.654   7.263  0.0335 -0.2369 -0.5023
  126CHL1   H2015561   2.945   4.658   7.254  0.3671 -5.4337 -1.7198
  126CHL1   C2115562   2.816   4.519   7.332  0.3223  0.1817  0.1016
  126CHL1  H21A15563   2.815   4.427   7.270 -0.3474  0.0809  0.2566
  126CHL1  H21B15564   2.713   4.516   7.374  1.0363 -1.4314  1.9108
  126CHL1  H21C15565   2.892   4.511   7.412 -0.0238 -0.1195  0.4063
  126CHL1   C2215566   2.787   4.779   7.352  0.3849 -0.3460  0.3237
  126CHL1  H22A15567   2.800   4.880   7.308  0.2572 -1.0420 -1.3632
  126CHL1  H22B15568   2.685   4.757   7.389 -0.1592  1.0701 -0.3121
  126CHL1   C2315569   2.882   4.788   7.474 -0.1708  0.1979 -0.0851
  126CHL1  H23A15570   2.856   4.695   7.528 -0.2354 -0.9286 -1.9726
  126CHL1  H23B15571   2.989   4.797   7.448 -0.7628  1.5125 -2.2968
  126CHL1   C2415572   2.854   4.917   7.567  0.4242 -0.6270  0.8961
  126CHL1  H24A15573   2.824   4.995   7.494  1.3318  1.2412  2.4451
  126CHL1  H24B15574   2.759   4.911   7.626 -0.1599  1.1535  0.2119
  126CHL1   C2515575   2.973   4.976   7.647  0.7377 -0.0012  0.1597
  126CHL1   H2515576   3.053   4.996   7.574 -0.7622 -0.9320 -1.8461
  126CHL1   C2615577   2.919   5.096   7.716  0.3467 -0.7377  0.3211
  126CHL1  H26A15578   3.006   5.150   7.759 -0.7137 -0.3579  2.1246
  126CHL1  H26B15579   2.854   5.156   7.649  0.6507  0.4551  1.0637
  126CHL1  H26C15580   2.853   5.066   7.801 -0.8663 -0.1200 -0.3891
  126CHL1   C2715581   3.019   4.879   7.758 -0.2008  0.6050  0.2015
  126CHL1  H27A15582   2.936   4.869   7.831 -1.6498  0.5735 -1.3934
  126CHL1  H27B15583   3.061   4.782   7.723 -1.1829  0.4231 -0.5252
  126CHL1  H27C15584   3.102   4.929   7.812  2.7902 -1.1463 -2.3913
  127CHL1    C315585   2.989   5.991   5.952 -0.1890 -0.2019  0.9706
  127CHL1    H315586   2.888   6.032   5.931  1.1847  2.8723 -0.2895
  127CHL1    O315587   3.050   5.983   5.823 -0.2712 -0.1414 -0.5070
  127CHL1   H3'15588   2.983   5.938   5.772  0.0023  1.1910 -2.1367
  127CHL1    C415589   3.072   6.085   6.044  0.9084  0.4840 -0.2877
  127CHL1   H4A15590   3.178   6.055   6.040  1.6048  2.5173  1.2508
  127CHL1   H4B15591   3.070   6.185   5.995 -1.1187 -0.7595 -3.0443
  127CHL1    C515592   3.025   6.086   6.190  0.3874  0.2150 -0.1022
  127CHL1    C615593   2.993   6.197   6.246 -0.5067  0.5007  0.0123
  127CHL1    H615594   3.015   6.292   6.193 -0.5408 -0.1337 -1.1799
  127CHL1    C715595   2.941   6.205   6.388 -0.1903 -0.5721  0.9375
  127CHL1   H7A15596   3.000   6.282   6.442 -0.3638  0.6933 -0.5857
  127CHL1   H7B15597   2.834   6.232   6.376 -0.0378 -0.2395  0.2595
  127CHL1    C815598   2.948   6.073   6.471  0.0922 -0.7914 -0.8787
  127CHL1    H815599   3.054   6.070   6.505  0.0161 -1.3161 -0.6683
  127CHL1   C1415600   2.857   6.084   6.599 -0.2698  0.0533 -0.2909
  127CHL1   H1415601   2.754   6.119   6.575 -0.0632  1.2138  0.4233
  127CHL1   C1515602   2.905   6.192   6.696 -0.0595  0.9306 -0.1067
  127CHL1  H15A15603   3.015   6.197   6.716 -0.3213  1.1067  1.4122
  127CHL1  H15B15604   2.877   6.296   6.667  0.2243  1.3608  1.1182
  127CHL1   C1615605   2.836   6.148   6.829 -0.7461 -0.4595 -0.4673
  127CHL1  H16A15606   2.906   6.148   6.914 -1.3854 -0.5521  0.0691
  127CHL1  H16B15607   2.752   6.215   6.858 -0.8545 -0.4812 -0.7242
  127CHL1   C1715608   2.776   5.999   6.805 -0.3023  0.2759  0.3920
  127CHL1   H1715609   2.671   6.006   6.771  0.0127 -1.2740 -1.0632
  127CHL1   C1315610   2.853   5.946   6.684 -0.1141 -0.7243  0.2657
  127CHL1   C1815611   3.006   5.916   6.729 -0.2666  0.5351  0.8059
  127CHL1  H18A15612   3.063   5.997   6.779  0.2646  0.4808  0.2929
  127CHL1  H18B15613   3.003   5.825   6.792 -3.3812 -0.3649 -0.4503
  127CHL1  H18C15614   3.065   5.899   6.636  1.4632 -0.7123  2.0702
  127CHL1   C1215615   2.792   5.851   6.577 -0.0044  0.2290  0.0400
  127CHL1  H12A15616   2.783   5.751   6.626 -0.8941  1.2042  1.9942
  127CHL1  H12B15617   2.688   5.880   6.551  0.4860 -0.0857 -2.6175
  127CHL1   C1115618   2.871   5.829   6.446  0.6082  0.3766 -0.3455
  127CHL1  H11A15619   2.962   5.776   6.481 -0.3382  1.0837  3.6229
  127CHL1  H11B15620   2.805   5.767   6.382 -0.9202  2.4965 -0.9470
  127CHL1    C915621   2.909   5.958   6.378 -0.2084 -0.0868  0.0790
  127CHL1    H915622   2.814   6.001   6.339  0.8435 -0.3594 -3.0242
  127CHL1   C1015623   3.000   5.950   6.256 -0.5725  0.0487 -0.8033
  127CHL1   C1915624   3.133   5.879   6.294  0.2486  0.4447 -0.1254
  127CHL1  H19A15625   3.110   5.776   6.329 -0.9210  0.8084  0.2357
  127CHL1  H19B15626   3.198   5.860   6.206  1.3212 -1.7315  1.0459
  127CHL1  H19C15627   3.185   5.929   6.378 -0.5418 -0.1515  0.7387
  127CHL1    C115628   2.933   5.852   6.161  0.2997  0.5373  0.2138
  127CHL1   H1A15629   2.937   5.753   6.211  0.1505  0.3868 -0.0695
  127CHL1   H1B15630   2.827   5.880   6.143  0.4655  0.6168 -0.7130
  127CHL1    C215631   2.990   5.850   6.015  0.4232 -0.0827 -0.3955
  127CHL1   H2A15632   2.905   5.802   5.962 -0.9121 -0.0512  1.6035
  127CHL1   H2B15633   3.084   5.792   6.003  1.4495  1.1475  1.2615
  127CHL1   C2015634   2.782   5.914   6.937 -0.2130 -0.5547 -0.1973
  127CHL1   H2015635   2.887   5.915   6.972 -1.1476 -0.8486  2.9204
  127CHL1   C2115636   2.739   5.765   6.910 -0.6099 -0.0238 -0.1255
  127CHL1  H21A15637   2.656   5.745   6.840 -0.5135  0.0307 -0.2563
  127CHL1  H21B15638   2.711   5.729   7.011 -1.5072  0.6742 -0.1180
  127CHL1  H21C15639   2.826   5.711   6.867  0.6041  0.0008  2.1297
  127CHL1   C2215640   2.704   5.990   7.048 -0.1372  0.8830 -0.6321
  127CHL1  H22A15641   2.740   6.095   7.059  0.5780  0.6668 -0.8672
  127CHL1  H22B15642   2.596   5.999   7.024 -0.0674 -1.0129 -1.8544
  127CHL1   C2315643   2.720   5.926   7.189  0.3497 -0.0918  0.1540
  127CHL1  H23A15644   2.681   5.823   7.209  0.5330 -0.0687  0.6545
  127CHL1  H23B15645   2.826   5.914   7.218  0.9225  1.2759 -1.2815
  127CHL1   C2415646   2.659   6.017   7.298 -0.2049 -0.0517  0.0908
  127CHL1  H24A15647   2.728   6.093   7.340  0.2437 -1.5814  2.2860
  127CHL1  H24B15648   2.566   6.069   7.268 -0.7759 -1.0559  0.0879
  127CHL1   C2515649   2.598   5.938   7.423  0.0414  0.3742  0.0879
  127CHL1   H2515650   2.514   5.870   7.394 -0.6925  0.7535  1.2741
  127CHL1   C2615651   2.703   5.851   7.490  0.3286  0.1511  0.2717
  127CHL1  H26A15652   2.657   5.762   7.539 -3.2924  0.7330 -1.7349
  127CHL1  H26B15653   2.778   5.823   7.412  0.2026 -0.6960  0.4402
  127CHL1  H26C15654   2.754   5.917   7.563 -0.2573  1.4001 -0.4125
  127CHL1   C2715655   2.542   6.039   7.530  0.2768 -0.0612  0.3671
  127CHL1  H27A15656   2.615   6.110   7.574  1.2018 -1.5422  1.3112
  127CHL1  H27B15657   2.449   6.092   7.498  1.6907  2.9035  0.7933
  127CHL1  H27C15658   2.522   5.972   7.616  1.9169 -2.0523 -0.7220
  128CHL1    C315659   1.981   1.410   5.460  0.3054  0.0336  0.1035
  128CHL1    H315660   1.896   1.480   5.472 -0.1861 -0.7402  1.2942
  128CHL1    O315661   2.018   1.395   5.318  0.1089  0.3009 -0.4047
  128CHL1   H3'15662   1.941   1.367   5.268  1.5032 -1.6105 -1.6388
  128CHL1    C415663   2.098   1.469   5.539  0.4312 -0.5761  1.2848
  128CHL1   H4A15664   2.190   1.411   5.521  1.5748  0.7582  2.5192
  128CHL1   H4B15665   2.111   1.567   5.487  1.8268 -2.3117 -1.8844
  128CHL1    C515666   2.061   1.470   5.688 -0.1276 -0.3498 -0.1563
  128CHL1    C615667   2.074   1.588   5.752 -0.4338 -0.0471 -0.3648
  128CHL1    H615668   2.101   1.681   5.699 -0.4900  1.1235  1.5815
  128CHL1    C715669   2.061   1.596   5.902 -0.3727 -0.7377  0.2230
  128CHL1   H7A15670   2.146   1.656   5.941 -1.0585 -0.9355  2.1090
  128CHL1   H7B15671   1.964   1.648   5.914 -1.0136 -1.6339 -0.8146
  128CHL1    C815672   2.057   1.460   5.974 -0.8147 -0.0784  0.0110
  128CHL1    H815673   2.161   1.423   5.993 -0.9044  0.5370  1.8555
  128CHL1   C1415674   1.994   1.476   6.111 -0.1937  1.1966 -0.6750
  128CHL1   H1415675   1.889   1.513   6.108 -0.3535  0.9379  0.8302
  128CHL1   C1515676   2.061   1.577   6.202 -0.1213  0.3064  0.0562
  128CHL1  H15A15677   2.170   1.553   6.195 -0.3342 -0.1826 -2.3823
  128CHL1  H15B15678   2.053   1.686   6.187 -1.2165  0.1149 -0.8945
  128CHL1   C1615679   2.003   1.546   6.341  0.1596  0.4485 -0.0686
  128CHL1  H16A15680   2.079   1.535   6.421  0.1398  3.3463  0.4249
  128CHL1  H16B15681   1.923   1.618   6.365  0.9607  1.6941 -1.0315
  128CHL1   C1715682   1.936   1.400   6.334  0.2485  0.0071 -0.0342
  128CHL1   H1715683   1.825   1.408   6.324  0.2076 -0.1421  0.2636
  128CHL1   C1315684   1.980   1.348   6.194 -0.2915 -0.9524 -0.5288
  128CHL1   C1815685   2.116   1.275   6.203 -0.3921 -0.0843 -0.0913
  128CHL1  H18A15686   2.125   1.207   6.291  0.4736  1.1700  0.8320
  128CHL1  H18B15687   2.144   1.235   6.104  2.8190  0.6275  0.4145
  128CHL1  H18C15688   2.190   1.354   6.230 -1.4239  0.3275  1.7491
  128CHL1   C1215689   1.881   1.263   6.123  0.3171  0.0941 -0.4822
  128CHL1  H12A15690   1.871   1.171   6.184 -1.6370  1.1553  0.9018
  128CHL1  H12B15691   1.784   1.315   6.112  0.8557  1.4054  0.6773
  128CHL1   C1115692   1.924   1.236   5.977  0.1278  0.0637 -0.3916
  128CHL1  H11A15693   2.011   1.167   5.981 -0.4634 -0.6463  1.4268
  128CHL1  H11B15694   1.843   1.176   5.932 -0.4639 -0.1063  0.8659
  128CHL1    C915695   1.977   1.359   5.894  1.1053  0.0031  0.3517
  128CHL1    H915696   1.881   1.410   5.871  1.5843 -0.3806 -2.9403
  128CHL1   C1015697   2.027   1.340   5.753  0.2892  0.1320  0.3965
  128CHL1   C1915698   2.157   1.263   5.773  0.0544  1.4313 -0.0291
  128CHL1  H19A15699   2.239   1.291   5.842  0.9665  2.0535 -1.3291
  128CHL1  H19B15700   2.134   1.157   5.797  0.5700  0.9199 -1.6163
  128CHL1  H19C15701   2.199   1.238   5.673  1.4745  2.6901  0.2266
  128CHL1    C115702   1.915   1.270   5.668 -0.3607 -0.5158 -1.0808
  128CHL1   H1A15703   1.913   1.164   5.703  0.9296 -0.4746 -0.8058
  128CHL1   H1B15704   1.817   1.312   5.699  0.8469  1.5404  0.1733
  128CHL1    C215705   1.936   1.267   5.518 -0.2141  0.5146 -0.5775
  128CHL1   H2A15706   1.853   1.219   5.462  0.4539 -1.0347 -0.2933
  128CHL1   H2B15707   2.026   1.203   5.505  0.9661  1.9541  0.1434
  128CHL1   C2015708   1.959   1.323   6.463 -0.4243 -0.0258  0.4872
  128CHL1   H2015709   2.067   1.298   6.471 -0.2935 -0.2523 -1.5254
  128CHL1   C2115710   1.884   1.191   6.457  0.2156  0.4581  0.2124
  128CHL1  H21A15711   1.916   1.117   6.381 -2.9240 -1.3649  0.5092
  128CHL1  H21B15712   1.780   1.221   6.430  0.0451  0.4280  0.8118
  128CHL1  H21C15713   1.892   1.138   6.554  1.2010  0.5570  0.1870
  128CHL1   C2215714   1.909   1.397   6.593 -0.3260  0.4471  0.3424
  128CHL1  H22A15715   1.981   1.482   6.604 -2.2435  1.9265  2.1745
  128CHL1  H22B15716   1.817   1.445   6.554  1.5842  2.4612 -2.0717
  128CHL1   C2315717   1.899   1.318   6.725 -0.1050 -0.6634 -0.4862
  128CHL1  H23A15718   1.823   1.239   6.709  1.0477 -1.7713 -0.6775
  128CHL1  H23B15719   1.998   1.267   6.735  0.7513  1.2284  1.6276
  128CHL1   C2415720   1.859   1.401   6.849 -0.0374 -0.4764  0.3852
  128CHL1  H24A15721   1.758   1.446   6.835  0.8255  1.1926 -0.8234
  128CHL1  H24B15722   1.860   1.328   6.933 -1.0193 -1.2492 -0.2559
  128CHL1   C2515723   1.968   1.511   6.876  0.1660 -0.2527  0.2804
  128CHL1   H2515724   1.957   1.594   6.803  0.9929 -1.2757 -1.0514
  128CHL1   C2615725   1.935   1.577   7.006 -0.0962 -0.6245  0.4633
  128CHL1  H26A15726   1.828   1.602   7.023 -0.2443 -1.7504  1.3151
  128CHL1  H26B15727   1.965   1.504   7.084  0.1405 -0.6024  0.3931
  128CHL1  H26C15728   1.996   1.670   7.003  1.8500 -1.8817 -0.5893
  128CHL1   C2715729   2.114   1.466   6.862 -0.4272 -0.6490  0.2449
  128CHL1  H27A15730   2.142   1.412   6.955  0.6239  0.0496  0.3404
  128CHL1  H27B15731   2.127   1.414   6.764 -2.4672 -1.9067  0.5658
  128CHL1  H27C15732   2.176   1.558   6.860 -0.7217 -0.4528 -0.0582
  129CHL1    C315733   5.998   5.558   5.950  0.0907 -0.2406 -0.0567
  129CHL1    H315734   6.014   5.448   5.948  1.1565 -0.1103  0.4908
  129CHL1    O315735   6.018   5.618   5.822  0.5893 -0.3778 -0.1327
  129CHL1   H3'15736   5.986   5.707   5.835 -2.6224 -0.8763 -3.2181
  129CHL1    C415737   5.855   5.581   6.001  0.2085 -0.4419 -0.0465
  129CHL1   H4A15738   5.852   5.690   5.981 -0.0473 -0.4485 -0.0552
  129CHL1   H4B15739   5.772   5.540   5.940 -0.3203  0.0967  0.2950
  129CHL1    C515740   5.827   5.554   6.147 -0.2660 -0.6356  0.1483
  129CHL1    C615741   5.723   5.479   6.189 -0.3984 -0.4195  0.3383
  129CHL1    H615742   5.653   5.435   6.117 -0.7352 -0.9456  0.9740
  129CHL1    C715743   5.686   5.449   6.332 -1.5668 -0.3176  0.3254
  129CHL1   H7A15744   5.579   5.443   6.360 -1.3383  0.8206  1.5010
  129CHL1   H7B15745   5.728   5.348   6.356 -1.3676  0.0426  1.5721
  129CHL1    C815746   5.771   5.537   6.427 -0.1708 -0.4412 -0.8831
  129CHL1    H815747   5.715   5.633   6.423  0.1767 -0.2097 -0.3265
  129CHL1   C1415748   5.768   5.487   6.576 -0.1509 -0.3916  0.1814
  129CHL1   H1415749   5.828   5.394   6.580  0.4851  0.0431  1.1746
  129CHL1   C1515750   5.621   5.457   6.636  0.4309  0.3628 -0.1746
  129CHL1  H15A15751   5.550   5.539   6.613  0.7350  0.4633 -0.7617
  129CHL1  H15B15752   5.595   5.360   6.589 -1.0594  1.2297 -1.2343
  129CHL1   C1615753   5.652   5.462   6.783  0.1306  0.2629  0.4060
  129CHL1  H16A15754   5.592   5.545   6.827  1.7912  2.1912 -0.7456
  129CHL1  H16B15755   5.626   5.372   6.841 -0.8643  1.8342  2.5342
  129CHL1   C1715756   5.804   5.495   6.803  0.2324 -0.5904 -0.5380
  129CHL1   H1715757   5.863   5.401   6.796  0.8146 -0.1121 -3.0975
  129CHL1   C1315758   5.845   5.574   6.676 -0.1466  1.0146  0.3824
  129CHL1   C1815759   5.784   5.707   6.680  0.1021  0.5129 -0.0401
  129CHL1  H18A15760   5.828   5.776   6.755  0.6886  0.1562 -0.0414
  129CHL1  H18B15761   5.806   5.767   6.589  0.7130  0.8418  0.3155
  129CHL1  H18C15762   5.676   5.705   6.703  0.5020  0.3984  2.0536
  129CHL1   C1215763   5.996   5.575   6.629  0.9568  0.3659  0.5432
  129CHL1  H12A15764   6.059   5.645   6.688 -0.0785  0.8846  1.0687
  129CHL1  H12B15765   6.038   5.473   6.644  0.1262 -0.3877 -1.8015
  129CHL1   C1115766   6.007   5.624   6.479 -1.0985  0.1459  0.2800
  129CHL1  H11A15767   5.967   5.728   6.482 -2.7249 -0.4683  0.9361
  129CHL1  H11B15768   6.114   5.630   6.449 -1.2468 -0.0233 -0.3122
  129CHL1    C915769   5.922   5.549   6.382  0.2268  0.8480  0.8580
  129CHL1    H915770   5.968   5.448   6.379  1.6587  1.3864  2.7295
  129CHL1   C1015771   5.928   5.613   6.243  0.5857 -0.0951 -0.3639
  129CHL1   C1915772   5.903   5.770   6.243 -0.1518 -0.4389  0.1537
  129CHL1  H19A15773   5.893   5.817   6.143  0.2485 -1.3324 -0.3218
  129CHL1  H19B15774   5.808   5.780   6.301  1.4254 -1.2589  3.0719
  129CHL1  H19C15775   5.985   5.824   6.294 -0.4341 -0.7205  0.9325
  129CHL1    C115776   6.071   5.577   6.187  0.2853 -0.2230  0.2912
  129CHL1   H1A15777   6.141   5.634   6.252  1.5978 -0.9473 -0.4444
  129CHL1   H1B15778   6.087   5.469   6.210  0.1365 -0.1402  0.8040
  129CHL1    C215779   6.094   5.622   6.046  0.1995  0.3923 -0.1089
  129CHL1   H2A15780   6.200   5.610   6.013  0.4161  2.0611 -0.1342
  129CHL1   H2B15781   6.081   5.733   6.051 -0.1101  0.3371  0.3505
  129CHL1   C2015782   5.834   5.551   6.941 -0.0537  0.4308 -0.2058
  129CHL1   H2015783   5.768   5.639   6.958 -1.0009 -0.6181  1.9552
  129CHL1   C2115784   5.985   5.582   6.957  0.3437 -0.4943 -0.2592
  129CHL1  H21A15785   6.050   5.492   6.954 -0.5888 -1.2069  0.2209
  129CHL1  H21B15786   6.002   5.628   7.057 -0.2228 -0.7386 -0.0426
  129CHL1  H21C15787   6.019   5.660   6.886  1.5759 -0.9978 -0.2522
  129CHL1   C2215788   5.795   5.446   7.052  0.3447  0.3492 -1.0203
  129CHL1  H22A15789   5.686   5.425   7.054  0.9555 -3.8387 -2.1263
  129CHL1  H22B15790   5.836   5.344   7.034 -0.9966 -0.4987  0.4888
  129CHL1   C2315791   5.835   5.505   7.190  0.0106 -0.0116 -0.2692
  129CHL1  H23A15792   5.942   5.518   7.214  0.0898 -3.4385  1.9050
  129CHL1  H23B15793   5.792   5.606   7.206  1.6014  0.8530 -1.1996
  129CHL1   C2415794   5.786   5.401   7.292  0.0143  0.0329 -0.3663
  129CHL1  H24A15795   5.676   5.386   7.279 -0.2340 -3.0754  3.2552
  129CHL1  H24B15796   5.834   5.301   7.279  0.3835  0.1490  0.0646
  129CHL1   C2515797   5.794   5.446   7.437  0.0307  0.3717 -0.3588
  129CHL1   H2515798   5.782   5.556   7.444  4.5577  1.0781 -1.1354
  129CHL1   C2615799   5.688   5.382   7.522  0.8878  0.0503  0.7441
  129CHL1  H26A15800   5.584   5.401   7.488  0.5914  0.4829  1.8511
  129CHL1  H26B15801   5.699   5.272   7.520  1.3589 -0.0093 -3.5383
  129CHL1  H26C15802   5.694   5.433   7.620 -0.3169  0.5324  0.5847
  129CHL1   C2715803   5.935   5.418   7.497 -0.0166  0.1036  0.0681
  129CHL1  H27A15804   6.007   5.481   7.439  0.2747 -0.0676  0.2471
  129CHL1  H27B15805   5.946   5.442   7.604  0.5845  2.2101 -0.4158
  129CHL1  H27C15806   5.979   5.318   7.483  3.4233  1.4094  0.5483
  130CHL1    C315807   2.381   6.057   6.142  0.9447  0.0794 -0.5850
  130CHL1    H315808   2.359   5.949   6.126  0.0643  0.0898  0.4378
  130CHL1    O315809   2.425   6.099   6.019  0.5779 -0.2481  0.6540
  130CHL1   H3'15810   2.354   6.094   5.955  1.0232 -1.2799  0.2079
  130CHL1    C415811   2.254   6.137   6.184 -0.1998 -0.2621  0.2523
  130CHL1   H4A15812   2.276   6.244   6.166 -1.4646  0.0093  0.1688
  130CHL1   H4B15813   2.167   6.095   6.129 -0.7762  0.2323  0.7697
  130CHL1    C515814   2.221   6.111   6.330 -0.1825  0.1591  0.7474
  130CHL1    C615815   2.100   6.072   6.364 -0.6524  1.0580  0.0248
  130CHL1    H615816   2.016   6.061   6.294 -1.5575 -0.0534  1.2269
  130CHL1    C715817   2.056   6.061   6.506  0.5461 -0.0411  0.0838
  130CHL1   H7A15818   1.958   6.113   6.514  0.1528 -0.2802 -2.2806
  130CHL1   H7B15819   2.039   5.955   6.534  2.3491 -0.5417 -0.5854
  130CHL1    C815820   2.151   6.135   6.607 -0.7465  0.1447 -0.1775
  130CHL1    H815821   2.133   6.245   6.603  0.7142  0.4088  0.1030
  130CHL1   C1415822   2.111   6.098   6.756  0.6953  0.0072  0.2127
  130CHL1   H1415823   2.119   5.987   6.754 -2.8766 -0.4536  2.3589
  130CHL1   C1515824   1.961   6.115   6.803 -0.1752  0.4170 -0.1472
  130CHL1  H15A15825   1.921   6.214   6.769  1.4919  1.0124 -0.4869
  130CHL1  H15B15826   1.898   6.038   6.752  0.1045  0.1686 -0.1193
  130CHL1   C1615827   1.975   6.100   6.956 -0.2837  0.4269  0.3046
  130CHL1  H16A15828   1.933   6.190   7.006 -2.3854  0.3064 -1.1592
  130CHL1  H16B15829   1.921   6.014   7.003 -0.8955  0.3368 -0.5536
  130CHL1   C1715830   2.129   6.107   6.995  0.5193  0.1249 -0.4745
  130CHL1   H1715831   2.172   6.006   7.011  2.7175  0.9318 -0.9999
  130CHL1   C1315832   2.202   6.159   6.866 -0.2114  0.8796  0.9953
  130CHL1   C1815833   2.183   6.308   6.858 -0.0804 -0.1474  0.0847
  130CHL1  H18A15834   2.258   6.358   6.923 -0.8485 -0.8792  1.5870
  130CHL1  H18B15835   2.183   6.349   6.755 -0.2586 -1.4651 -0.4483
  130CHL1  H18C15836   2.091   6.356   6.898 -2.5195 -0.8190 -4.1958
  130CHL1   C1215837   2.352   6.123   6.838 -0.0402  0.1032  0.0613
  130CHL1  H12A15838   2.423   6.172   6.908  1.8178  0.9304 -2.2437
  130CHL1  H12B15839   2.374   6.015   6.853  1.3922  0.1516 -1.4296
  130CHL1   C1115840   2.388   6.153   6.699 -0.0641  0.2521  0.3250
  130CHL1  H11A15841   2.385   6.263   6.686  0.9034  0.3255  0.6383
  130CHL1  H11B15842   2.487   6.113   6.671 -0.9034 -0.0280 -2.6237
  130CHL1    C915843   2.293   6.101   6.581  0.2944 -0.9072 -0.1454
  130CHL1    H915844   2.301   5.990   6.584  0.1255 -0.9614 -1.4698
  130CHL1   C1015845   2.334   6.141   6.432  1.0106 -0.3874 -0.4793
  130CHL1   C1915846   2.367   6.294   6.438 -0.4037  0.2409  0.7879
  130CHL1  H19A15847   2.366   6.330   6.333 -2.0780 -2.4107 -0.2089
  130CHL1  H19B15848   2.292   6.351   6.497 -0.9509  3.4899 -2.6447
  130CHL1  H19C15849   2.465   6.317   6.485  0.3681  0.9784 -1.0588
  130CHL1    C115850   2.449   6.064   6.390 -0.8175 -0.3959  0.1395
  130CHL1   H1A15851   2.546   6.096   6.434  0.6296 -2.0069 -1.6809
  130CHL1   H1B15852   2.443   5.955   6.410  0.9760 -0.3234  1.3477
  130CHL1    C215853   2.492   6.084   6.237  0.0022  0.4829  0.4048
  130CHL1   H2A15854   2.580   6.022   6.211  1.0634  1.8020  0.7713
  130CHL1   H2B15855   2.537   6.185   6.227  1.4618 -0.1790  0.0064
  130CHL1   C2015856   2.148   6.179   7.128  0.5255  0.5332 -0.1488
  130CHL1   H2015857   2.115   6.285   7.125  1.5228  0.9376  1.6305
  130CHL1   C2115858   2.300   6.187   7.170 -0.0961 -0.1475 -0.2767
  130CHL1  H21A15859   2.306   6.223   7.275  3.7719 -0.0066 -0.3905
  130CHL1  H21B15860   2.348   6.269   7.112  3.1365 -1.1879  0.7149
  130CHL1  H21C15861   2.353   6.089   7.168 -0.6524 -0.5150  1.2980
  130CHL1   C2215862   2.062   6.123   7.245 -0.5084 -0.5595  0.1173
  130CHL1  H22A15863   2.082   6.201   7.321 -2.1454  1.6670 -1.5818
  130CHL1  H22B15864   1.952   6.127   7.226 -0.7110 -0.0768  1.3173
  130CHL1   C2315865   2.095   5.984   7.294 -0.2670  0.6923 -0.0972
  130CHL1  H23A15866   2.074   5.923   7.203  0.7279 -1.2654  0.9448
  130CHL1  H23B15867   2.203   5.986   7.318  0.3695  2.0785 -2.6557
  130CHL1   C2415868   2.005   5.916   7.402 -0.7824  0.5809  0.1657
  130CHL1  H24A15869   2.038   5.956   7.500 -0.3536 -0.0198  0.2795
  130CHL1  H24B15870   1.901   5.950   7.387 -1.2210 -0.0339  1.6456
  130CHL1   C2515871   2.019   5.757   7.398 -0.3896 -0.3761  0.5858
  130CHL1   H2515872   2.128   5.736   7.384 -0.4093  0.4956 -1.0142
  130CHL1   C2615873   1.983   5.700   7.540  0.4837 -0.2518 -0.6156
  130CHL1  H26A15874   2.049   5.740   7.619  0.6317  1.3721 -1.5066
  130CHL1  H26B15875   1.877   5.729   7.557 -0.0236 -1.8980 -0.8027
  130CHL1  H26C15876   1.978   5.590   7.526 -0.9634 -0.0543 -1.9394
  130CHL1   C2715877   1.932   5.698   7.285 -0.4915 -0.2974  0.8124
  130CHL1  H27A15878   1.988   5.713   7.190 -1.7143  2.5337  0.4450
  130CHL1  H27B15879   1.911   5.593   7.316 -0.3808 -0.4280  0.4516
  130CHL1  H27C15880   1.837   5.755   7.276 -0.2015  0.1798  0.6969
  131CHL1    C315881   1.129   4.131   5.814  0.0394  0.1345 -0.3113
  131CHL1    H315882   1.235   4.140   5.845 -0.8182  2.0795  2.4137
  131CHL1    O315883   1.109   4.114   5.678 -0.2283 -0.5673  0.1654
  131CHL1   H3'15884   1.151   4.031   5.655 -0.7171 -0.7917  0.0778
  131CHL1    C415885   1.053   4.016   5.889 -0.1622  0.2479  0.1458
  131CHL1   H4A15886   0.953   4.013   5.840  0.6746 -1.1342 -1.5926
  131CHL1   H4B15887   1.104   3.922   5.860  0.6352  0.1474  1.8047
  131CHL1    C515888   1.046   4.037   6.043 -0.3160 -0.5583  0.0173
  131CHL1    C615889   1.097   3.944   6.126  0.1285 -0.5299  0.0086
  131CHL1    H615890   1.143   3.860   6.073 -1.7039  0.5119 -3.5752
  131CHL1    C715891   1.098   3.961   6.271 -0.3289  0.0704  0.0525
  131CHL1   H7A15892   1.062   3.871   6.325 -2.4694  0.0221 -1.3147
  131CHL1   H7B15893   1.203   3.981   6.303  0.4957 -2.9531 -0.4977
  131CHL1    C815894   1.001   4.069   6.327  0.0504 -0.4385 -0.6681
  131CHL1    H815895   0.896   4.035   6.315 -0.1694  0.5313 -1.6368
  131CHL1   C1415896   1.031   4.100   6.474  0.4419 -0.5235  0.9027
  131CHL1   H1415897   1.134   4.142   6.486 -0.9560  2.9107  2.2356
  131CHL1   C1515898   1.026   3.982   6.575  0.4917  0.0533  0.3216
  131CHL1  H15A15899   0.923   3.942   6.569  0.4150  0.4352 -1.3164
  131CHL1  H15B15900   1.112   3.912   6.585  0.0343 -0.4687  0.6794
  131CHL1   C1615901   1.035   4.061   6.714  0.3113  0.4119 -0.4698
  131CHL1  H16A15902   0.964   4.008   6.780 -0.6483  1.9079 -0.2431
  131CHL1  H16B15903   1.132   4.043   6.765 -1.5514 -3.0901  2.1885
  131CHL1   C1715904   0.998   4.211   6.683 -0.4352  0.3438 -0.4333
  131CHL1   H1715905   1.094   4.264   6.666 -0.0073 -0.1331  0.4527
  131CHL1   C1315906   0.947   4.214   6.541  0.4675  0.2525  0.5230
  131CHL1   C1815907   0.802   4.167   6.551  0.2083 -1.0363 -0.3611
  131CHL1  H18A15908   0.749   4.142   6.457 -0.4550 -3.7810  0.6425
  131CHL1  H18B15909   0.786   4.074   6.610  0.3260 -0.8352 -0.0145
  131CHL1  H18C15910   0.750   4.257   6.588  2.5640 -0.1213  0.9388
  131CHL1   C1215911   0.959   4.333   6.446 -0.2589 -0.2177  0.0247
  131CHL1  H12A15912   0.908   4.424   6.485  1.3631  1.3985 -1.3814
  131CHL1  H12B15913   1.067   4.360   6.453 -0.5579  1.0997 -0.1672
  131CHL1   C1115914   0.927   4.305   6.304 -0.1623  1.3019 -0.4633
  131CHL1  H11A15915   0.826   4.258   6.300  1.0297 -1.3353 -1.3496
  131CHL1  H11B15916   0.920   4.396   6.240  0.1291  1.2741 -0.5339
  131CHL1    C915917   1.015   4.197   6.246  0.1476 -0.1259 -0.2172
  131CHL1    H915918   1.121   4.231   6.255 -0.5797  2.0478  0.9126
  131CHL1   C1015919   1.000   4.172   6.088 -0.1955 -0.0999 -0.4989
  131CHL1   C1915920   0.842   4.176   6.052 -0.9611  0.0750  0.0600
  131CHL1  H19A15921   0.811   4.282   6.069  0.3470  0.4543  0.2113
  131CHL1  H19B15922   0.821   4.151   5.946 -0.7643 -1.4143  0.3476
  131CHL1  H19C15923   0.787   4.113   6.125 -2.3696  1.1079 -0.0546
  131CHL1    C115924   1.070   4.280   6.005 -0.5226 -0.3051 -0.8991
  131CHL1   H1A15925   1.033   4.382   6.027  1.8524  0.8563 -1.8889
  131CHL1   H1B15926   1.177   4.289   6.033 -1.1514  2.9761  0.9141
  131CHL1    C215927   1.066   4.265   5.853  0.1614 -0.2065  0.3579
  131CHL1   H2A15928   1.126   4.348   5.811  1.2294 -1.1033  0.0690
  131CHL1   H2B15929   0.963   4.271   5.811 -0.0176  1.6231  0.9545
  131CHL1   C2015930   0.918   4.285   6.799 -1.0945  0.3025  0.1400
  131CHL1   H2015931   0.810   4.261   6.792 -0.7612 -1.5052  0.6222
  131CHL1   C2115932   0.956   4.436   6.784 -0.0435  0.3256  0.3435
  131CHL1  H21A15933   0.977   4.472   6.681  0.1816  2.9313  1.2376
  131CHL1  H21B15934   1.053   4.454   6.834 -0.6982  0.4615  1.6049
  131CHL1  H21C15935   0.881   4.506   6.827 -1.1510 -0.1749 -0.7111
  131CHL1   C2215936   0.954   4.236   6.945  0.1873 -0.0148  0.5472
  131CHL1  H22A15937   0.931   4.129   6.958 -1.2318  0.2139  0.0460
  131CHL1  H22B15938   1.060   4.267   6.955  0.5932 -1.0361 -0.4206
  131CHL1   C2315939   0.886   4.318   7.054 -0.5889 -0.4558 -0.2732
  131CHL1  H23A15940   0.941   4.415   7.061  0.4827 -1.1286  1.0206
  131CHL1  H23B15941   0.780   4.336   7.026 -0.9312 -1.7422  0.1509
  131CHL1   C2415942   0.889   4.256   7.198  0.1652  0.0611 -0.1928
  131CHL1  H24A15943   0.795   4.197   7.211 -0.1877  0.5370 -0.5586
  131CHL1  H24B15944   0.988   4.205   7.201  1.5175  2.5192 -0.4965
  131CHL1   C2515945   0.905   4.361   7.318  0.1629  1.1183 -0.2901
  131CHL1   H2515946   1.003   4.410   7.296 -0.1787  1.3426 -1.3798
  131CHL1   C2615947   0.791   4.460   7.317  0.4943 -0.1807 -0.1026
  131CHL1  H26A15948   0.792   4.505   7.216  0.6071 -0.6906 -0.3315
  131CHL1  H26B15949   0.691   4.420   7.348  0.7775  0.8227  2.3384
  131CHL1  H26C15950   0.812   4.543   7.388  1.7996  1.2159 -2.0382
  131CHL1   C2715951   0.903   4.280   7.449  0.7613 -0.1913  0.9055
  131CHL1  H27A15952   0.982   4.202   7.455 -0.4923 -1.6963 -1.0120
  131CHL1  H27B15953   0.892   4.346   7.538  0.4339 -0.7534  1.2817
  131CHL1  H27C15954   0.811   4.219   7.440  1.2864 -0.7848 -0.9844
  132CHL1    C315955   4.643   6.157   6.045 -0.4276  0.4752 -0.1012
  132CHL1    H315956   4.699   6.061   6.044  1.6859  1.6118  1.3891
  132CHL1    O315957   4.645   6.212   5.915 -0.5092 -0.0562  0.2584
  132CHL1   H3'15958   4.596   6.294   5.928 -1.5226 -0.4667 -0.8331
  132CHL1    C415959   4.497   6.141   6.098 -0.6981  0.0944 -0.5058
  132CHL1   H4A15960   4.443   6.237   6.092 -0.0700  0.5077  0.2000
  132CHL1   H4B15961   4.439   6.077   6.029 -1.0297  1.3536 -1.4216
  132CHL1    C515962   4.499   6.092   6.240  1.1507  0.5621  0.7044
  132CHL1    C615963   4.439   5.971   6.274  0.3438  0.0862 -0.5666
  132CHL1    H615964   4.383   5.910   6.202 -0.1291 -0.9767  0.6700
  132CHL1    C715965   4.418   5.927   6.421  0.0650  0.6242  0.7265
  132CHL1   H7A15966   4.313   5.895   6.439  0.4545 -1.4481 -0.4102
  132CHL1   H7B15967   4.474   5.836   6.451  0.2522  0.7506  0.7615
  132CHL1    C815968   4.457   6.049   6.515  0.2943  0.1542 -0.2034
  132CHL1    H815969   4.382   6.131   6.512 -1.7487 -1.6398 -1.5801
  132CHL1   C1415970   4.476   5.994   6.660 -0.2054  0.8001  0.2713
  132CHL1   H1415971   4.557   5.919   6.659 -0.1281  0.8896  0.0006
  132CHL1   C1515972   4.362   5.910   6.726 -0.0046 -0.4268 -0.5584
  132CHL1  H15A15973   4.271   5.970   6.708  0.1785 -0.3488 -1.2974
  132CHL1  H15B15974   4.351   5.816   6.668  0.0024 -1.1807  0.6336
  132CHL1   C1615975   4.398   5.904   6.870  0.0415 -0.3352 -0.2265
  132CHL1  H16A15976   4.305   5.926   6.925  0.1703 -1.1167  0.3307
  132CHL1  H16B15977   4.427   5.804   6.910  0.3122 -0.0941  0.1851
  132CHL1   C1715978   4.510   6.007   6.891 -0.4124  0.7637  0.0802
  132CHL1   H1715979   4.603   5.946   6.900 -1.0161 -0.0647  0.9487
  132CHL1   C1315980   4.518   6.094   6.763  0.5255 -0.0104  0.2018
  132CHL1   C1815981   4.412   6.206   6.778 -0.4331  0.4164  0.0395
  132CHL1  H18A15982   4.317   6.159   6.811 -1.5265 -0.4939 -3.9174
  132CHL1  H18B15983   4.453   6.282   6.847  1.7336  0.6455 -1.3893
  132CHL1  H18C15984   4.389   6.254   6.681  0.2933 -0.0461 -0.3746
  132CHL1   C1215985   4.650   6.150   6.723 -0.5477 -0.4681  0.3154
  132CHL1  H12A15986   4.666   6.232   6.797 -1.2766  0.8592 -0.9355
  132CHL1  H12B15987   4.737   6.080   6.722  1.1499  1.5344 -0.6959
  132CHL1   C1115988   4.644   6.218   6.584 -0.0274  1.2666 -0.1316
  132CHL1  H11A15989   4.576   6.304   6.603 -1.8466  0.2318 -1.6676
  132CHL1  H11B15990   4.746   6.251   6.556  0.0330  0.6356 -0.6675
  132CHL1    C915991   4.585   6.121   6.475  0.4468  0.6473 -0.5616
  132CHL1    H915992   4.665   6.046   6.455 -0.0740 -0.1090  0.1229
  132CHL1   C1015993   4.578   6.186   6.336  0.0868  0.1949 -0.3617
  132CHL1   C1915994   4.498   6.322   6.350 -0.4808  0.5091 -0.0781
  132CHL1  H19A15995   4.556   6.393   6.411 -1.3855  1.1424  0.0733
  132CHL1  H19B15996   4.486   6.356   6.245  1.4475  0.7490 -0.2392
  132CHL1  H19C15997   4.400   6.314   6.403 -1.6775 -0.0810 -2.2141
  132CHL1    C115998   4.724   6.206   6.279  0.2512  0.0246 -0.5111
  132CHL1   H1A15999   4.774   6.287   6.336 -2.5063  1.6943 -0.3058
  132CHL1   H1B16000   4.786   6.113   6.279  1.9402  1.0914 -1.3851
  132CHL1    C216001   4.724   6.255   6.132  0.2277  0.1061 -0.5635
  132CHL1   H2A16002   4.827   6.279   6.097 -0.2219  0.3339 -1.7716
  132CHL1   H2B16003   4.667   6.350   6.127  0.3506  0.4397  2.4170
  132CHL1   C2016004   4.493   6.080   7.030 -0.0335  0.5947 -0.3787
  132CHL1   H2016005   4.400   6.140   7.034  1.1166  2.4500  0.1648
  132CHL1   C2116006   4.611   6.165   7.059  0.1304  0.0555 -0.4619
  132CHL1  H21A16007   4.703   6.102   7.060  0.4127  0.4333  1.3485
  132CHL1  H21B16008   4.593   6.211   7.159 -0.0131  0.5533 -0.7186
  132CHL1  H21C16009   4.623   6.254   6.994  0.2452 -0.3143 -0.9552
  132CHL1   C2216010   4.471   5.977   7.151 -0.0037  0.0154  0.0491
  132CHL1  H22A16011   4.365   5.942   7.149  0.0147 -0.3138  2.1757
  132CHL1  H22B16012   4.548   5.898   7.137  1.5249  1.3702  0.4921
  132CHL1   C2316013   4.460   6.046   7.295  0.6042  0.5081  0.8464
  132CHL1  H23A16014   4.561   6.089   7.315  0.7982  0.5343 -0.1157
  132CHL1  H23B16015   4.377   6.119   7.284 -1.5038 -2.1331 -2.7068
  132CHL1   C2416016   4.416   5.949   7.407  0.1867 -0.9480  0.9589
  132CHL1  H24A16017   4.329   5.891   7.371 -0.0768  1.9940 -3.9244
  132CHL1  H24B16018   4.493   5.870   7.415  0.8707 -0.3392  0.5327
  132CHL1   C2516019   4.384   6.021   7.543  0.6289  0.3059 -0.1972
  132CHL1   H2516020   4.302   6.095   7.528 -0.0043 -0.8655 -3.0922
  132CHL1   C2616021   4.318   5.935   7.654  0.4934 -0.5407  0.3948
  132CHL1  H26A16022   4.211   5.911   7.638  0.5749 -1.2311  0.8444
  132CHL1  H26B16023   4.375   5.841   7.671  1.2466 -0.1487  0.1179
  132CHL1  H26C16024   4.311   5.989   7.750  0.7948 -3.0134  1.8932
  132CHL1   C2716025   4.501   6.090   7.613 -0.3170  0.0539  0.5403
  132CHL1  H27A16026   4.472   6.132   7.712  0.4393 -0.8715  1.1753
  132CHL1  H27B16027   4.583   6.016   7.627 -1.0730 -0.8143  0.4531
  132CHL1  H27C16028   4.540   6.168   7.544 -0.5059 -0.9726 -0.7409
  133CHL1    C316029   0.505   2.002   5.539 -0.0611  0.0829  0.3085
  133CHL1    H316030   0.509   2.104   5.585 -0.4430 -0.4271  1.5142
  133CHL1    O316031   0.488   2.003   5.398  0.0847 -0.3032  0.2054
  133CHL1   H3'16032   0.524   1.919   5.368  2.7227  0.4686  0.9123
  133CHL1    C416033   0.644   1.930   5.568  0.3178 -0.4057 -0.8702
  133CHL1   H4A16034   0.645   1.828   5.524 -0.5946 -1.6196  1.6910
  133CHL1   H4B16035   0.732   1.985   5.529  0.1129  1.5861  1.2542
  133CHL1    C516036   0.647   1.913   5.719  0.6498  0.5915 -0.1509
  133CHL1    C616037   0.761   1.955   5.776 -0.0514  0.4046 -1.1926
  133CHL1    H616038   0.847   1.991   5.716  0.7280 -0.1624 -0.4510
  133CHL1    C716039   0.793   1.956   5.926 -0.4821 -0.8009  0.3391
  133CHL1   H7A16040   0.889   1.907   5.950  0.9746  1.9559  0.5170
  133CHL1   H7B16041   0.803   2.066   5.944  1.5944 -0.1572 -3.7420
  133CHL1    C816042   0.693   1.872   6.012  0.5193 -0.1954  0.1104
  133CHL1    H816043   0.707   1.763   5.993  0.6006 -0.5364  1.9665
  133CHL1   C1416044   0.703   1.905   6.158 -0.2676 -1.1804 -0.2311
  133CHL1   H1416045   0.687   2.013   6.174  0.5199 -0.9151 -1.1394
  133CHL1   C1516046   0.837   1.881   6.229 -0.2169  0.3268 -0.2162
  133CHL1  H15A16047   0.881   1.785   6.196  0.2782  1.0023 -1.6084
  133CHL1  H15B16048   0.911   1.960   6.200  1.1702 -1.4070 -1.6276
  133CHL1   C1616049   0.801   1.874   6.379  0.2157  0.5079  0.2522
  133CHL1  H16A16050   0.843   1.787   6.434  0.1778  0.4942  0.2594
  133CHL1  H16B16051   0.862   1.958   6.419  2.4254 -1.1258  0.4806
  133CHL1   C1716052   0.645   1.874   6.385  0.4536  0.8111 -0.2714
  133CHL1   H1716053   0.607   1.976   6.408 -2.6134 -0.4215  0.4703
  133CHL1   C1316054   0.599   1.831   6.246  0.7349  0.3732 -0.4643
  133CHL1   C1816055   0.615   1.682   6.229 -0.3206  0.8553  0.1588
  133CHL1  H18A16056   0.591   1.644   6.127  2.0112  0.6277 -0.3459
  133CHL1  H18B16057   0.711   1.636   6.260 -0.8424 -0.6440 -0.3216
  133CHL1  H18C16058   0.539   1.624   6.286 -0.5337 -0.1007 -1.0564
  133CHL1   C1216059   0.459   1.880   6.201  0.4823 -0.2514  0.3538
  133CHL1  H12A16060   0.378   1.828   6.256 -1.4026  3.3027  1.2306
  133CHL1  H12B16061   0.474   1.990   6.207  1.9287 -0.3746 -0.4302
  133CHL1   C1116062   0.435   1.849   6.047  0.5115  0.1321 -0.3310
  133CHL1  H11A16063   0.421   1.740   6.029  3.0549 -0.3611  0.3250
  133CHL1  H11B16064   0.343   1.907   6.027  1.1244  1.8366  1.5777
  133CHL1    C916065   0.546   1.899   5.957  0.5498 -0.3405  0.8503
  133CHL1    H916066   0.548   2.010   5.963 -1.1825 -0.1908 -0.6011
  133CHL1   C1016067   0.527   1.873   5.801 -0.1431 -0.0027 -0.3186
  133CHL1   C1916068   0.519   1.714   5.778 -0.0104 -0.2470  0.4295
  133CHL1  H19A16069   0.509   1.691   5.669  0.1395  2.3476 -0.1830
  133CHL1  H19B16070   0.611   1.660   5.811 -0.1937  1.1779  3.6034
  133CHL1  H19C16071   0.440   1.662   5.836  0.8521 -3.2882 -0.8642
  133CHL1    C116072   0.394   1.924   5.752  0.2356 -0.4947 -0.0677
  133CHL1   H1A16073   0.322   1.848   5.788 -0.8446  0.7814  0.5676
  133CHL1   H1B16074   0.381   2.027   5.792  0.9092 -1.0546  1.7154
  133CHL1    C216075   0.386   1.928   5.604  0.0926  0.1048  1.0354
  133CHL1   H2A16076   0.297   1.979   5.560  0.9772  1.0918  0.3679
  133CHL1   H2B16077   0.395   1.826   5.560  0.9259  0.4790  0.3016
  133CHL1   C2016078   0.593   1.796   6.500 -0.1329 -0.5098 -0.2041
  133CHL1   H2016079   0.612   1.686   6.492  1.4283 -0.1609 -1.7757
  133CHL1   C2116080   0.434   1.801   6.501 -0.7683  0.4902 -0.1261
  133CHL1  H21A16081   0.397   1.724   6.429  1.1565 -0.9088  0.3052
  133CHL1  H21B16082   0.399   1.904   6.477  0.0497  0.2896 -2.4506
  133CHL1  H21C16083   0.390   1.777   6.600 -0.3577  0.9726  0.1758
  133CHL1   C2216084   0.659   1.844   6.640 -0.2088 -0.8495 -0.2316
  133CHL1  H22A16085   0.762   1.881   6.621 -0.3019 -0.3035  0.3038
  133CHL1  H22B16086   0.607   1.933   6.680  1.1454 -0.5673  0.9818
  133CHL1   C2316087   0.661   1.731   6.740 -0.6705  0.0053  0.7207
  133CHL1  H23A16088   0.559   1.687   6.746 -0.7996  0.2099  0.1019
  133CHL1  H23B16089   0.733   1.655   6.704 -1.5089  0.2463 -1.6274
  133CHL1   C2416090   0.691   1.772   6.880  0.3824  0.0122 -0.5991
  133CHL1  H24A16091   0.801   1.787   6.881  0.2191  1.5235 -1.8447
  133CHL1  H24B16092   0.638   1.866   6.903 -0.1258 -0.2242 -0.7914
  133CHL1   C2516093   0.638   1.664   6.981 -0.3041 -0.2213 -0.2478
  133CHL1   H2516094   0.541   1.621   6.949  0.4322 -1.1982 -1.2403
  133CHL1   C2616095   0.731   1.543   6.985 -0.2188  0.1155 -0.0186
  133CHL1  H26A16096   0.731   1.501   6.882  1.9267  0.1905 -0.0757
  133CHL1  H26B16097   0.831   1.568   7.024 -0.6033 -0.3813  1.3534
  133CHL1  H26C16098   0.689   1.465   7.052  1.5750  1.3975  2.7578
  133CHL1   C2716099   0.621   1.736   7.124 -0.1157  0.1390  0.4652
  133CHL1  H27A16100   0.565   1.831   7.109  0.7552  0.4425 -1.2000
  133CHL1  H27B16101   0.563   1.662   7.183 -0.8792  0.9903  0.8015
  133CHL1  H27C16102   0.719   1.766   7.166  1.6839 -1.8501 -2.0348
  134CHL1    C316103   6.511   3.079   6.126 -0.6625  0.8673 -0.0813
  134CHL1    H316104   6.618   3.051   6.120 -0.6047  0.6612  1.4888
  134CHL1    O316105   6.459   3.102   5.998  0.5887 -0.1005 -0.8696
  134CHL1   H3'16106   6.497   3.033   5.943 -1.1753 -3.4112  1.7312
  134CHL1    C416107   6.428   2.954   6.171 -0.0269 -0.3470 -0.2060
  134CHL1   H4A16108   6.318   2.970   6.171 -0.3391 -2.1575 -1.5040
  134CHL1   H4B16109   6.450   2.868   6.104 -2.6498 -1.5858  0.3999
  134CHL1    C516110   6.463   2.920   6.313 -0.0570 -0.1789 -0.6034
  134CHL1    C616111   6.496   2.795   6.350  0.4708  0.3905 -1.1554
  134CHL1    H616112   6.500   2.712   6.278 -1.5346 -0.6296 -0.1654
  134CHL1    C716113   6.531   2.750   6.493  0.4634 -0.9848 -0.2385
  134CHL1   H7A16114   6.474   2.660   6.524  0.6584 -0.6642  1.0939
  134CHL1   H7B16115   6.638   2.723   6.504  0.7750 -1.1239 -3.0024
  134CHL1    C816116   6.504   2.868   6.593 -0.1260 -1.4686  0.1285
  134CHL1    H816117   6.393   2.871   6.599 -0.3336 -0.5339 -2.6987
  134CHL1   C1416118   6.563   2.836   6.729  0.0820 -0.0527  0.2988
  134CHL1   H1416119   6.673   2.822   6.719  0.2339  0.8478  0.6396
  134CHL1   C1516120   6.521   2.701   6.788 -0.2280  0.2756 -0.3106
  134CHL1  H15A16121   6.411   2.684   6.785 -0.3938  1.4797 -2.6833
  134CHL1  H15B16122   6.566   2.618   6.729 -1.2860  0.4256 -1.3719
  134CHL1   C1616123   6.557   2.708   6.935 -0.3254  0.1534  0.2349
  134CHL1  H16A16124   6.462   2.695   6.992 -0.5044 -0.0818 -0.1133
  134CHL1  H16B16125   6.648   2.649   6.957 -0.0220 -0.1286 -1.6167
  134CHL1   C1716126   6.592   2.860   6.962  0.1983  0.9299 -0.0066
  134CHL1   H1716127   6.702   2.862   6.942  0.2275  1.9158  0.2245
  134CHL1   C1316128   6.537   2.938   6.837  0.2651  0.5822 -0.5288
  134CHL1   C1816129   6.386   2.969   6.869  0.0683 -0.5790  0.7602
  134CHL1  H18A16130   6.398   3.066   6.921  1.1535  1.9701 -3.6947
  134CHL1  H18B16131   6.334   2.995   6.774  1.4318 -0.1696  0.1015
  134CHL1  H18C16132   6.335   2.888   6.926  0.0543 -1.8989 -1.0369
  134CHL1   C1216133   6.603   3.070   6.793  0.2594  0.6690  0.4687
  134CHL1  H12A16134   6.591   3.151   6.868 -2.8203  0.4679  0.3191
  134CHL1  H12B16135   6.712   3.051   6.780  0.5708  3.3615 -1.7146
  134CHL1   C1116136   6.546   3.109   6.655 -0.0706  0.5793 -0.4013
  134CHL1  H11A16137   6.440   3.138   6.667 -0.1672  0.8194 -1.7324
  134CHL1  H11B16138   6.597   3.201   6.620 -1.7785  2.0592  0.8331
  134CHL1    C916139   6.554   3.003   6.538  0.3227 -0.3971 -0.0888
  134CHL1    H916140   6.662   3.006   6.515  0.6283 -0.5460  1.2574
  134CHL1   C1016141   6.470   3.044   6.410  0.3640 -0.1535  0.6329
  134CHL1   C1916142   6.323   3.083   6.439  0.1134  0.4913  0.7559
  134CHL1  H19A16143   6.320   3.180   6.493 -1.9145 -0.2233  2.0413
  134CHL1  H19B16144   6.263   3.092   6.345  0.7546  0.1427  0.3045
  134CHL1  H19C16145   6.256   3.014   6.494 -1.9701  0.1204 -2.0213
  134CHL1    C116146   6.546   3.171   6.352  0.0711  0.1684  0.1735
  134CHL1   H1A16147   6.559   3.253   6.426  1.8806 -0.3409  0.4690
  134CHL1   H1B16148   6.652   3.141   6.339 -0.3777 -0.8789 -1.2585
  134CHL1    C216149   6.491   3.201   6.214 -0.2616 -0.4414  0.0538
  134CHL1   H2A16150   6.547   3.281   6.161 -0.4570  1.6593  2.7765
  134CHL1   H2B16151   6.386   3.237   6.215 -0.1419 -0.0043 -1.4015
  134CHL1   C2016152   6.561   2.910   7.107  0.4026  0.5127  0.3555
  134CHL1   H2016153   6.450   2.916   7.115  0.2367  0.9660 -1.7194
  134CHL1   C2116154   6.623   3.052   7.128 -0.2518 -0.7883  0.1776
  134CHL1  H21A16155   6.723   3.056   7.080 -0.6139  1.2388 -0.5170
  134CHL1  H21B16156   6.634   3.081   7.235  0.1308  1.6364 -0.4450
  134CHL1  H21C16157   6.562   3.138   7.094  1.7686  0.8660  0.4850
  134CHL1   C2216158   6.608   2.809   7.214  0.6131 -0.5453 -0.0138
  134CHL1  H22A16159   6.574   2.710   7.177 -2.6065  0.3443  0.2569
  134CHL1  H22B16160   6.719   2.804   7.224  0.8016  0.8105 -1.1813
  134CHL1   C2316161   6.548   2.835   7.357  0.1562 -0.5177  0.4252
  134CHL1  H23A16162   6.622   2.903   7.404 -0.5261  0.4842  0.0786
  134CHL1  H23B16163   6.446   2.876   7.342 -0.0464 -0.2588  2.2973
  134CHL1   C2416164   6.551   2.705   7.442  1.2919 -0.6379  0.2748
  134CHL1  H24A16165   6.510   2.628   7.373  1.7008  0.0040 -0.6977
  134CHL1  H24B16166   6.653   2.667   7.465  0.5839 -1.6500  1.9320
  134CHL1   C2516167   6.476   2.714   7.572  0.6485 -0.3396 -0.4317
  134CHL1   H2516168   6.366   2.725   7.558  0.8256  0.2585 -1.5236
  134CHL1   C2616169   6.486   2.575   7.646 -0.5493 -0.6864 -0.0441
  134CHL1  H26A16170   6.468   2.492   7.575 -1.9063 -0.5279  0.0834
  134CHL1  H26B16171   6.593   2.560   7.673 -0.6158 -3.3576 -0.9429
  134CHL1  H26C16172   6.424   2.564   7.738 -0.5598 -1.2211 -0.1115
  134CHL1   C2716173   6.529   2.831   7.658  0.4167  0.7504  0.5878
  134CHL1  H27A16174   6.638   2.810   7.657  0.3710  0.4633 -0.7000
  134CHL1  H27B16175   6.513   2.928   7.608  1.3513  0.3768 -0.4771
  134CHL1  H27C16176   6.476   2.831   7.756 -2.1109  1.0349 -0.6956
  135CHL1    C316177   6.087   2.735   5.733 -0.6537 -0.1014 -0.3198
  135CHL1    H316178   6.169   2.662   5.746 -1.9409 -1.8358 -1.5081
  135CHL1    O316179   6.086   2.767   5.596 -0.4402  0.2323  0.2807
  135CHL1   H3'16180   6.094   2.690   5.539  2.1498  1.9341 -1.9106
  135CHL1    C416181   5.955   2.659   5.780  0.3916  0.2478  0.8102
  135CHL1   H4A16182   5.876   2.731   5.748  0.5489 -1.0743 -2.9274
  135CHL1   H4B16183   5.949   2.562   5.727 -0.2292 -0.0240  1.3583
  135CHL1    C516184   5.964   2.638   5.930  0.1228 -0.0175 -0.6823
  135CHL1    C616185   5.954   2.515   5.976  0.5656  0.3682 -0.0616
  135CHL1    H616186   5.928   2.431   5.911 -1.8537 -1.0953  2.5814
  135CHL1    C716187   5.954   2.479   6.122  0.3248  0.3874 -0.8401
  135CHL1   H7A16188   5.873   2.407   6.148  1.5995 -0.3546  1.2983
  135CHL1   H7B16189   6.042   2.414   6.140 -0.2957 -0.1160  0.4545
  135CHL1    C816190   5.944   2.600   6.215 -0.7056 -0.5840 -0.3719
  135CHL1    H816191   5.835   2.618   6.227 -0.8191 -1.6587  0.4042
  135CHL1   C1416192   5.998   2.566   6.358  0.3130 -0.1781  0.5825
  135CHL1   H1416193   6.105   2.544   6.337  0.6091  0.7149  1.1232
  135CHL1   C1516194   5.948   2.437   6.421 -0.0272  1.1119 -0.2299
  135CHL1  H15A16195   5.839   2.420   6.432 -0.0419  0.7424 -0.8760
  135CHL1  H15B16196   6.002   2.351   6.376  1.3801  1.6123  0.4528
  135CHL1   C1616197   6.005   2.457   6.568  0.0156 -0.0391  0.2911
  135CHL1  H16A16198   5.922   2.433   6.638 -0.3434 -0.2131 -0.1863
  135CHL1  H16B16199   6.089   2.386   6.578 -0.0790 -0.5439 -1.9975
  135CHL1   C1716200   6.051   2.604   6.588  0.3044  0.3368  0.6401
  135CHL1   H1716201   6.161   2.603   6.569  0.6054  1.7922  2.0509
  135CHL1   C1316202   5.995   2.677   6.457 -0.1236  0.4778 -0.0838
  135CHL1   C1816203   5.849   2.712   6.489  0.2093  0.2369  0.4933
  135CHL1  H18A16204   5.787   2.620   6.502 -1.0598  0.8462 -0.9437
  135CHL1  H18B16205   5.853   2.783   6.574  1.2657 -1.5624  2.0366
  135CHL1  H18C16206   5.805   2.767   6.404  0.8584 -2.6729 -1.8782
  135CHL1   C1216207   6.085   2.792   6.402  0.3073 -0.5152  0.2820
  135CHL1  H12A16208   6.089   2.874   6.477  1.7437  0.1060 -0.4292
  135CHL1  H12B16209   6.181   2.738   6.389  0.5786 -0.4125  1.7531
  135CHL1   C1116210   6.035   2.835   6.263  0.1385 -0.7816 -0.1548
  135CHL1  H11A16211   5.935   2.884   6.266 -0.0280 -1.1797  1.7286
  135CHL1  H11B16212   6.102   2.907   6.211 -1.2708 -1.6143 -3.3801
  135CHL1    C916213   6.024   2.713   6.159  0.4203 -0.3159 -0.7689
  135CHL1    H916214   6.129   2.676   6.152  0.6860 -0.4603  2.4785
  135CHL1   C1016215   5.997   2.758   6.014 -0.9166 -0.4571  0.2438
  135CHL1   C1916216   5.866   2.857   6.016  0.3985  0.7893 -0.7294
  135CHL1  H19A16217   5.877   2.949   6.077 -1.4258 -1.0441  2.6640
  135CHL1  H19B16218   5.851   2.880   5.909  1.7120  0.1550 -1.0637
  135CHL1  H19C16219   5.783   2.797   6.060  1.1677  1.2109  1.4380
  135CHL1    C116220   6.117   2.837   5.956  0.0689  0.1223  0.2791
  135CHL1   H1A16221   6.131   2.937   6.003  1.7466 -0.6052  1.4154
  135CHL1   H1B16222   6.214   2.785   5.975  1.3014  1.5734 -1.6459
  135CHL1    C216223   6.114   2.862   5.806  0.4040 -0.8390 -0.5728
  135CHL1   H2A16224   6.198   2.927   5.773  0.5290 -0.2968  0.7441
  135CHL1   H2B16225   6.027   2.929   5.790  0.2807 -1.3379 -2.1341
  135CHL1   C2016226   6.026   2.652   6.728 -0.0522 -0.5026 -0.3265
  135CHL1   H2016227   5.917   2.644   6.747 -0.1769 -0.1175 -0.8711
  135CHL1   C2116228   6.080   2.798   6.749  0.2656  0.0941  0.8186
  135CHL1  H21A16229   6.021   2.860   6.678 -1.3219 -2.3309 -0.1373
  135CHL1  H21B16230   6.187   2.801   6.719 -0.2993 -4.2349 -2.7180
  135CHL1  H21C16231   6.072   2.829   6.855 -2.8588  0.3331  0.6286
  135CHL1   C2216232   6.098   2.560   6.837  0.0836 -0.6024 -0.5198
  135CHL1  H22A16233   6.087   2.451   6.816  0.2765 -0.9949  1.2847
  135CHL1  H22B16234   6.208   2.577   6.833  0.5683 -3.4690 -2.1186
  135CHL1   C2316235   6.037   2.568   6.981  0.1000  0.2692 -0.8824
  135CHL1  H23A16236   6.052   2.674   7.011  1.6305 -0.5879  1.6398
  135CHL1  H23B16237   5.930   2.538   6.968 -0.0356  0.3657 -0.0804
  135CHL1   C2416238   6.101   2.478   7.089 -0.5975 -0.1953 -0.6855
  135CHL1  H24A16239   6.034   2.477   7.177 -0.1418 -1.9138 -0.3305
  135CHL1  H24B16240   6.112   2.371   7.062 -0.9736 -0.3693 -0.1707
  135CHL1   C2516241   6.242   2.522   7.149  0.5550  0.5833 -0.3252
  135CHL1   H2516242   6.327   2.511   7.079 -1.5731 -0.2574 -2.9735
  135CHL1   C2616243   6.243   2.666   7.199 -0.4586  0.5778  0.2792
  135CHL1  H26A16244   6.206   2.738   7.123 -0.1566  0.9398  0.4712
  135CHL1  H26B16245   6.181   2.691   7.288 -1.7658  1.4297 -0.8346
  135CHL1  H26C16246   6.347   2.687   7.232 -0.5194 -1.5744  2.1342
  135CHL1   C2716247   6.279   2.425   7.262  0.1253  0.7074  0.2726
  135CHL1  H27A16248   6.203   2.426   7.343  1.7602 -1.5274  1.9307
  135CHL1  H27B16249   6.293   2.322   7.223  1.8506  0.4494  1.4749
  135CHL1  H27C16250   6.379   2.454   7.301  1.1865 -0.5593 -1.3671
  136CHL1    C316251   5.556   0.562   5.830  0.3884  0.0581 -0.3546
  136CHL1    H316252   5.460   0.507   5.835  1.4419 -2.0603 -1.7075
  136CHL1    O316253   5.605   0.563   5.697 -0.1354 -0.2856 -0.1982
  136CHL1   H3'16254   5.658   0.642   5.687  0.4645 -0.7091 -0.4128
  136CHL1    C416255   5.521   0.702   5.873 -0.6922  0.2597  0.0548
  136CHL1   H4A16256   5.611   0.763   5.851 -1.2534  1.0430 -0.0914
  136CHL1   H4B16257   5.444   0.731   5.799  0.5260  1.1139 -0.9186
  136CHL1    C516258   5.482   0.712   6.019  0.0243  0.4669 -0.0828
  136CHL1    C616259   5.368   0.771   6.051 -0.1143 -0.0438 -0.5356
  136CHL1    H616260   5.296   0.803   5.975 -2.0162  2.7981  2.2309
  136CHL1    C716261   5.333   0.802   6.193 -0.0836  0.3048  0.2597
  136CHL1   H7A16262   5.310   0.910   6.206  0.6107  0.3030  1.7053
  136CHL1   H7B16263   5.244   0.745   6.225  0.1039  0.9591  2.0763
  136CHL1    C816264   5.445   0.773   6.297  0.5441  0.3122  0.1796
  136CHL1    H816265   5.508   0.865   6.290 -1.5162  1.8423  0.9739
  136CHL1   C1416266   5.390   0.765   6.439 -0.3744  0.4025  0.0593
  136CHL1   H1416267   5.337   0.668   6.435  2.9400 -1.5350 -2.0881
  136CHL1   C1516268   5.290   0.879   6.488 -0.4125  0.3137 -0.0151
  136CHL1  H15A16269   5.324   0.980   6.455 -0.0061  0.2873  0.3177
  136CHL1  H15B16270   5.184   0.856   6.461 -1.1364  1.1682  1.9078
  136CHL1   C1616271   5.300   0.869   6.643 -0.3907  0.9025 -0.3960
  136CHL1  H16A16272   5.332   0.968   6.681  0.1182  0.1870  1.1289
  136CHL1  H16B16273   5.205   0.848   6.698  0.4263  3.0204  2.0180
  136CHL1   C1716274   5.405   0.760   6.678 -0.1599  0.6697 -0.4954
  136CHL1   H1716275   5.355   0.661   6.680 -1.1141  1.0581  3.0927
  136CHL1   C1316276   5.496   0.743   6.546  0.1084  0.3359  0.1554
  136CHL1   C1816277   5.588   0.865   6.557  0.1035  0.2476  0.1290
  136CHL1  H18A16278   5.634   0.881   6.458 -0.4208 -5.1062 -1.2883
  136CHL1  H18B16279   5.547   0.961   6.593  0.1295  0.3531 -0.1221
  136CHL1  H18C16280   5.665   0.833   6.631 -0.5994  0.2226  0.8651
  136CHL1   C1216281   5.567   0.606   6.513 -0.3985 -0.4393  0.3297
  136CHL1  H12A16282   5.656   0.587   6.576  0.9840 -0.6794 -1.6112
  136CHL1  H12B16283   5.488   0.527   6.515 -0.3339 -0.5049  0.2910
  136CHL1   C1116284   5.630   0.604   6.369  0.1132 -0.3467  0.0210
  136CHL1  H11A16285   5.721   0.669   6.372  1.2556 -1.9329  1.3012
  136CHL1  H11B16286   5.673   0.503   6.350 -1.1193 -0.9625  0.4373
  136CHL1    C916287   5.527   0.648   6.258 -0.4402  0.2973 -0.1123
  136CHL1    H916288   5.461   0.559   6.268  0.7164 -0.8256 -1.8279
  136CHL1   C1016289   5.586   0.653   6.120  0.5762 -0.2001 -0.2001
  136CHL1   C1916290   5.714   0.745   6.114  0.2409  0.7589 -0.2303
  136CHL1  H19A16291   5.701   0.850   6.147 -0.1747  0.9560 -0.9904
  136CHL1  H19B16292   5.789   0.695   6.179 -0.2939 -0.2450 -0.3495
  136CHL1  H19C16293   5.757   0.733   6.012 -0.9132  0.5651 -0.7105
  136CHL1    C116294   5.626   0.513   6.072 -0.2840  0.6619 -0.5515
  136CHL1   H1A16295   5.712   0.468   6.127 -1.9722 -0.4602  1.2783
  136CHL1   H1B16296   5.544   0.440   6.085  1.0178 -0.5610  1.3297
  136CHL1    C216297   5.659   0.499   5.923  0.3349 -0.0690  0.8725
  136CHL1   H2A16298   5.662   0.391   5.900  1.2194 -0.3433  2.1595
  136CHL1   H2B16299   5.751   0.555   5.898 -1.0833  1.2839 -1.7045
  136CHL1   C2016300   5.457   0.780   6.823 -0.4460 -0.4562  0.6082
  136CHL1   H2016301   5.505   0.880   6.823  0.8320 -1.0406  0.2717
  136CHL1   C2116302   5.571   0.683   6.856 -0.3324  0.4293 -0.2316
  136CHL1  H21A16303   5.606   0.691   6.961 -0.9905 -1.9323  0.2188
  136CHL1  H21B16304   5.669   0.700   6.806 -0.0459 -0.0177  0.1661
  136CHL1  H21C16305   5.540   0.577   6.850  0.7856  0.0250  0.6996
  136CHL1   C2216306   5.339   0.779   6.927 -0.0912  0.8752  0.8312
  136CHL1  H22A16307   5.266   0.859   6.906 -2.7243 -1.6581 -0.3700
  136CHL1  H22B16308   5.278   0.688   6.908  1.2802  0.3032 -1.1736
  136CHL1   C2316309   5.378   0.789   7.078 -0.0554 -0.0120 -0.0737
  136CHL1  H23A16310   5.447   0.711   7.118  0.2656  1.5528  2.6652
  136CHL1  H23B16311   5.436   0.881   7.100  0.0689 -0.3290  1.0192
  136CHL1   C2416312   5.247   0.784   7.155  0.3118  0.1355 -0.0916
  136CHL1  H24A16313   5.194   0.882   7.156  1.2795  0.6825 -0.6871
  136CHL1  H24B16314   5.177   0.710   7.111  1.7082 -0.8507 -0.7296
  136CHL1   C2516315   5.268   0.759   7.303 -0.1037  0.9562 -0.4297
  136CHL1   H2516316   5.291   0.651   7.310 -0.2443  0.8984 -0.7916
  136CHL1   C2616317   5.388   0.842   7.359  0.6476 -0.3978 -0.0988
  136CHL1  H26A16318   5.483   0.789   7.336  0.1835 -0.9278 -0.8469
  136CHL1  H26B16319   5.377   0.944   7.318 -0.8284 -1.0268 -1.3799
  136CHL1  H26C16320   5.389   0.855   7.470 -0.6862  0.8673 -0.1971
  136CHL1   C2716321   5.151   0.796   7.384  0.5116  0.2713  0.0290
  136CHL1  H27A16322   5.060   0.752   7.337  0.5361  0.3533 -0.0959
  136CHL1  H27B16323   5.150   0.741   7.481 -0.6487 -2.4252 -1.4043
  136CHL1  H27C16324   5.150   0.906   7.395  0.6346  0.1331  1.7376
  137CHL1    C316325   1.009   1.550   5.595 -0.0897  0.5239 -0.4876
  137CHL1    H316326   1.109   1.598   5.600 -0.1454  0.7867 -1.6773
  137CHL1    O316327   0.973   1.567   5.461 -0.4230  0.4063  0.0161
  137CHL1   H3'16328   1.028   1.499   5.422  0.1712  0.2398  1.1006
  137CHL1    C416329   1.014   1.394   5.621  0.2038  0.4645  0.1891
  137CHL1   H4A16330   0.927   1.349   5.570 -0.2365  0.0765  1.2684
  137CHL1   H4B16331   1.102   1.363   5.561 -0.3587  0.5992 -0.7204
  137CHL1    C516332   1.022   1.352   5.772  0.2989  0.2660  0.3758
  137CHL1    C616333   1.119   1.263   5.802 -0.4435 -0.5219 -0.6174
  137CHL1    H616334   1.182   1.219   5.723  2.3747  1.3039  0.4230
  137CHL1    C716335   1.133   1.217   5.944 -0.8385  0.7716  0.1061
  137CHL1   H7A16336   1.131   1.106   5.934 -1.4210  0.6334  1.4842
  137CHL1   H7B16337   1.229   1.247   5.991 -0.7753 -1.3103  1.4063
  137CHL1    C816338   1.016   1.268   6.045 -0.0912  0.4610 -0.6726
  137CHL1    H816339   0.929   1.202   6.027 -0.0776 -0.0824  1.0694
  137CHL1   C1416340   1.066   1.259   6.187  0.1807  0.2935  0.3583
  137CHL1   H1416341   1.153   1.329   6.191  1.7124 -1.5332  0.4273
  137CHL1   C1516342   1.124   1.128   6.225  0.3974  0.2638 -0.0493
  137CHL1  H15A16343   1.048   1.049   6.203 -1.0940  0.8415  2.4977
  137CHL1  H15B16344   1.223   1.118   6.177  0.2982  0.3354 -0.2698
  137CHL1   C1616345   1.131   1.129   6.377  0.2924  0.1402 -0.4862
  137CHL1  H16A16346   1.077   1.043   6.423  0.3343  0.6775  0.5705
  137CHL1  H16B16347   1.233   1.129   6.421  0.3676  0.7426 -0.6572
  137CHL1   C1716348   1.053   1.260   6.413 -0.4667  0.2788 -0.3259
  137CHL1   H1716349   1.130   1.339   6.416  0.6637 -0.8201  2.3310
  137CHL1   C1316350   0.966   1.297   6.291 -0.1349 -1.2685 -1.0794
  137CHL1   C1816351   0.833   1.211   6.295 -0.0529  0.1422  0.1480
  137CHL1  H18A16352   0.873   1.109   6.311 -0.1937  0.3160  1.7126
  137CHL1  H18B16353   0.776   1.249   6.382 -1.9168  2.3578 -1.9163
  137CHL1  H18C16354   0.769   1.229   6.205 -2.0606  0.8485  1.6503
  137CHL1   C1216355   0.944   1.453   6.272 -0.3264  0.0136 -0.2784
  137CHL1  H12A16356   0.867   1.490   6.342 -1.0924 -2.5983  0.3936
  137CHL1  H12B16357   1.042   1.504   6.276 -0.5065  0.2937  1.3285
  137CHL1   C1116358   0.895   1.477   6.133 -0.4575  0.0515  0.1571
  137CHL1  H11A16359   0.791   1.440   6.126 -0.9229  1.6397 -2.6818
  137CHL1  H11B16360   0.886   1.586   6.112 -0.7235 -0.4843 -3.1388
  137CHL1    C916361   0.982   1.415   6.014  0.1720  0.6140 -0.3418
  137CHL1    H916362   1.083   1.462   6.010  0.4396 -0.0382 -1.9290
  137CHL1   C1016363   0.932   1.435   5.872 -0.0766  0.0872 -0.2473
  137CHL1   C1916364   0.788   1.386   5.867 -0.0695  0.7268  0.2487
  137CHL1  H19A16365   0.763   1.295   5.926 -0.0333  1.3566  1.2381
  137CHL1  H19B16366   0.716   1.466   5.894  0.6761  1.4857  0.0005
  137CHL1  H19C16367   0.760   1.346   5.766 -0.1058  1.2588  0.0431
  137CHL1    C116368   0.922   1.584   5.835 -0.0731  0.4335 -0.2212
  137CHL1   H1A16369   0.833   1.634   5.878 -0.6336 -0.0743 -0.7907
  137CHL1   H1B16370   1.011   1.633   5.880  0.7799 -0.3849 -0.9642
  137CHL1    C216371   0.910   1.615   5.687  0.5595 -0.0774  0.4985
  137CHL1   H2A16372   0.913   1.725   5.676  1.1674 -0.0050  1.2688
  137CHL1   H2B16373   0.807   1.579   5.664  1.1534 -2.3737  1.0993
  137CHL1   C2016374   1.004   1.252   6.559  0.2077  0.0372  1.2292
  137CHL1   H2016375   0.929   1.170   6.562  0.4448 -0.2321  0.2998
  137CHL1   C2116376   0.942   1.385   6.598  0.1260  0.9317  0.0754
  137CHL1  H21A16377   0.900   1.390   6.701 -0.0303 -0.5739  0.0949
  137CHL1  H21B16378   0.857   1.407   6.529  0.2222  1.2739  0.0644
  137CHL1  H21C16379   1.018   1.466   6.596  0.8207  0.2918  0.1233
  137CHL1   C2216380   1.118   1.218   6.657  0.4419  0.3917 -0.1995
  137CHL1  H22A16381   1.154   1.113   6.643  1.9429  0.7304  0.9228
  137CHL1  H22B16382   1.201   1.289   6.638  0.7607 -0.3412 -1.7274
  137CHL1   C2316383   1.076   1.222   6.809 -0.1621 -0.2584 -0.7017
  137CHL1  H23A16384   1.170   1.190   6.859  0.4734  0.1445 -1.6193
  137CHL1  H23B16385   1.054   1.329   6.834 -1.4265 -0.7626  0.4808
  137CHL1   C2416386   0.956   1.131   6.837  0.0604 -0.0066  0.3944
  137CHL1  H24A16387   0.864   1.174   6.791 -0.1835 -2.4434 -1.6698
  137CHL1  H24B16388   0.973   1.036   6.782 -1.4922  0.6205 -1.2652
  137CHL1   C2516389   0.926   1.090   6.981  0.4323 -0.0595 -0.4353
  137CHL1   H2516390   0.850   1.010   6.978  0.8374 -0.4733  0.0806
  137CHL1   C2616391   1.054   1.038   7.044  0.3754 -0.0276  0.8731
  137CHL1  H26A16392   1.025   0.963   7.120  1.0442  1.0695  2.2691
  137CHL1  H26B16393   1.109   0.981   6.967 -0.2505 -1.1894  1.2634
  137CHL1  H26C16394   1.109   1.126   7.085 -2.8975  2.1049  1.0471
  137CHL1   C2716395   0.863   1.213   7.051 -0.0060  0.4398  0.5994
  137CHL1  H27A16396   0.778   1.257   6.996  0.0985  1.4430  1.2204
  137CHL1  H27B16397   0.833   1.188   7.155 -1.5628 -0.4671 -0.0344
  137CHL1  H27C16398   0.943   1.288   7.068  0.3930  0.5097 -1.3134
  138CHL1    C316399   6.369   0.091   5.412  0.1678 -0.3288  0.9940
  138CHL1    H316400   6.359   0.201   5.393  1.1664 -0.2634  0.7832
  138CHL1    O316401   6.357   0.027   5.291  0.2245  0.0705  0.5418
  138CHL1   H3'16402   6.351  -0.063   5.324  1.5126  0.4300  1.8153
  138CHL1    C416403   6.500   0.055   5.476 -0.1441  0.3344  0.4841
  138CHL1   H4A16404   6.517  -0.054   5.471 -0.6446  0.2925 -0.6003
  138CHL1   H4B16405   6.578   0.106   5.417 -0.4643 -0.6275 -0.8080
  138CHL1    C516406   6.513   0.099   5.616  0.2391  0.6604 -1.0144
  138CHL1    C616407   6.613   0.168   5.659  0.3804  0.2208 -0.1602
  138CHL1    H616408   6.694   0.203   5.593  1.4635 -0.9496  0.4889
  138CHL1    C716409   6.631   0.210   5.800 -0.3657  0.2067 -0.7957
  138CHL1   H7A16410   6.738   0.200   5.829 -0.7901  0.5509  1.0192
  138CHL1   H7B16411   6.614   0.319   5.806  5.5529  1.4541 -0.9676
  138CHL1    C816412   6.548   0.137   5.909  0.3471  0.2273 -0.4149
  138CHL1    H816413   6.600   0.042   5.938 -0.9906 -0.1461  0.9090
  138CHL1   C1416414   6.534   0.219   6.041  0.3895 -0.0933 -0.2187
  138CHL1   H1416415   6.488   0.315   6.008  0.3766  0.0656  0.2586
  138CHL1   C1516416   6.661   0.259   6.115 -0.1182 -0.1993  0.1746
  138CHL1  H15A16417   6.734   0.176   6.107 -1.0468 -0.9055 -1.5163
  138CHL1  H15B16418   6.710   0.346   6.066  1.3451 -0.7945  0.5077
  138CHL1   C1616419   6.620   0.290   6.259 -0.1042 -0.0352 -0.4883
  138CHL1  H16A16420   6.683   0.236   6.333 -0.0668  1.1403  0.3468
  138CHL1  H16B16421   6.639   0.396   6.283  3.3941 -0.8659  1.0829
  138CHL1   C1716422   6.470   0.251   6.268  1.0820  0.3047  0.8303
  138CHL1   H1716423   6.423   0.348   6.241  0.6627 -0.5299 -1.6797
  138CHL1   C1316424   6.448   0.155   6.148  0.0166  0.0653 -0.4104
  138CHL1   C1816425   6.512   0.019   6.184 -0.0473  0.0379 -0.1043
  138CHL1  H18A16426   6.547  -0.044   6.100  0.5659  2.1927 -1.5301
  138CHL1  H18B16427   6.608   0.033   6.238  1.3262 -0.7431 -2.2419
  138CHL1  H18C16428   6.443  -0.047   6.241 -0.2037 -0.5162 -0.9166
  138CHL1   C1216429   6.307   0.148   6.086  0.4183 -0.0498  0.1481
  138CHL1  H12A16430   6.238   0.101   6.160  0.2168 -0.4698 -0.3035
  138CHL1  H12B16431   6.267   0.249   6.063 -0.1952 -0.5147 -0.9162
  138CHL1   C1116432   6.308   0.063   5.959 -0.5812  0.0564 -0.6828
  138CHL1  H11A16433   6.340  -0.040   5.983  1.7049  0.8543 -0.0307
  138CHL1  H11B16434   6.202   0.064   5.926 -0.3991  1.1662 -1.3091
  138CHL1    C916435   6.408   0.122   5.856  0.3040 -0.7869 -0.1354
  138CHL1    H916436   6.368   0.226   5.848  2.0164 -0.1255 -0.4856
  138CHL1   C1016437   6.399   0.057   5.712  0.0584 -0.0585  0.2130
  138CHL1   C1916438   6.400  -0.095   5.722  0.1151  0.1571 -0.2360
  138CHL1  H19A16439   6.319  -0.122   5.793  1.5578 -0.3576  1.2802
  138CHL1  H19B16440   6.370  -0.140   5.625  1.2484  0.0662 -0.5583
  138CHL1  H19C16441   6.503  -0.128   5.746  0.8118  1.1531 -1.7319
  138CHL1    C116442   6.269   0.098   5.643  0.8183 -0.5213 -0.0535
  138CHL1   H1A16443   6.183   0.065   5.705 -0.0968 -0.6588 -1.3563
  138CHL1   H1B16444   6.264   0.209   5.638 -0.4115 -0.5843 -0.4582
  138CHL1    C216445   6.250   0.055   5.497  0.6033  0.0308  0.4468
  138CHL1   H2A16446   6.153   0.096   5.463 -0.6624 -1.2360  2.3592
  138CHL1   H2B16447   6.235  -0.055   5.503  1.6001 -0.0457  2.7347
  138CHL1   C2016448   6.436   0.208   6.411 -0.3744 -0.0506  0.0582
  138CHL1   H2016449   6.509   0.126   6.428 -1.5177 -0.8262  1.4493
  138CHL1   C2116450   6.291   0.156   6.419  0.9862  0.4910  0.3811
  138CHL1  H21A16451   6.287   0.053   6.377  2.3190  0.9523 -0.9627
  138CHL1  H21B16452   6.211   0.210   6.363  0.7669 -1.6320 -1.5025
  138CHL1  H21C16453   6.266   0.137   6.526  1.6640  2.1007  0.8493
  138CHL1   C2216454   6.463   0.313   6.523  0.1265 -0.9707  0.0446
  138CHL1  H22A16455   6.557   0.366   6.496  0.2886 -0.7723  0.9642
  138CHL1  H22B16456   6.385   0.392   6.518  2.7130  1.6988 -0.6601
  138CHL1   C2316457   6.489   0.261   6.663 -0.6235  0.1774  0.2374
  138CHL1  H23A16458   6.433   0.166   6.670 -2.3113  1.1308  0.3202
  138CHL1  H23B16459   6.598   0.242   6.664 -0.1507  2.5622  0.8743
  138CHL1   C2416460   6.453   0.367   6.769 -0.3036  0.1757  0.6620
  138CHL1  H24A16461   6.528   0.449   6.772 -0.1129  0.0617 -0.3637
  138CHL1  H24B16462   6.357   0.414   6.741 -0.9631 -2.2810 -1.6596
  138CHL1   C2516463   6.435   0.304   6.908  0.2291 -0.4299  0.2985
  138CHL1   H2516464   6.514   0.233   6.941  1.4893  0.2428 -1.1190
  138CHL1   C2616465   6.446   0.411   7.019  0.4065  0.4379  0.1860
  138CHL1  H26A16466   6.442   0.372   7.123 -0.8640 -0.2478 -0.0981
  138CHL1  H26B16467   6.538   0.470   7.005  0.7022  0.4251  1.8826
  138CHL1  H26C16468   6.366   0.485   6.998  1.0530  1.4229  1.1272
  138CHL1   C2716469   6.297   0.239   6.925 -0.1871  0.2840 -0.0903
  138CHL1  H27A16470   6.285   0.228   7.035  1.6671  0.0428  0.1177
  138CHL1  H27B16471   6.224   0.313   6.885  0.8866  1.9117  0.8308
  138CHL1  H27C16472   6.290   0.141   6.874  2.8815 -0.6029  0.9974
  139CHL1    C316473   1.440   5.824   5.813  0.2402 -0.4763 -0.4039
  139CHL1    H316474   1.333   5.811   5.785  0.4707 -0.7896 -1.1533
  139CHL1    O316475   1.522   5.844   5.701 -0.0209 -0.0629  0.2159
  139CHL1   H3'16476   1.611   5.858   5.734  0.4326  1.0988 -1.3922
  139CHL1    C416477   1.462   5.944   5.911 -0.2064  0.4606 -0.2847
  139CHL1   H4A16478   1.570   5.959   5.931 -0.0118 -0.5224 -0.5456
  139CHL1   H4B16479   1.420   6.033   5.858  1.5992  1.4729 -0.0985
  139CHL1    C516480   1.386   5.930   6.037 -0.8914  0.3843  0.1443
  139CHL1    C616481   1.307   6.027   6.088 -0.3789  0.0397 -0.0178
  139CHL1    H616482   1.306   6.120   6.028  0.9141 -0.3212 -0.6571
  139CHL1    C716483   1.240   6.031   6.225 -0.2706  0.2180  0.2850
  139CHL1   H7A16484   1.275   6.114   6.290  2.2857 -1.3517  1.0439
  139CHL1   H7B16485   1.129   6.026   6.222 -0.2687 -1.1506  1.4327
  139CHL1    C816486   1.281   5.904   6.318 -0.0487  0.3409  0.0294
  139CHL1    H816487   1.376   5.930   6.371 -0.1452  0.8873 -0.0592
  139CHL1   C1416488   1.180   5.865   6.432  0.0508  0.3643 -0.1929
  139CHL1   H1416489   1.084   5.844   6.382 -0.2457 -1.0053  0.9109
  139CHL1   C1516490   1.152   5.972   6.537  0.0084  0.7250  0.5033
  139CHL1  H15A16491   1.243   6.027   6.567 -0.3694  0.8338  1.4836
  139CHL1  H15B16492   1.092   6.040   6.473  0.6311 -0.6486 -1.6815
  139CHL1   C1616493   1.084   5.897   6.648 -0.7985 -0.1636 -0.6996
  139CHL1  H16A16494   1.134   5.920   6.744  0.8521 -0.7106 -1.4087
  139CHL1  H16B16495   0.975   5.919   6.654 -0.6893  0.3484 -0.5509
  139CHL1   C1716496   1.106   5.754   6.620 -0.2598  1.0582  0.1291
  139CHL1   H1716497   1.016   5.712   6.571  0.6599  0.5873 -1.2179
  139CHL1   C1316498   1.225   5.742   6.515 -0.3315  0.3632 -0.8831
  139CHL1   C1816499   1.357   5.770   6.585  0.2668 -0.3217  0.0602
  139CHL1  H18A16500   1.391   5.676   6.635  0.8962  1.1863  2.7083
  139CHL1  H18B16501   1.448   5.800   6.528  1.8376 -1.7918  1.6451
  139CHL1  H18C16502   1.346   5.848   6.664 -0.6056 -2.2643  1.9715
  139CHL1   C1216503   1.221   5.621   6.419  0.5277 -0.5289  0.4283
  139CHL1  H12A16504   1.238   5.516   6.453  0.0893 -0.8141 -0.2097
  139CHL1  H12B16505   1.115   5.621   6.384  0.7913  0.5759 -0.4221
  139CHL1   C1116506   1.314   5.651   6.301 -1.0709  0.4177 -0.1105
  139CHL1  H11A16507   1.416   5.633   6.341 -2.0970 -0.9601  2.1040
  139CHL1  H11B16508   1.305   5.568   6.228  0.3568 -1.4634  1.7397
  139CHL1    C916509   1.302   5.789   6.223  0.7178  0.7452 -0.4534
  139CHL1    H916510   1.204   5.772   6.173  0.0969  0.9135  0.6673
  139CHL1   C1016511   1.413   5.803   6.112  0.1323 -1.1762  0.0460
  139CHL1   C1916512   1.559   5.820   6.185 -0.1933 -0.1949  0.5449
  139CHL1  H19A16513   1.537   5.846   6.291 -0.0351  1.3004  0.2275
  139CHL1  H19B16514   1.617   5.726   6.174  0.9301  0.5283  0.2117
  139CHL1  H19C16515   1.612   5.910   6.149 -3.3191  1.0422 -1.4831
  139CHL1    C116516   1.411   5.681   6.012  0.3161  0.3403  0.2091
  139CHL1   H1A16517   1.445   5.586   6.058  0.1962 -0.4351 -1.2546
  139CHL1   H1B16518   1.307   5.665   5.976 -0.2597  1.2568  1.3880
  139CHL1    C216519   1.490   5.697   5.883  0.9751 -0.0427 -0.0301
  139CHL1   H2A16520   1.482   5.602   5.824  2.2516 -0.6749  0.7740
  139CHL1   H2B16521   1.597   5.701   5.913  0.9559  1.7489 -0.0989
  139CHL1   C2016522   1.118   5.671   6.751 -0.3593  0.5251  0.1077
  139CHL1   H2016523   1.211   5.690   6.808 -0.0036  0.8511 -0.5716
  139CHL1   C2116524   1.099   5.514   6.724 -0.0733 -0.3515  0.7369
  139CHL1  H21A16525   1.007   5.492   6.666 -0.0804 -0.1169  0.6577
  139CHL1  H21B16526   1.104   5.450   6.815  1.3402 -2.6312 -0.8241
  139CHL1  H21C16527   1.181   5.486   6.653 -1.8129  0.9168 -1.9351
  139CHL1   C2216528   0.991   5.716   6.843  0.1842  0.3583 -0.1719
  139CHL1  H22A16529   1.005   5.814   6.893 -1.0245  0.0445  0.8277
  139CHL1  H22B16530   0.907   5.718   6.771 -0.0620  0.5715  0.1187
  139CHL1   C2316531   0.947   5.616   6.953 -0.6680  0.2554  0.2289
  139CHL1  H23A16532   0.913   5.517   6.915  2.5813 -1.3699  1.1777
  139CHL1  H23B16533   1.033   5.606   7.023 -0.7649  0.4094  0.3678
  139CHL1   C2416534   0.829   5.677   7.043 -0.4771 -0.1301 -0.4340
  139CHL1  H24A16535   0.871   5.763   7.099 -0.1247  0.5137 -1.6539
  139CHL1  H24B16536   0.746   5.723   6.986 -2.9157 -1.9842  1.3550
  139CHL1   C2516537   0.765   5.570   7.138  0.0046 -0.5503 -0.2555
  139CHL1   H2516538   0.841   5.539   7.212  0.3170  0.1530 -0.2761
  139CHL1   C2616539   0.651   5.633   7.230  0.6396  0.5339 -0.0944
  139CHL1  H26A16540   0.565   5.653   7.163  0.9887 -2.1124 -1.5146
  139CHL1  H26B16541   0.627   5.563   7.313  0.8309 -1.2248 -1.4533
  139CHL1  H26C16542   0.693   5.726   7.274 -1.2706  1.1606  0.4609
  139CHL1   C2716543   0.713   5.451   7.053  0.0268 -0.1882  0.0002
  139CHL1  H27A16544   0.787   5.396   6.991  0.7209  0.4591  0.2539
  139CHL1  H27B16545   0.658   5.384   7.123 -1.0900 -0.3367 -0.9779
  139CHL1  H27C16546   0.649   5.495   6.973 -0.6168  0.2518  0.7469
  140CHL1    C316547   0.200   0.310   5.724  0.1642  0.5857  0.2297
  140CHL1    H316548   0.091   0.329   5.729  0.1193  0.0085  2.1713
  140CHL1    O316549   0.230   0.294   5.587 -0.3691  0.2567 -0.2340
  140CHL1   H3'16550   0.148   0.320   5.545  0.2965  0.3357 -1.5025
  140CHL1    C416551   0.276   0.430   5.775 -0.0616  0.2141  0.0948
  140CHL1   H4A16552   0.385   0.417   5.762 -0.2906  0.1612 -2.2441
  140CHL1   H4B16553   0.254   0.518   5.710  1.7118 -2.1517 -4.1380
  140CHL1    C516554   0.237   0.443   5.922  0.0928 -0.8559  0.5490
  140CHL1    C616555   0.179   0.561   5.966  0.7015 -0.3138 -0.1262
  140CHL1    H616556   0.158   0.650   5.905 -3.6888 -1.6019 -0.8633
  140CHL1    C716557   0.161   0.592   6.112  0.0298 -0.2078 -0.6197
  140CHL1   H7A16558   0.209   0.690   6.132 -1.5074  0.4908 -0.2319
  140CHL1   H7B16559   0.053   0.606   6.132  0.1459 -0.9901  0.6501
  140CHL1    C816560   0.213   0.478   6.209 -0.1426 -0.3832  0.7265
  140CHL1    H816561   0.319   0.506   6.229 -0.2269 -0.7499  1.7362
  140CHL1   C1416562   0.131   0.481   6.338 -0.5329 -0.5242  1.3187
  140CHL1   H1416563   0.033   0.435   6.312  0.3360 -0.6896 -2.2324
  140CHL1   C1516564   0.106   0.617   6.399 -0.7361 -0.2350 -0.2273
  140CHL1  H15A16565   0.193   0.686   6.396 -1.5941  0.8899 -0.0192
  140CHL1  H15B16566   0.014   0.672   6.372 -2.0504 -1.5644  1.3582
  140CHL1   C1616567   0.081   0.580   6.548  0.0098 -0.0445  0.1630
  140CHL1  H16A16568   0.160   0.631   6.608 -1.0091  1.2410  0.4358
  140CHL1  H16B16569  -0.010   0.629   6.588 -1.4819 -1.3166 -1.4961
  140CHL1   C1716570   0.100   0.420   6.555 -0.8567 -0.1816 -0.2978
  140CHL1   H1716571  -0.002   0.389   6.524 -1.8219  1.8378  0.7165
  140CHL1   C1316572   0.197   0.389   6.439 -0.1295  0.2505 -0.1695
  140CHL1   C1816573   0.344   0.421   6.480  0.7821 -0.0947  0.4447
  140CHL1  H18A16574   0.346   0.531   6.496 -0.8115 -0.0253  0.3157
  140CHL1  H18B16575   0.373   0.378   6.578  0.6725 -1.5957 -0.1541
  140CHL1  H18C16576   0.416   0.394   6.400  0.5712  2.8341 -0.8904
  140CHL1   C1216577   0.184   0.242   6.389  0.0178  0.0009 -0.9548
  140CHL1  H12A16578   0.235   0.182   6.468  0.7242  1.8373  0.0568
  140CHL1  H12B16579   0.077   0.216   6.374 -0.1067 -1.3770  1.7612
  140CHL1   C1116580   0.252   0.228   6.253 -0.9039  0.1687  0.3510
  140CHL1  H11A16581   0.362   0.242   6.260 -0.8405  1.1754 -1.8931
  140CHL1  H11B16582   0.219   0.132   6.208 -0.6259  0.1292  0.2324
  140CHL1    C916583   0.202   0.337   6.157  0.1280  0.4939  0.4805
  140CHL1    H916584   0.093   0.326   6.139  0.0962  1.2458  0.2072
  140CHL1   C1016585   0.260   0.322   6.010  0.1493  0.4793 -0.1877
  140CHL1   C1916586   0.409   0.300   6.016 -0.0261  0.0664  0.2572
  140CHL1  H19A16587   0.456   0.291   5.916  1.4854 -0.2618  0.9608
  140CHL1  H19B16588   0.461   0.388   6.061 -1.8002  0.7892  0.9959
  140CHL1  H19C16589   0.431   0.203   6.066 -0.2889 -0.3022 -0.3452
  140CHL1    C116590   0.195   0.190   5.951 -0.1743  0.4222  0.8530
  140CHL1   H1A16591   0.225   0.103   6.013 -0.1514 -0.2607 -0.0930
  140CHL1   H1B16592   0.085   0.202   5.960 -0.1016  0.4334  1.7887
  140CHL1    C216593   0.223   0.175   5.801 -0.2215 -0.5441 -0.9433
  140CHL1   H2A16594   0.169   0.087   5.761 -1.2694 -1.4935  2.3094
  140CHL1   H2B16595   0.325   0.150   5.766 -0.6321 -0.8817 -1.9359
  140CHL1   C2016596   0.127   0.380   6.700  0.0314  0.1293 -0.2665
  140CHL1   H2016597   0.219   0.428   6.739 -0.5953  1.2737 -0.1572
  140CHL1   C2116598   0.127   0.220   6.712 -0.2068  0.0152 -0.0842
  140CHL1  H21A16599   0.224   0.182   6.672  0.0146 -0.0677  0.5282
  140CHL1  H21B16600   0.038   0.175   6.663  2.1220 -2.3810 -2.4642
  140CHL1  H21C16601   0.122   0.185   6.817  0.6426  1.2849  0.3954
  140CHL1   C2216602   0.017   0.436   6.800 -0.2570  0.4463  0.4570
  140CHL1  H22A16603  -0.074   0.472   6.746 -0.0906  1.3347  0.7529
  140CHL1  H22B16604  -0.023   0.349   6.855 -0.6102 -0.9912 -1.9359
  140CHL1   C2316605   0.072   0.543   6.894 -0.3573 -0.1426  0.7562
  140CHL1  H23A16606   0.142   0.493   6.964 -0.6285  1.9016  2.6096
  140CHL1  H23B16607   0.132   0.620   6.840 -0.0513  0.2007  1.5735
  140CHL1   C2416608  -0.040   0.619   6.967 -0.8831  1.1529 -0.4293
  140CHL1  H24A16609  -0.097   0.702   6.918 -0.0734  1.4357 -0.9250
  140CHL1  H24B16610  -0.115   0.546   7.002 -0.8532  1.1657 -0.3385
  140CHL1   C2516611   0.012   0.684   7.101 -0.5600 -0.2138 -0.6292
  140CHL1   H2516612   0.049   0.603   7.167  0.7100 -0.4145 -1.5506
  140CHL1   C2616613  -0.111   0.742   7.169  0.1830 -0.5614 -0.3083
  140CHL1  H26A16614  -0.098   0.778   7.274  0.0080 -2.6866  0.4783
  140CHL1  H26B16615  -0.146   0.820   7.097 -1.2909 -1.6121 -0.7660
  140CHL1  H26C16616  -0.184   0.660   7.181 -3.0287  1.9969 -0.9434
  140CHL1   C2716617   0.124   0.795   7.072 -0.2727 -0.6258 -0.1199
  140CHL1  H27A16618   0.209   0.748   7.019  1.0224  0.8037  0.6371
  140CHL1  H27B16619   0.077   0.876   7.012 -1.4777 -0.8558  0.4749
  140CHL1  H27C16620   0.163   0.831   7.169 -2.3177  1.2349  0.0941
  141DOPC     N16621   2.559   2.524  10.172  0.0171 -0.2953  0.4087
  141DOPC   C1216622   2.668   2.530  10.274 -0.2511 -0.2156 -0.1033
  141DOPC  H12A16623   2.675   2.438  10.328  3.5427  1.3064  2.3561
  141DOPC  H12B16624   2.639   2.595  10.355  0.8758 -2.0369  1.8329
  141DOPC   C1316625   2.424   2.526  10.238  0.2120  0.1760 -0.4039
  141DOPC  H13A16626   2.400   2.441  10.300  0.9332  0.7588  0.7041
  141DOPC  H13B16627   2.413   2.617  10.294  0.9823  0.9815 -1.5241
  141DOPC  H13C16628   2.342   2.527  10.168  0.8457  1.3318 -1.1571
  141DOPC   C1416629   2.577   2.391  10.107  0.6535 -0.0189  0.5711
  141DOPC  H14A16630   2.561   2.315  10.182 -1.3360  0.2681  0.5040
  141DOPC  H14B16631   2.498   2.380  10.033  1.6301 -0.1711 -0.4736
  141DOPC  H14C16632   2.666   2.376  10.047  0.6459 -1.8871  0.9889
  141DOPC   C1516633   2.573   2.636  10.074  0.5306  0.2040 -0.0925
  141DOPC  H15A16634   2.675   2.630  10.040  0.1227 -1.3709 -1.1849
  141DOPC  H15B16635   2.541   2.732  10.111 -0.3487 -0.2001  0.2356
  141DOPC  H15C16636   2.520   2.614   9.982  1.6252  0.9124 -0.9093
  141DOPC   C1116637   2.812   2.560  10.222  0.2774 -0.4910 -0.5028
  141DOPC  H11A16638   2.834   2.521  10.120 -0.3870  0.9478 -1.2179
  141DOPC  H11B16639   2.800   2.669  10.203  0.1932 -0.3095  0.5504
  141DOPC     P16640   2.986   2.399  10.327  0.4315  0.0090 -0.2374
  141DOPC   O1316641   2.961   2.355  10.467  0.6188 -0.0331  0.4255
  141DOPC   O1416642   3.130   2.411  10.294 -0.1011 -0.0773 -0.1696
  141DOPC   O1216643   2.912   2.538  10.314 -0.1986  0.1705 -0.2124
  141DOPC   O1116644   2.918   2.304  10.231  0.1795  0.2873 -0.0610
  141DOPC    C116645   2.983   2.193  10.171  0.5623  0.1781  0.1147
  141DOPC    HA16646   2.954   2.097  10.219 -1.4094 -0.3723 -1.9756
  141DOPC    HB16647   3.094   2.199  10.172  0.5449  0.5904  1.3087
  141DOPC    C216648   2.938   2.172  10.021 -1.0078 -0.0445  0.1689
  141DOPC    HS16649   3.019   2.110   9.976  1.1777  2.7859 -0.1077
  141DOPC   O2116650   2.937   2.295   9.948 -0.0126  0.1543 -0.5946
  141DOPC   C2116651   3.065   2.338   9.920 -0.0221  0.3908  0.4262
  141DOPC   O2216652   3.166   2.292   9.964 -0.0596  0.3487  1.0636
  141DOPC   C2216653   3.056   2.473   9.843  0.2943  0.4879 -0.6191
  141DOPC   H2R16654   3.163   2.500   9.828  0.6175 -1.5071 -2.5448
  141DOPC   H2S16655   3.009   2.548   9.910  0.5988  0.2839 -0.1708
  141DOPC    C316656   2.802   2.095  10.001 -0.4797 -0.7659 -0.3185
  141DOPC    HX16657   2.717   2.159  10.034 -0.6314 -1.1897  0.1115
  141DOPC    HY16658   2.797   2.007  10.068 -1.2120 -0.4470  0.0593
  141DOPC   O3116659   2.797   2.063   9.859 -0.1343  0.0885 -0.2637
  141DOPC   C3116660   2.717   2.144   9.790 -0.0908 -1.1201  0.3716
  141DOPC   O3216661   2.659   2.243   9.827  0.0563  0.1647  0.4117
  141DOPC   C3216662   2.711   2.088   9.645  0.8362  0.0349 -0.2387
  141DOPC   H2X16663   2.820   2.079   9.624  0.6996 -3.0085 -0.1919
  141DOPC   H2Y16664   2.671   1.984   9.650 -0.1494  0.2445 -2.4559
  141DOPC   C2316665   2.983   2.449   9.706  0.3743  0.4564 -0.5491
  141DOPC   H3R16666   2.873   2.450   9.723  0.5348 -1.3816  1.0512
  141DOPC   H3S16667   3.002   2.351   9.657  1.2213  0.0874  0.4806
  141DOPC   C2416668   3.007   2.565   9.614  0.1716 -0.0914 -0.1317
  141DOPC   H4R16669   3.114   2.593   9.612  0.1452  0.1173  0.8350
  141DOPC   H4S16670   2.952   2.653   9.651  1.8536  0.4432  1.2215
  141DOPC   C2516671   2.971   2.530   9.469  0.1565  0.1005  1.3681
  141DOPC   H5R16672   2.877   2.472   9.484 -0.0402 -0.1544 -0.5163
  141DOPC   H5S16673   3.049   2.461   9.431 -0.7946 -0.6833  0.7766
  141DOPC   C2616674   2.954   2.649   9.377  0.0911  0.2416 -0.5142
  141DOPC   H6R16675   3.049   2.705   9.378  0.4667 -0.1712  3.4939
  141DOPC   H6S16676   2.873   2.715   9.416 -1.0906 -1.4883  0.0607
  141DOPC   C2716677   2.927   2.617   9.229 -0.5593 -0.0865 -0.1920
  141DOPC   H7R16678   2.861   2.529   9.215 -1.6568  0.5415  0.8621
  141DOPC   H7S16679   3.028   2.591   9.190 -0.2480  1.1580 -0.2368
  141DOPC   C2816680   2.864   2.742   9.153 -0.7820 -0.3697  0.0662
  141DOPC   H8R16681   2.954   2.806   9.139 -1.4845  0.2565 -2.1490
  141DOPC   H8S16682   2.792   2.801   9.214  1.6470 -0.2255  3.0016
  141DOPC   C2916683   2.797   2.703   9.020  0.1710 -1.1246 -0.1328
  141DOPC   H9R16684   2.688   2.689   9.026  0.0207 -0.8207 -1.7040
  141DOPC  C21016685   2.855   2.675   8.908 -0.5009  0.3129  0.5796
  141DOPC  H10R16686   2.788   2.655   8.823 -1.8428  2.0542  1.1601
  141DOPC  C21116687   3.005   2.665   8.880 -0.4144 -0.1670 -0.2499
  141DOPC  H11R16688   3.027   2.559   8.857 -2.2042 -1.1262  2.1203
  141DOPC  H11S16689   3.071   2.704   8.961 -0.7536  0.5137 -0.2865
  141DOPC  C21216690   3.051   2.737   8.756 -0.8903 -0.2561  0.0671
  141DOPC  H12R16691   3.162   2.733   8.756 -0.7589  1.6838 -1.8750
  141DOPC  H12S16692   3.021   2.843   8.770 -3.2436 -1.0083  1.2591
  141DOPC  C21316693   2.999   2.681   8.620 -0.5654 -0.6971  0.0387
  141DOPC  H13R16694   2.890   2.703   8.612 -0.4091 -0.3470 -1.5287
  141DOPC  H13S16695   3.013   2.571   8.614 -0.3700 -0.6062 -1.4855
  141DOPC  C21416696   3.080   2.742   8.506 -0.1550 -0.1509  0.0275
  141DOPC  H14R16697   3.189   2.724   8.519  0.2468  2.9403  1.6194
  141DOPC  H14S16698   3.060   2.851   8.511  1.7323  0.3013 -1.1564
  141DOPC  C21516699   3.054   2.697   8.357 -0.4560  0.1204  0.1772
  141DOPC  H15R16700   2.957   2.738   8.322 -0.6414  1.6777  2.2881
  141DOPC  H15S16701   3.045   2.586   8.353  2.9400 -0.2260 -0.7583
  141DOPC  C21616702   3.167   2.735   8.254  0.1162 -0.4399 -0.4089
  141DOPC  H16R16703   3.265   2.699   8.290  0.6041  0.7273 -0.5141
  141DOPC  H16S16704   3.174   2.846   8.253  0.0128 -0.4078 -2.4777
  141DOPC  C21716705   3.150   2.685   8.108  0.4729 -0.5015 -0.2296
  141DOPC  H17R16706   3.130   2.575   8.111  0.0592 -0.3994  1.5588
  141DOPC  H17S16707   3.241   2.709   8.049 -0.7373  1.0146 -1.5672
  141DOPC  C21816708   3.025   2.749   8.035 -0.2236  0.4118 -0.7227
  141DOPC  H18R16709   2.934   2.727   8.095 -0.3198  2.4881 -0.0419
  141DOPC  H18S16710   3.010   2.698   7.938  0.1311 -2.7686  0.7706
  141DOPC  H18T16711   3.030   2.860   8.032  1.6231  0.3394 -1.8715
  141DOPC   C3316712   2.628   2.182   9.552 -0.2595  0.0812  0.3293
  141DOPC   H3X16713   2.639   2.287   9.586 -0.1350  0.7148 -1.5472
  141DOPC   H3Y16714   2.520   2.157   9.548 -0.3443  0.5438 -1.6434
  141DOPC   C3416715   2.673   2.184   9.411  0.4570 -0.0338 -0.2141
  141DOPC   H4X16716   2.660   2.081   9.372 -0.2469 -0.1235  0.2546
  141DOPC   H4Y16717   2.779   2.214   9.393  0.4103  0.2519 -0.0285
  141DOPC   C3516718   2.583   2.276   9.325  0.8267 -0.1333 -0.3220
  141DOPC   H5X16719   2.588   2.382   9.358  0.0203  0.4756 -2.0184
  141DOPC   H5Y16720   2.479   2.241   9.346  1.2416 -1.3540 -0.2183
  141DOPC   C3616721   2.613   2.263   9.176  0.1135 -0.1286 -0.0877
  141DOPC   H6X16722   2.722   2.272   9.153  0.0471 -1.3429 -0.9665
  141DOPC   H6Y16723   2.571   2.173   9.128  0.6732 -2.1237  2.8803
  141DOPC   C3716724   2.547   2.390   9.108 -0.8199  0.0108  0.7947
  141DOPC   H7X16725   2.460   2.415   9.173 -1.5215 -0.4305  0.0484
  141DOPC   H7Y16726   2.618   2.476   9.103  1.3898 -1.7568 -0.0015
  141DOPC   C3816727   2.492   2.365   8.967 -0.7166  0.0881 -0.7589
  141DOPC   H8X16728   2.458   2.464   8.929  3.0045  1.0677 -1.9883
  141DOPC   H8Y16729   2.412   2.290   8.982  0.7736 -1.4807 -0.3349
  141DOPC   C3916730   2.589   2.295   8.872  0.1425 -0.0266 -0.1932
  141DOPC   H9X16731   2.650   2.217   8.920 -1.8745 -0.2523  2.2038
  141DOPC  C31016732   2.602   2.324   8.745  1.0513  0.3411  0.4693
  141DOPC  H10X16733   2.680   2.276   8.684 -0.1444  1.8230 -2.3924
  141DOPC  C31116734   2.519   2.419   8.665  0.3552 -0.4173 -0.3965
  141DOPC  H11X16735   2.537   2.524   8.696 -2.5850  0.4914 -1.4135
  141DOPC  H11Y16736   2.415   2.389   8.690  0.9959 -0.1231  3.2366
  141DOPC  C31216737   2.538   2.403   8.513 -0.4852  0.3001 -0.2692
  141DOPC  H12X16738   2.483   2.316   8.470  1.0740 -0.7349 -0.2621
  141DOPC  H12Y16739   2.641   2.366   8.496 -0.5228 -1.1870  2.1564
  141DOPC  C31316740   2.501   2.530   8.436 -0.0459  0.1493 -0.0305
  141DOPC  H13X16741   2.420   2.582   8.492 -0.7862  0.4287 -1.3005
  141DOPC  H13Y16742   2.577   2.611   8.441 -2.0095  2.2738 -1.8968
  141DOPC  C31416743   2.468   2.519   8.282 -0.0663 -0.3374 -1.0046
  141DOPC  H14X16744   2.384   2.447   8.280  0.9567 -1.8560  2.3024
  141DOPC  H14Y16745   2.425   2.612   8.239 -0.7028  1.0598  2.3077
  141DOPC  C31516746   2.583   2.471   8.195  0.1488 -0.1659 -0.8102
  141DOPC  H15X16747   2.637   2.401   8.263 -0.3381  1.3472  1.2186
  141DOPC  H15Y16748   2.649   2.558   8.176 -0.7849  1.0025  1.1246
  141DOPC  C31616749   2.535   2.397   8.073  0.2029 -0.0858  0.3256
  141DOPC  H16X16750   2.627   2.367   8.019  0.9232  0.0737  1.4191
  141DOPC  H16Y16751   2.467   2.313   8.100 -0.6969 -0.9377 -3.8492
  141DOPC  C31716752   2.457   2.488   7.972 -0.4803  0.2010 -0.5711
  141DOPC  H17X16753   2.361   2.509   8.023  0.1472  0.1543  0.6846
  141DOPC  H17Y16754   2.508   2.587   7.967 -0.8026  0.3846 -0.2441
  141DOPC  C31816755   2.436   2.436   7.826 -0.0945 -0.1176  0.5611
  141DOPC  H18X16756   2.376   2.342   7.819 -1.4730  0.8266 -0.9276
  141DOPC  H18Y16757   2.377   2.512   7.771 -2.1251 -1.5465  0.6499
  141DOPC  H18Z16758   2.531   2.422   7.770 -0.7954  0.6149 -0.8611
  142DOPC     N16759   3.185   2.780  10.253 -0.1140  0.6649 -0.3400
  142DOPC   C1216760   3.154   2.704  10.126 -0.2654 -0.6291 -0.4058
  142DOPC  H12A16761   3.073   2.749  10.072  0.2724  0.0179 -0.6870
  142DOPC  H12B16762   3.115   2.608  10.157  0.3602 -0.1755  1.9764
  142DOPC   C1316763   3.061   2.776  10.344 -0.0644  0.4678  0.3999
  142DOPC  H13A16764   2.972   2.810  10.293  0.7365 -1.3674 -2.4395
  142DOPC  H13B16765   3.051   2.676  10.384 -2.0117 -0.0480 -1.1955
  142DOPC  H13C16766   3.076   2.851  10.421 -0.9756  1.0911 -0.0031
  142DOPC   C1416767   3.205   2.923  10.220  0.2036  0.3027 -0.1186
  142DOPC  H14A16768   3.231   2.978  10.310 -1.9179  0.0234  0.7108
  142DOPC  H14B16769   3.259   2.950  10.131 -1.0769  0.0447 -0.9976
  142DOPC  H14C16770   3.103   2.957  10.211  0.2978  0.6594  0.1049
  142DOPC   C1516771   3.302   2.720  10.327  0.1655 -0.2238  0.3407
  142DOPC  H15A16772   3.281   2.615  10.341 -0.8904 -0.0644  0.0797
  142DOPC  H15B16773   3.322   2.774  10.418  0.9789  1.3909 -0.7570
  142DOPC  H15C16774   3.392   2.734  10.270  0.7241 -3.1556  0.3591
  142DOPC   C1116775   3.280   2.699  10.037  1.1754 -0.0745  0.0827
  142DOPC  H11A16776   3.377   2.686  10.089  1.6364  1.7893 -0.2255
  142DOPC  H11B16777   3.280   2.618   9.961  1.2590 -2.2304  2.2782
  142DOPC     P16778   3.198   2.874   9.854 -0.1389 -0.0295 -0.6184
  142DOPC   O1316779   3.243   3.011   9.817  0.7465 -0.2784 -0.5776
  142DOPC   O1416780   3.058   2.851   9.904  0.0530  0.8718 -0.1665
  142DOPC   O1216781   3.290   2.833   9.980  0.0682 -0.2008  0.6961
  142DOPC   O1116782   3.242   2.768   9.751 -0.0109 -0.2967 -0.0481
  142DOPC    C116783   3.382   2.755   9.706 -0.3306 -0.5503 -0.3769
  142DOPC    HA16784   3.389   2.645   9.691 -0.9166 -0.8154  1.0968
  142DOPC    HB16785   3.447   2.778   9.793 -0.3682 -0.4025 -0.3879
  142DOPC    C216786   3.419   2.847   9.585 -0.2824 -0.4138 -0.0873
  142DOPC    HS16787   3.387   2.946   9.623  0.0151 -1.1175  2.1921
  142DOPC   O2116788   3.348   2.809   9.466  0.0881  0.1523 -0.2941
  142DOPC   C2116789   3.319   2.918   9.388  0.1320 -0.1326 -0.4063
  142DOPC   O2216790   3.342   3.034   9.418 -0.2791 -0.3304 -1.1636
  142DOPC   C2216791   3.266   2.876   9.247  0.2868 -0.4009 -0.2537
  142DOPC   H2R16792   3.156   2.856   9.251  0.3382 -0.5292  1.0622
  142DOPC   H2S16793   3.320   2.783   9.221  1.2559  0.2544 -0.6029
  142DOPC    C316794   3.574   2.837   9.565  0.0427 -0.1609  0.4335
  142DOPC    HX16795   3.588   2.733   9.526 -0.6390 -1.1945  2.7859
  142DOPC    HY16796   3.628   2.830   9.662 -0.7839  0.4406  0.9516
  142DOPC   O3116797   3.631   2.935   9.472 -0.2890 -0.2647  0.2607
  142DOPC   C3116798   3.668   3.059   9.528  0.4669  0.0431  0.6475
  142DOPC   O3216799   3.636   3.095   9.638 -0.6229  0.1716 -0.4144
  142DOPC   C3216800   3.749   3.133   9.419 -0.0458 -0.0447 -0.0967
  142DOPC   H2X16801   3.777   3.232   9.459 -0.9939  0.6692 -1.1427
  142DOPC   H2Y16802   3.846   3.081   9.405  0.6164  1.2071 -0.2966
  142DOPC   C2316803   3.314   2.981   9.145 -0.1979 -0.3564 -0.3242
  142DOPC   H3R16804   3.423   2.996   9.160 -0.3659  0.1709  0.4204
  142DOPC   H3S16805   3.269   3.081   9.162  0.5293  0.0971 -0.9652
  142DOPC   C2416806   3.290   2.934   9.005 -0.4647  0.4043  0.2525
  142DOPC   H4R16807   3.181   2.932   8.984 -0.7207  0.8832  1.4679
  142DOPC   H4S16808   3.330   2.831   9.001  2.7490  1.3165  3.4850
  142DOPC   C2516809   3.363   3.027   8.904 -0.2205  0.8586  0.2397
  142DOPC   H5R16810   3.473   3.008   8.909 -0.2645  0.9693  2.9083
  142DOPC   H5S16811   3.350   3.134   8.932 -1.6731  0.3482  1.6117
  142DOPC   C2616812   3.326   2.994   8.758 -0.2117 -0.0215  0.1236
  142DOPC   H6R16813   3.222   3.029   8.739 -0.4516 -0.6315  0.2812
  142DOPC   H6S16814   3.332   2.883   8.758 -1.1606 -0.0865  0.2430
  142DOPC   C2716815   3.432   3.041   8.664  0.0591 -0.6338 -0.8830
  142DOPC   H7R16816   3.532   3.008   8.698  0.9653  3.0114  0.4885
  142DOPC   H7S16817   3.429   3.150   8.687 -0.8714 -1.2233  2.3209
  142DOPC   C2816818   3.414   2.995   8.518 -0.1965  0.2741 -0.0307
  142DOPC   H8R16819   3.393   2.886   8.514  2.3914 -0.2535 -1.2185
  142DOPC   H8S16820   3.512   3.021   8.472 -1.2168  1.6022 -1.5664
  142DOPC   C2916821   3.303   3.072   8.451 -0.2816  0.6673 -0.6558
  142DOPC   H9R16822   3.202   3.060   8.494 -0.0421  1.6074  0.2234
  142DOPC  C21016823   3.320   3.158   8.351 -0.0184  0.5874 -0.1143
  142DOPC  H10R16824   3.231   3.207   8.308 -0.0507  1.2251  0.6486
  142DOPC  C21116825   3.451   3.200   8.290 -0.1858  0.0218  0.2209
  142DOPC  H11R16826   3.535   3.218   8.360 -0.7210 -0.2671  0.9491
  142DOPC  H11S16827   3.432   3.298   8.241 -0.3726 -1.4258 -2.8273
  142DOPC  C21216828   3.497   3.091   8.182 -0.7041 -0.0389 -0.2927
  142DOPC  H12R16829   3.537   3.006   8.241 -0.9854  0.6589  0.9564
  142DOPC  H12S16830   3.581   3.148   8.137  0.8387 -1.7627  0.2921
  142DOPC  C21316831   3.393   3.064   8.082 -0.1097 -0.2679 -0.0964
  142DOPC  H13R16832   3.339   3.160   8.067  1.0721  0.6375  1.2086
  142DOPC  H13S16833   3.316   2.990   8.116  0.3892 -0.3158  0.9820
  142DOPC  C21416834   3.460   2.998   7.957 -0.2689  0.4434 -0.0246
  142DOPC  H14R16835   3.513   2.906   7.990 -2.0490  0.2475  2.5447
  142DOPC  H14S16836   3.526   3.074   7.910  1.0575 -0.8357 -0.2958
  142DOPC  C21516837   3.370   2.944   7.844  0.3635  0.0809  0.1446
  142DOPC  H15R16838   3.298   2.867   7.878  1.5073 -0.9881  0.2274
  142DOPC  H15S16839   3.434   2.885   7.775 -1.0195  0.2730 -1.3663
  142DOPC  C21616840   3.283   3.056   7.772  1.2731  0.2913  0.3264
  142DOPC  H16R16841   3.270   3.144   7.838 -0.1324  1.2706 -1.1673
  142DOPC  H16S16842   3.179   3.017   7.770  1.1627  0.4602 -2.8583
  142DOPC  C21716843   3.326   3.092   7.629  0.4617  0.5858 -0.0817
  142DOPC  H17R16844   3.316   2.996   7.574 -2.2984 -0.2100  1.5496
  142DOPC  H17S16845   3.428   3.135   7.637  0.1776  1.0907  1.0969
  142DOPC  C21816846   3.224   3.177   7.551 -0.2287  0.1297  0.3296
  142DOPC  H18R16847   3.214   3.145   7.445 -3.3555  0.7517  0.3146
  142DOPC  H18S16848   3.245   3.283   7.578  0.9847 -0.4345  1.7443
  142DOPC  H18T16849   3.123   3.155   7.594 -0.1965  0.3296  0.5089
  142DOPC   C3316850   3.680   3.158   9.282  0.0168 -0.1776 -0.1125
  142DOPC   H3X16851   3.581   3.205   9.300  1.4099  2.8358  0.3597
  142DOPC   H3Y16852   3.665   3.061   9.230 -0.5974 -0.4112  0.4870
  142DOPC   C3416853   3.771   3.261   9.199  0.3505  0.1132 -0.2363
  142DOPC   H4X16854   3.880   3.240   9.203  0.6781  1.7226 -0.2826
  142DOPC   H4Y16855   3.764   3.356   9.256  1.4178 -0.7816  1.4902
  142DOPC   C3516856   3.729   3.283   9.053 -0.5331 -0.0464 -0.2239
  142DOPC   H5X16857   3.777   3.377   9.021 -1.3791  1.0895  1.6357
  142DOPC   H5Y16858   3.618   3.287   9.041 -0.2772  0.3949 -3.0226
  142DOPC   C3616859   3.768   3.158   8.969  0.3774  0.5408  0.1656
  142DOPC   H6X16860   3.874   3.135   8.991  0.8827 -1.0177 -3.2027
  142DOPC   H6Y16861   3.711   3.063   8.985  2.6616 -0.9950 -0.2839
  142DOPC   C3716862   3.749   3.169   8.815 -0.3019  0.0489  0.4381
  142DOPC   H7X16863   3.639   3.162   8.799 -0.1517  0.0039 -0.7202
  142DOPC   H7Y16864   3.771   3.275   8.791  1.5858  0.0533  1.9173
  142DOPC   C3816865   3.844   3.085   8.728  0.0286  0.2841  0.0913
  142DOPC   H8X16866   3.802   2.985   8.751  0.9740  0.0878  1.0063
  142DOPC   H8Y16867   3.947   3.089   8.768  0.7033 -0.1517 -1.5034
  142DOPC   C3916868   3.841   3.115   8.582  0.7773 -0.0008 -0.0190
  142DOPC   H9X16869   3.840   3.223   8.560 -1.8726 -0.2023 -1.2716
  142DOPC  C31016870   3.807   3.026   8.486 -0.7203 -0.5720 -0.4078
  142DOPC  H10X16871   3.814   3.072   8.386  0.5180 -1.5554 -0.7950
  142DOPC  C31116872   3.783   2.874   8.477 -0.1617 -0.3115 -0.1498
  142DOPC  H11X16873   3.679   2.867   8.439  0.1375 -0.1688 -1.0239
  142DOPC  H11Y16874   3.797   2.828   8.577  1.0682  0.7676  0.2059
  142DOPC  C31216875   3.864   2.793   8.374 -0.1498 -0.1011 -0.1645
  142DOPC  H12X16876   3.823   2.692   8.391  1.1163 -0.4078  1.2015
  142DOPC  H12Y16877   3.970   2.787   8.405 -0.2647 -1.6405 -0.0410
  142DOPC  C31316878   3.853   2.843   8.229  0.1504  0.1950  0.1435
  142DOPC  H13X16879   3.748   2.877   8.227 -0.9935 -2.9528 -2.4126
  142DOPC  H13Y16880   3.927   2.927   8.226  0.9214 -0.0838  4.6955
  142DOPC  C31416881   3.877   2.742   8.125 -0.0805 -0.1836 -0.4784
  142DOPC  H14X16882   3.987   2.741   8.108  0.5799  0.7982  2.9757
  142DOPC  H14Y16883   3.837   2.644   8.159  2.7230 -1.6180 -0.9444
  142DOPC  C31516884   3.801   2.781   7.998  0.4486  0.1670 -0.0492
  142DOPC  H15X16885   3.842   2.877   7.961 -1.6145  1.3897  0.6609
  142DOPC  H15Y16886   3.693   2.794   8.020  0.0233  2.2806 -2.8222
  142DOPC  C31616887   3.800   2.671   7.889  0.1410 -0.0652  0.4361
  142DOPC  H16X16888   3.903   2.671   7.847  0.6589  0.6479  1.6536
  142DOPC  H16Y16889   3.765   2.575   7.934  1.6522 -0.4106  0.9570
  142DOPC  C31716890   3.711   2.708   7.775  0.2277  0.2460  0.5220
  142DOPC  H17X16891   3.608   2.704   7.816  0.3229  1.3972  0.9048
  142DOPC  H17Y16892   3.731   2.809   7.734  1.2701 -0.4274 -0.7286
  142DOPC  C31816893   3.728   2.611   7.651 -0.2854  0.2345  0.2004
  142DOPC  H18X16894   3.825   2.631   7.600 -0.7865 -0.7716 -1.2009
  142DOPC  H18Y16895   3.724   2.504   7.681  0.4490 -0.5115 -2.1109
  142DOPC  H18Z16896   3.646   2.627   7.577  0.7708  1.1259 -0.8173
  143DOPC     N16897   2.474   3.262  10.154 -0.7076 -0.3746 -0.3914
  143DOPC   C1216898   2.429   3.283  10.011 -0.0416 -0.1079  0.1725
  143DOPC  H12A16899   2.502   3.234   9.948  2.1228  1.6250  1.1858
  143DOPC  H12B16900   2.436   3.387   9.983  2.3749 -0.0373  0.7679
  143DOPC   C1316901   2.407   3.347  10.259  0.3705  0.6953 -0.0563
  143DOPC  H13A16902   2.302   3.326  10.275 -0.0826  1.1990 -2.1144
  143DOPC  H13B16903   2.471   3.347  10.346 -0.6923  1.0953  0.7461
  143DOPC  H13C16904   2.404   3.446  10.215 -0.1983  0.9989  0.6312
  143DOPC   C1416905   2.621   3.306  10.167 -0.1664 -0.1154  0.5111
  143DOPC  H14A16906   2.685   3.226  10.133 -0.5953 -0.8882  1.4665
  143DOPC  H14B16907   2.639   3.396  10.111  0.4229  1.0992  2.5571
  143DOPC  H14C16908   2.645   3.326  10.270  0.7331 -0.5513  0.3970
  143DOPC   C1516909   2.491   3.118  10.199  0.2917 -0.4487  0.0147
  143DOPC  H15A16910   2.542   3.113  10.295  1.1651 -0.7403 -0.4522
  143DOPC  H15B16911   2.547   3.055  10.131 -0.5064 -0.2114 -0.8815
  143DOPC  H15C16912   2.396   3.068  10.209  0.6621 -1.7849 -2.4474
  143DOPC   C1116913   2.283   3.244   9.979 -1.0138  0.1848 -0.1474
  143DOPC  H11A16914   2.265   3.228   9.871  0.5557 -3.0171 -0.0445
  143DOPC  H11B16915   2.280   3.144  10.027  0.1246  0.3694  0.3393
  143DOPC     P16916   2.158   3.473   9.991  0.1446  0.1051  0.0646
  143DOPC   O1316917   2.284   3.555  10.000  0.4562 -0.6512  0.5270
  143DOPC   O1416918   2.038   3.521  10.061  0.1682 -0.5820  0.2526
  143DOPC   O1216919   2.180   3.327  10.044 -0.1772  0.2764  0.5683
  143DOPC   O1116920   2.123   3.451   9.835  0.4829  0.2873  0.2327
  143DOPC    C116921   2.005   3.369   9.800  0.5496 -0.0523  0.5151
  143DOPC    HA16922   1.915   3.432   9.818  0.3419 -0.5678  1.3282
  143DOPC    HB16923   2.009   3.278   9.863  1.2345  1.0381  2.1211
  143DOPC    C216924   1.994   3.311   9.647  0.0373  0.3196  0.1577
  143DOPC    HS16925   2.083   3.248   9.628  0.5360  1.2474 -0.6763
  143DOPC   O2116926   1.985   3.418   9.547 -0.1058  0.6844  0.0501
  143DOPC   C2116927   2.068   3.408   9.453 -0.8886  1.6748 -0.0243
  143DOPC   O2216928   2.141   3.312   9.420 -0.1917 -0.5777  0.3385
  143DOPC   C2216929   2.065   3.545   9.385 -0.5199 -0.2725  0.6201
  143DOPC   H2R16930   2.170   3.576   9.366  0.0677 -0.9831  2.5266
  143DOPC   H2S16931   2.019   3.610   9.462 -0.4873 -0.3344  0.6918
  143DOPC    C316932   1.876   3.209   9.639  0.8350 -0.2448  0.0035
  143DOPC    HX16933   1.782   3.268   9.650  0.1232 -1.5444  1.0841
  143DOPC    HY16934   1.870   3.139   9.725 -0.9266  1.2038  1.1471
  143DOPC   O3116935   1.853   3.146   9.516  0.2085 -0.0603  0.2115
  143DOPC   C3116936   1.954   3.067   9.467  0.0212 -0.4002 -0.6219
  143DOPC   O3216937   2.049   3.033   9.534 -0.0517  0.6684 -0.1637
  143DOPC   C3216938   1.932   3.030   9.320 -0.0722  0.5630  1.0998
  143DOPC   H2X16939   1.921   2.919   9.312 -1.7496  0.7678 -0.0387
  143DOPC   H2Y16940   1.833   3.077   9.302  0.2533  1.3171  1.2397
  143DOPC   C2316941   1.977   3.569   9.261  0.9252 -0.4658  0.8124
  143DOPC   H3R16942   1.954   3.677   9.249 -0.3705 -0.7573  0.5283
  143DOPC   H3S16943   1.874   3.530   9.275  0.4969  0.6588  0.9761
  143DOPC   C2416944   2.037   3.517   9.131 -0.1190  0.7296 -0.0832
  143DOPC   H4R16945   2.041   3.407   9.119  1.4084  0.7450  0.1662
  143DOPC   H4S16946   2.145   3.538   9.138  0.0224 -0.3275  1.4777
  143DOPC   C2516947   1.973   3.559   9.001 -0.3304  0.3698 -0.6291
  143DOPC   H5R16948   1.998   3.663   8.974 -0.0792 -0.0629 -2.1731
  143DOPC   H5S16949   1.862   3.546   9.004 -0.3063  0.3378  0.8238
  143DOPC   C2616950   2.022   3.477   8.879  0.1982  0.4162  0.5135
  143DOPC   H6R16951   1.993   3.373   8.908 -1.1066  1.0169  1.4478
  143DOPC   H6S16952   2.132   3.479   8.867  0.4767  1.3576  2.8059
  143DOPC   C2716953   1.957   3.501   8.738 -0.1692  0.0351  0.2140
  143DOPC   H7R16954   1.847   3.486   8.752 -0.2604  1.1312  0.8824
  143DOPC   H7S16955   1.983   3.409   8.683 -1.4030 -0.5294  0.5211
  143DOPC   C2816956   1.978   3.636   8.674 -0.0154  0.1478  0.6206
  143DOPC   H8R16957   1.976   3.719   8.748 -0.4722  0.3796  0.3509
  143DOPC   H8S16958   1.901   3.672   8.603  0.5243  1.3265  0.6060
  143DOPC   C2916959   2.111   3.639   8.601 -0.2143  0.5632  0.6519
  143DOPC   H9R16960   2.191   3.685   8.660  0.6221  0.2888 -0.2563
  143DOPC  C21016961   2.139   3.617   8.470 -0.5446 -0.1795 -1.2834
  143DOPC  H10R16962   2.241   3.647   8.441  0.0475 -0.7774  0.0910
  143DOPC  C21116963   2.046   3.578   8.357 -0.8735  0.5684 -0.1224
  143DOPC  H11R16964   1.940   3.586   8.390 -0.8179  0.4764  0.0831
  143DOPC  H11S16965   2.067   3.472   8.332  2.3075  0.8792  0.7654
  143DOPC  C21216966   2.077   3.666   8.233 -0.8555 -0.0962  0.1906
  143DOPC  H12R16967   2.186   3.653   8.217 -1.0433 -1.4848 -0.0442
  143DOPC  H12S16968   2.056   3.769   8.270  1.7437  0.7311 -0.3746
  143DOPC  C21316969   2.003   3.621   8.108  0.8758 -0.5641  0.3179
  143DOPC  H13R16970   2.037   3.519   8.079 -1.9360 -1.9778  1.5623
  143DOPC  H13S16971   2.044   3.675   8.020 -1.9099  0.7139 -0.3180
  143DOPC  C21416972   1.848   3.646   8.108 -0.3912 -0.2313 -0.4164
  143DOPC  H14R16973   1.821   3.752   8.089 -0.4462 -0.1950 -0.1314
  143DOPC  H14S16974   1.802   3.604   8.200  1.3760 -2.5479 -0.5001
  143DOPC  C21516975   1.784   3.568   7.990 -0.9176  0.2148 -0.8432
  143DOPC  H15R16976   1.791   3.458   7.997 -0.0785  0.1761 -2.0243
  143DOPC  H15S16977   1.837   3.606   7.900 -0.5650 -0.8248 -1.0861
  143DOPC  C21616978   1.644   3.625   7.957 -0.3734  0.1368 -0.2295
  143DOPC  H16R16979   1.646   3.733   7.930 -0.3455  0.0097 -0.7584
  143DOPC  H16S16980   1.577   3.623   8.046 -0.9088  0.2341 -0.6211
  143DOPC  C21716981   1.577   3.541   7.848  0.1760  0.0112 -0.1780
  143DOPC  H17R16982   1.581   3.436   7.886 -0.2848  0.6258  1.6764
  143DOPC  H17S16983   1.642   3.553   7.759  0.5000  0.0470  0.0605
  143DOPC  C21816984   1.435   3.583   7.807 -1.1191  0.2074  0.5455
  143DOPC  H18R16985   1.373   3.573   7.898  1.0288 -0.9966  1.9587
  143DOPC  H18S16986   1.395   3.521   7.724  1.6360  0.8483 -1.4038
  143DOPC  H18T16987   1.430   3.690   7.778  2.0461  0.1310 -0.6292
  143DOPC   C3316988   2.034   3.088   9.225 -0.2336 -0.1315 -0.5869
  143DOPC   H3X16989   2.139   3.077   9.259 -0.0613  0.8644 -0.7638
  143DOPC   H3Y16990   2.008   3.195   9.215 -1.7925 -0.3462  0.7775
  143DOPC   C3416991   2.013   3.022   9.088 -0.3930  0.3263 -0.2144
  143DOPC   H4X16992   1.905   3.034   9.067 -1.2045 -2.7522  1.5365
  143DOPC   H4Y16993   2.035   2.913   9.094  2.6792  0.6704 -2.4924
  143DOPC   C3516994   2.099   3.077   8.974 -0.3903  0.3352  0.6963
  143DOPC   H5X16995   2.201   3.045   9.003 -0.5138 -1.9967 -1.1224
  143DOPC   H5Y16996   2.095   3.188   8.960 -2.5750  0.5569  2.5368
  143DOPC   C3616997   2.064   3.009   8.831  0.7647  0.1560  0.0191
  143DOPC   H6X16998   2.079   2.900   8.843 -0.0467  0.0333  0.0032
  143DOPC   H6Y16999   1.957   3.026   8.804  1.2380  1.2540 -1.2975
  143DOPC   C3717000   2.158   3.063   8.717 -0.6498  0.6501 -0.5910
  143DOPC   H7X17001   2.141   3.172   8.729  0.7500  0.8042  0.2118
  143DOPC   H7Y17002   2.261   3.043   8.752 -0.6627  0.3046 -0.7536
  143DOPC   C3817003   2.122   3.012   8.581  0.1751 -0.8124 -0.0021
  143DOPC   H8X17004   2.011   3.007   8.586  0.1743 -0.0260  0.9366
  143DOPC   H8Y17005   2.160   2.908   8.571  1.9596 -0.3123  1.1173
  143DOPC   C3917006   2.175   3.101   8.480  0.1923  0.1491  0.7503
  143DOPC   H9X17007   2.269   3.148   8.511 -0.6087  0.7949  2.3344
  143DOPC  C31017008   2.120   3.105   8.352  0.4321 -0.1149  0.0144
  143DOPC  H10X17009   2.171   3.178   8.287  0.3162 -1.6761 -1.9547
  143DOPC  C31117010   1.985   3.047   8.308 -0.1826 -0.1347  0.0877
  143DOPC  H11X17011   1.949   2.967   8.376  0.4295 -0.5614 -0.0718
  143DOPC  H11Y17012   2.002   3.008   8.205  1.2988  0.1677  0.2004
  143DOPC  C31217013   1.886   3.159   8.293  0.0379 -0.6263 -0.3016
  143DOPC  H12X17014   1.791   3.119   8.252 -0.8684  1.2236 -0.1163
  143DOPC  H12Y17015   1.920   3.238   8.224  1.5632 -1.0460 -0.0741
  143DOPC  C31317016   1.837   3.222   8.429 -0.2945 -0.2513  0.1716
  143DOPC  H13X17017   1.794   3.150   8.501 -1.5071  0.1752 -0.0861
  143DOPC  H13Y17018   1.926   3.262   8.482 -2.6294  0.3121  4.0568
  143DOPC  C31417019   1.738   3.333   8.402 -0.3605 -0.0434  0.7013
  143DOPC  H14X17020   1.770   3.413   8.333 -0.8943  0.9101  1.5380
  143DOPC  H14Y17021   1.648   3.292   8.352 -0.6542  0.8492  0.4953
  143DOPC  C31517022   1.699   3.414   8.530 -0.8470  0.1396  0.0779
  143DOPC  H15X17023   1.791   3.464   8.567 -0.3792 -1.8925  1.8948
  143DOPC  H15Y17024   1.663   3.341   8.607 -0.6429 -2.5291 -2.2131
  143DOPC  C31617025   1.587   3.509   8.513 -1.0067 -0.7241 -0.4794
  143DOPC  H16X17026   1.606   3.589   8.437 -4.4781 -0.0759 -0.8467
  143DOPC  H16Y17027   1.495   3.457   8.476 -1.7397  0.3274 -0.1970
  143DOPC  C31717028   1.542   3.579   8.644 -0.1052 -0.7055  0.1513
  143DOPC  H17X17029   1.630   3.637   8.679 -0.3427  0.0430 -0.4534
  143DOPC  H17Y17030   1.459   3.648   8.618 -0.2006 -1.0807 -0.5639
  143DOPC  C31817031   1.483   3.498   8.756  0.2985  0.8966  0.3945
  143DOPC  H18X17032   1.396   3.441   8.717  1.1439 -1.0455  1.2528
  143DOPC  H18Y17033   1.557   3.425   8.795 -0.1889  0.0928 -0.1567
  143DOPC  H18Z17034   1.449   3.559   8.843  2.5001  0.5232  1.5714
  144DOPC     N17035   2.565   1.620  10.022 -0.4594 -0.3691 -0.7337
  144DOPC   C1217036   2.548   1.751   9.941 -0.0159 -0.2741  0.2243
  144DOPC  H12A17037   2.641   1.762   9.888 -0.1867  1.1790  0.1568
  144DOPC  H12B17038   2.530   1.831  10.012  0.6806  1.8862 -1.8941
  144DOPC   C1317039   2.574   1.511   9.924  0.5587  0.3539  0.5242
  144DOPC  H13A17040   2.585   1.414   9.969 -3.2821 -0.5524 -0.0970
  144DOPC  H13B17041   2.478   1.498   9.875 -0.4480  2.2242  1.8443
  144DOPC  H13C17042   2.652   1.538   9.854 -2.0632 -0.4384 -3.0218
  144DOPC   C1417043   2.458   1.586  10.118 -0.5883 -0.3860  0.6465
  144DOPC  H14A17044   2.448   1.672  10.182 -0.1946  1.7974 -2.0610
  144DOPC  H14B17045   2.373   1.565  10.054  0.6324 -0.6665 -0.9360
  144DOPC  H14C17046   2.482   1.500  10.178  0.5615 -0.3831  0.2115
  144DOPC   C1517047   2.693   1.625  10.105 -0.1524 -0.5210 -0.7918
  144DOPC  H15A17048   2.690   1.711  10.171 -0.9464 -0.3506 -1.0400
  144DOPC  H15B17049   2.781   1.634  10.044 -0.8307  1.9842 -1.5169
  144DOPC  H15C17050   2.713   1.537  10.164  0.3856  0.8125  1.1331
  144DOPC   C1117051   2.418   1.756   9.856 -0.1511  0.5458 -0.7657
  144DOPC  H11A17052   2.422   1.845   9.789 -4.2903  0.7083 -1.0792
  144DOPC  H11B17053   2.409   1.668   9.789  0.9852 -1.2883  1.3614
  144DOPC     P17054   2.253   1.910   9.982 -0.1406  0.2453 -0.2732
  144DOPC   O1317055   2.374   1.987  10.023  0.2737 -0.0885 -0.8099
  144DOPC   O1417056   2.150   1.888  10.085  0.0432 -0.3981  0.4194
  144DOPC   O1217057   2.304   1.769   9.942  0.2920  0.1276 -0.1110
  144DOPC   O1117058   2.190   1.966   9.854 -0.7152 -0.3479 -0.3738
  144DOPC    C117059   2.239   2.100   9.810  0.2310  0.9531 -0.6537
  144DOPC    HA17060   2.350   2.103   9.808  0.2819  1.0232  1.1412
  144DOPC    HB17061   2.196   2.181   9.872  0.7723 -2.2313  4.4314
  144DOPC    C217062   2.205   2.119   9.655 -0.0387  0.4159  0.2860
  144DOPC    HS17063   2.097   2.105   9.635  0.6299 -0.9086 -3.2230
  144DOPC   O2117064   2.270   2.012   9.590 -0.3938  0.7700 -0.1263
  144DOPC   C2117065   2.209   1.946   9.491 -0.1431  0.1539  0.0652
  144DOPC   O2217066   2.101   1.982   9.439 -0.3728  0.0891  0.4247
  144DOPC   C2217067   2.285   1.822   9.456  1.1214 -0.2492 -0.4014
  144DOPC   H2R17068   2.216   1.754   9.401 -0.1383  0.2789  0.4758
  144DOPC   H2S17069   2.306   1.769   9.552  2.2055 -0.0802 -0.5318
  144DOPC    C317070   2.242   2.263   9.605  0.2938  0.8067 -0.2183
  144DOPC    HX17071   2.345   2.277   9.643  1.1372 -3.0846 -0.5999
  144DOPC    HY17072   2.174   2.338   9.650 -2.0204 -0.8577 -0.7144
  144DOPC   O3117073   2.245   2.273   9.460  0.1357  0.3289 -0.1153
  144DOPC   C3117074   2.130   2.309   9.396  0.2638 -0.1964  0.1078
  144DOPC   O3217075   2.029   2.362   9.448 -0.5690 -0.5986  0.2837
  144DOPC   C3217076   2.148   2.299   9.240  0.6139  0.1693  0.1199
  144DOPC   H2X17077   2.257   2.303   9.218  0.6570  0.6792  0.4316
  144DOPC   H2Y17078   2.109   2.197   9.218  0.1881  0.6766 -1.6151
  144DOPC   C2317079   2.426   1.845   9.398  0.0440  0.4253 -0.1369
  144DOPC   H3R17080   2.474   1.747   9.376 -0.3835 -0.1506  1.3382
  144DOPC   H3S17081   2.485   1.896   9.478 -1.2550  0.5262  0.7837
  144DOPC   C2417082   2.433   1.926   9.266 -0.1352 -0.0286 -0.2853
  144DOPC   H4R17083   2.540   1.934   9.238  0.3811 -1.2951  1.2231
  144DOPC   H4S17084   2.398   2.026   9.299 -0.3847  0.0987 -0.9100
  144DOPC   C2517085   2.348   1.863   9.158 -0.4176 -0.8736 -0.2026
  144DOPC   H5R17086   2.248   1.843   9.202 -1.4073  2.6337 -0.6143
  144DOPC   H5S17087   2.392   1.763   9.136 -1.1325 -1.2969  0.2539
  144DOPC   C2617088   2.323   1.952   9.035 -0.4413  0.4371  0.3988
  144DOPC   H6R17089   2.419   2.002   9.010 -0.9947  2.1563  1.4768
  144DOPC   H6S17090   2.252   2.034   9.061  0.2624  0.5270  2.1817
  144DOPC   C2717091   2.270   1.867   8.922 -0.0891 -0.0033  0.3962
  144DOPC   H7R17092   2.187   1.803   8.960  0.4554 -0.9697 -0.0138
  144DOPC   H7S17093   2.347   1.795   8.885 -0.9349 -0.8579  0.2418
  144DOPC   C2817094   2.208   1.951   8.815  0.1773 -0.1030 -0.8622
  144DOPC   H8R17095   2.121   2.012   8.848  0.8732  0.5879 -0.2608
  144DOPC   H8S17096   2.164   1.876   8.745  0.9241 -1.9101  0.5395
  144DOPC   C2917097   2.313   2.036   8.748  0.6152  0.7735 -0.6779
  144DOPC   H9R17098   2.371   2.097   8.818 -1.0202  0.5106  0.9819
  144DOPC  C21017099   2.328   2.051   8.613 -0.1493 -0.7027 -0.2030
  144DOPC  H10R17100   2.395   2.131   8.578 -0.0893 -1.0221 -0.8419
  144DOPC  C21117101   2.243   1.995   8.503  0.1702  0.0232 -0.2646
  144DOPC  H11R17102   2.141   1.970   8.540 -0.2112  0.7851 -0.7722
  144DOPC  H11S17103   2.289   1.903   8.463 -0.3186 -0.3392  0.0024
  144DOPC  C21217104   2.241   2.089   8.383  0.2790 -0.3773  0.3042
  144DOPC  H12R17105   2.347   2.115   8.362 -0.0014  2.7147  2.1297
  144DOPC  H12S17106   2.192   2.179   8.426 -2.4287 -0.7806 -1.6401
  144DOPC  C21317107   2.170   2.033   8.255 -0.2513  0.2143  0.1544
  144DOPC  H13R17108   2.062   2.047   8.278 -0.1893 -2.0981  2.2542
  144DOPC  H13S17109   2.202   1.927   8.248  2.1975  0.6297  3.0166
  144DOPC  C21417110   2.194   2.108   8.125 -0.3301 -0.0146 -0.3245
  144DOPC  H14R17111   2.304   2.114   8.110 -0.0001 -0.4187  1.6729
  144DOPC  H14S17112   2.161   2.214   8.137  0.7678  0.8796 -3.9530
  144DOPC  C21517113   2.114   2.062   8.001 -0.2102  0.0877  0.6490
  144DOPC  H15R17114   2.005   2.082   8.001 -0.1959  0.5098  3.4660
  144DOPC  H15S17115   2.133   1.952   8.000 -0.4671  0.0418 -0.1802
  144DOPC  C21617116   2.169   2.127   7.874 -0.7267  0.1141 -0.7078
  144DOPC  H16R17117   2.265   2.079   7.846 -1.2902 -0.5953 -1.4730
  144DOPC  H16S17118   2.201   2.230   7.903  1.3759 -0.5330 -0.5417
  144DOPC  C21717119   2.075   2.147   7.754  0.1234  0.5471  0.5002
  144DOPC  H17R17120   2.138   2.187   7.672 -0.0146 -0.1235  0.0558
  144DOPC  H17S17121   2.002   2.226   7.779 -1.0963 -1.0257  2.1907
  144DOPC  C21817122   2.004   2.018   7.712 -0.8778  0.3333 -0.4777
  144DOPC  H18R17123   1.929   1.993   7.790 -0.3630  0.3706  0.0324
  144DOPC  H18S17124   2.070   1.932   7.686 -2.0475 -0.1036 -2.2161
  144DOPC  H18T17125   1.945   2.029   7.618  0.4735  2.1269 -1.1715
  144DOPC   C3317126   2.074   2.410   9.166 -0.2702  0.1674 -0.6970
  144DOPC   H3X17127   2.088   2.492   9.240  2.1873 -2.2104  1.7064
  144DOPC   H3Y17128   1.964   2.395   9.170 -0.4742  0.7450 -2.8194
  144DOPC   C3417129   2.115   2.429   9.024  0.0159  0.0319 -0.2466
  144DOPC   H4X17130   2.220   2.462   9.014  0.0037 -0.6765 -4.5236
  144DOPC   H4Y17131   2.054   2.517   8.994  2.8762  2.3157  0.1964
  144DOPC   C3517132   2.078   2.309   8.937  0.0652  0.7706  0.5006
  144DOPC   H5X17133   1.974   2.274   8.957  0.2700 -1.4179 -1.7505
  144DOPC   H5Y17134   2.151   2.229   8.961 -2.0359 -1.7156 -0.8506
  144DOPC   C3617135   2.097   2.338   8.785  0.5997  0.1485 -0.0950
  144DOPC   H6X17136   2.194   2.385   8.761 -0.5728  3.2046  0.5827
  144DOPC   H6Y17137   2.093   2.247   8.722 -0.7501  0.4621 -0.5117
  144DOPC   C3717138   1.995   2.442   8.731  0.1479  0.1045  0.0928
  144DOPC   H7X17139   1.892   2.401   8.739 -0.1619  0.7620 -0.4446
  144DOPC   H7Y17140   1.994   2.538   8.785 -1.0499 -0.1237  0.4965
  144DOPC   C3817141   2.010   2.466   8.576 -0.0848 -0.1363 -0.5616
  144DOPC   H8X17142   1.916   2.514   8.539  0.6975  0.3503 -2.0095
  144DOPC   H8Y17143   2.013   2.372   8.517  1.6157 -0.0209 -0.6921
  144DOPC   C3917144   2.132   2.557   8.550  0.4008  0.9254 -0.2837
  144DOPC   H9X17145   2.213   2.538   8.621 -0.8110 -1.4545  0.5719
  144DOPC  C31017146   2.139   2.640   8.445  0.2624  0.2822 -0.1817
  144DOPC  H10X17147   2.225   2.706   8.426 -0.6593  0.8838 -2.4755
  144DOPC  C31117148   2.040   2.654   8.334 -0.2402 -0.0698 -0.4363
  144DOPC  H11X17149   1.990   2.752   8.343 -0.9736 -0.4401 -0.4363
  144DOPC  H11Y17150   1.965   2.572   8.329  1.6368 -1.8531 -0.9346
  144DOPC  C31217151   2.109   2.664   8.198 -0.0654 -0.1974  0.5032
  144DOPC  H12X17152   2.190   2.588   8.200  0.6968  0.5663  3.0195
  144DOPC  H12Y17153   2.142   2.769   8.186 -0.1503 -0.0950  1.1189
  144DOPC  C31317154   2.018   2.641   8.078  0.9905  0.4158 -0.0251
  144DOPC  H13X17155   2.069   2.663   7.982 -0.6836 -0.1697 -1.0965
  144DOPC  H13Y17156   1.971   2.541   8.070  0.8684  0.4572  0.1496
  144DOPC  C31417157   1.903   2.738   8.074  1.0856 -0.3081 -1.1325
  144DOPC  H14X17158   1.851   2.745   8.171  2.4896  1.2961 -0.4450
  144DOPC  H14Y17159   1.937   2.841   8.052 -1.2374  0.7488 -0.0994
  144DOPC  C31517160   1.791   2.700   7.974  0.0034 -0.2055  0.3702
  144DOPC  H15X17161   1.740   2.604   7.996 -1.4890  0.6928  0.9832
  144DOPC  H15Y17162   1.842   2.708   7.876  0.8134 -0.2167  0.7860
  144DOPC  C31617163   1.687   2.803   7.963  0.1027 -0.0167  0.5230
  144DOPC  H16X17164   1.637   2.831   8.058  2.9587  0.0769  2.1220
  144DOPC  H16Y17165   1.742   2.896   7.938 -1.2381  0.3542 -1.2295
  144DOPC  C31717166   1.591   2.760   7.853 -0.0965 -0.4310 -0.9403
  144DOPC  H17X17167   1.651   2.730   7.765 -0.7834 -1.9572 -0.9188
  144DOPC  H17Y17168   1.539   2.671   7.894 -0.8421  0.4411  0.0464
  144DOPC  C31817169   1.499   2.880   7.807  0.2352  0.2005 -0.3888
  144DOPC  H18X17170   1.551   2.972   7.772 -0.8175  1.1940  0.5724
  144DOPC  H18Y17171   1.418   2.839   7.743 -1.0019 -1.1454  1.8794
  144DOPC  H18Z17172   1.453   2.921   7.899  1.0642  3.6502 -1.3847
  145DOPC     N17173   3.734   5.732  10.431 -0.5109  0.1698  0.4570
  145DOPC   C1217174   3.720   5.675  10.288 -0.1845  0.2762  0.3405
  145DOPC  H12A17175   3.621   5.635  10.273 -1.3301  1.5881  3.5653
  145DOPC  H12B17176   3.784   5.587  10.286  0.2430  0.5791 -1.6942
  145DOPC   C1317177   3.873   5.787  10.459  0.3547 -0.6751  0.4898
  145DOPC  H13A17178   3.878   5.829  10.558  3.3176 -2.4105  1.2066
  145DOPC  H13B17179   3.935   5.700  10.445  0.2203 -0.5691 -1.0218
  145DOPC  H13C17180   3.902   5.858  10.383  0.4691 -1.4239 -0.1796
  145DOPC   C1417181   3.700   5.624  10.523  0.0099 -0.2652 -0.9890
  145DOPC  H14A17182   3.626   5.564  10.473 -1.1353  1.1771 -1.0657
  145DOPC  H14B17183   3.774   5.553  10.559 -2.7884 -2.1441  1.5644
  145DOPC  H14C17184   3.646   5.655  10.611  1.8290  0.4254 -0.0472
  145DOPC   C1517185   3.631   5.850  10.434 -0.1853  0.7651  0.2371
  145DOPC  H15A17186   3.655   5.924  10.360  1.0587  0.2519  0.0981
  145DOPC  H15B17187   3.627   5.889  10.535 -1.1574  0.2542  0.4103
  145DOPC  H15C17188   3.533   5.810  10.414  0.3161 -0.5912  0.3902
  145DOPC   C1117189   3.765   5.765  10.165  0.0414 -0.4977 -0.5802
  145DOPC  H11A17190   3.865   5.811  10.181  1.3289 -3.1674 -0.3295
  145DOPC  H11B17191   3.781   5.700  10.077  1.7059  3.2734 -3.3376
  145DOPC     P17192   3.525   5.840  10.061 -0.0358 -0.2560  0.1124
  145DOPC   O1317193   3.541   5.877   9.917 -0.6290  0.4398  0.2226
  145DOPC   O1417194   3.416   5.905  10.137 -0.2770 -0.5364 -0.4346
  145DOPC   O1217195   3.663   5.866  10.139 -0.1556  0.5094 -0.2503
  145DOPC   O1117196   3.490   5.692  10.075  0.8496  0.8628 -0.5581
  145DOPC    C117197   3.348   5.639  10.073  0.1618 -0.1847  0.2523
  145DOPC    HA17198   3.268   5.699  10.025 -2.1075 -1.1527  2.5805
  145DOPC    HB17199   3.318   5.613  10.177  0.3310  1.6248  0.7944
  145DOPC    C217200   3.345   5.508   9.979 -0.3001 -0.1370  0.3654
  145DOPC    HS17201   3.411   5.429  10.019  0.6385  1.4440  2.0523
  145DOPC   O2117202   3.379   5.553   9.844 -0.3441  0.0567 -0.3645
  145DOPC   C2117203   3.389   5.461   9.754 -0.2277  0.1325  0.6580
  145DOPC   O2217204   3.393   5.343   9.770 -0.0765 -0.2406  0.2449
  145DOPC   C2217205   3.407   5.541   9.612  0.3242  0.2375 -0.3306
  145DOPC   H2R17206   3.446   5.643   9.632  0.4907  0.2482 -0.7002
  145DOPC   H2S17207   3.303   5.548   9.572  0.7716  2.0511 -1.2952
  145DOPC    C317208   3.200   5.447   9.988 -0.0990  0.5239 -0.9393
  145DOPC    HX17209   3.132   5.529   9.954 -1.8980 -0.4484  0.1694
  145DOPC    HY17210   3.169   5.423  10.092 -0.3759 -0.8208 -1.3216
  145DOPC   O3117211   3.175   5.316   9.926 -0.0412 -0.1653  0.6032
  145DOPC   C3117212   3.101   5.323   9.825  0.2176  0.1182  0.3141
  145DOPC   O3217213   3.051   5.426   9.779 -0.9164  0.1074  0.2002
  145DOPC   C3217214   3.076   5.182   9.775  0.7150  0.9749 -0.0892
  145DOPC   H2X17215   3.166   5.117   9.768  1.2347  1.6560  0.1782
  145DOPC   H2Y17216   3.011   5.131   9.850  2.0850 -3.8653 -1.7759
  145DOPC   C2317217   3.489   5.462   9.507 -0.2132  0.3680 -0.0675
  145DOPC   H3R17218   3.472   5.353   9.514  0.0517  0.4217  2.2996
  145DOPC   H3S17219   3.594   5.488   9.532  1.4422 -1.8983 -3.7883
  145DOPC   C2417220   3.483   5.524   9.370 -0.2516 -0.0511 -0.3632
  145DOPC   H4R17221   3.518   5.629   9.379 -0.0465 -0.2042  0.7140
  145DOPC   H4S17222   3.378   5.537   9.337 -1.6153 -0.2445  3.3720
  145DOPC   C2517223   3.577   5.456   9.271  0.4681  0.3568 -0.4201
  145DOPC   H5R17224   3.540   5.356   9.239 -2.5698  0.6018  1.8893
  145DOPC   H5S17225   3.675   5.429   9.316  0.4111 -0.1171 -0.5699
  145DOPC   C2617226   3.607   5.555   9.160 -0.1582 -0.2099 -0.4615
  145DOPC   H6R17227   3.648   5.644   9.212  2.2609 -0.9604 -0.9212
  145DOPC   H6S17228   3.514   5.592   9.112 -0.3641 -0.4145 -0.2253
  145DOPC   C2717229   3.702   5.484   9.063 -0.1374  0.2616 -0.1959
  145DOPC   H7R17230   3.646   5.435   8.980 -0.5648  1.1245 -0.4394
  145DOPC   H7S17231   3.770   5.414   9.115 -1.1642 -1.1353 -0.6911
  145DOPC   C2817232   3.793   5.572   8.969  0.3766  0.4107 -0.1137
  145DOPC   H8R17233   3.844   5.501   8.901 -1.0308  0.0319 -0.8109
  145DOPC   H8S17234   3.869   5.632   9.023  0.5435  2.5995 -2.5747
  145DOPC   C2917235   3.714   5.673   8.887 -0.2419  0.4354  0.1877
  145DOPC   H9R17236   3.693   5.769   8.936 -0.4222 -0.2156  1.4337
  145DOPC  C21017237   3.665   5.653   8.760  0.6376 -0.2474  0.4833
  145DOPC  H10R17238   3.607   5.732   8.710  2.1094  1.9104  2.0137
  145DOPC  C21117239   3.662   5.527   8.675 -0.8238  0.1948 -0.2591
  145DOPC  H11R17240   3.564   5.514   8.625 -0.8813 -0.3409 -0.0171
  145DOPC  H11S17241   3.684   5.443   8.744 -1.5744 -0.0461 -0.3090
  145DOPC  C21217242   3.778   5.523   8.566  0.5250 -0.6284  0.7790
  145DOPC  H12R17243   3.774   5.426   8.514  0.6547  0.4754 -1.4078
  145DOPC  H12S17244   3.882   5.532   8.606  0.0408  0.1674  1.9240
  145DOPC  C21317245   3.753   5.631   8.455  0.2573  0.4034 -0.9815
  145DOPC  H13R17246   3.754   5.734   8.497 -0.5578  0.4371 -1.0320
  145DOPC  H13S17247   3.658   5.616   8.401  0.1472  1.7757 -1.2111
  145DOPC  C21417248   3.867   5.625   8.355 -0.1315  0.1380  0.1070
  145DOPC  H14R17249   3.888   5.524   8.311 -0.8162  0.3221 -0.6756
  145DOPC  H14S17250   3.955   5.645   8.419 -0.2448 -1.6085  0.8779
  145DOPC  C21517251   3.842   5.727   8.240 -0.1972  0.0333  0.1781
  145DOPC  H15R17252   3.818   5.830   8.274  1.7877  0.5380  0.1766
  145DOPC  H15S17253   3.755   5.688   8.184  0.9806 -0.3144 -1.4983
  145DOPC  C21617254   3.963   5.721   8.139 -0.0279  0.5573 -0.3977
  145DOPC  H16R17255   3.988   5.615   8.117 -3.4204 -0.4393  0.0554
  145DOPC  H16S17256   4.046   5.780   8.185 -0.9911  1.1185  0.6700
  145DOPC  C21717257   3.918   5.789   8.002  0.2278 -0.1756 -0.5616
  145DOPC  H17R17258   3.841   5.866   8.024  0.6953  0.4426 -1.0344
  145DOPC  H17S17259   3.854   5.709   7.960 -1.7393  0.2449  1.4283
  145DOPC  C21817260   4.025   5.844   7.912 -0.4717  0.5276 -0.2938
  145DOPC  H18R17261   4.098   5.907   7.968  0.0395 -0.6371  0.3716
  145DOPC  H18S17262   3.988   5.915   7.835  0.3012  1.5753  0.2677
  145DOPC  H18T17263   4.087   5.766   7.863  2.6304  1.6824  1.4973
  145DOPC   C3317264   2.999   5.184   9.639 -0.0198  0.2538  0.3873
  145DOPC   H3X17265   2.900   5.224   9.667 -0.5649 -1.1921  0.5757
  145DOPC   H3Y17266   2.966   5.082   9.611 -0.1275  1.2727 -3.9550
  145DOPC   C3417267   3.065   5.253   9.513 -0.1272 -0.6457  0.2867
  145DOPC   H4X17268   3.079   5.363   9.527 -0.6370 -0.1783 -2.3575
  145DOPC   H4Y17269   2.986   5.253   9.436 -0.6497 -0.3731  0.8074
  145DOPC   C3517270   3.197   5.191   9.484 -0.1733  0.3784  0.2912
  145DOPC   H5X17271   3.186   5.080   9.477 -0.9080  0.5029 -0.7132
  145DOPC   H5Y17272   3.267   5.203   9.569  2.3871 -0.9351 -1.4874
  145DOPC   C3617273   3.266   5.239   9.358 -0.3116  1.0302 -0.5724
  145DOPC   H6X17274   3.271   5.350   9.357  4.0918  1.0838 -4.5168
  145DOPC   H6Y17275   3.370   5.202   9.350 -1.0696 -1.2476 -0.3906
  145DOPC   C3717276   3.192   5.204   9.230  0.0819 -0.3520 -0.5176
  145DOPC   H7X17277   3.207   5.095   9.217  0.1655 -0.1953 -1.9558
  145DOPC   H7Y17278   3.084   5.227   9.244  0.2636  0.8152 -0.9418
  145DOPC   C3817279   3.244   5.275   9.104  0.3690  0.4985  0.0626
  145DOPC   H8X17280   3.333   5.216   9.072 -1.1910 -2.5378  0.9479
  145DOPC   H8Y17281   3.276   5.378   9.128  3.9174 -0.2118 -0.9662
  145DOPC   C3917282   3.142   5.282   8.995  0.1630 -0.0636  0.0519
  145DOPC   H9X17283   3.046   5.315   9.038 -0.1698 -0.1637 -0.6022
  145DOPC  C31017284   3.145   5.236   8.865  0.5707  0.2759  0.0072
  145DOPC  H10X17285   3.064   5.274   8.801  1.0684 -0.1660 -0.9015
  145DOPC  C31117286   3.255   5.166   8.798 -0.2942  0.3889 -0.3862
  145DOPC  H11X17287   3.213   5.071   8.757 -2.2318  1.5049 -1.1292
  145DOPC  H11Y17288   3.333   5.131   8.869  0.0615 -0.3174 -1.0895
  145DOPC  C31217289   3.337   5.234   8.687  0.4361  0.8275 -0.0885
  145DOPC  H12X17290   3.435   5.185   8.672 -0.2042 -0.3430 -0.6553
  145DOPC  H12Y17291   3.357   5.335   8.727  0.7592 -0.0393  2.0598
  145DOPC  C31317292   3.258   5.254   8.553 -0.2239 -0.1868 -0.2909
  145DOPC  H13X17293   3.194   5.165   8.537 -0.1504 -0.4307  0.6663
  145DOPC  H13Y17294   3.182   5.334   8.566 -1.3849 -1.0675 -1.4752
  145DOPC  C31417295   3.353   5.271   8.430  0.3966  0.2511  0.3807
  145DOPC  H14X17296   3.421   5.355   8.455 -0.5247  0.6811  1.5301
  145DOPC  H14Y17297   3.405   5.174   8.426 -2.2124 -1.2117 -1.1623
  145DOPC  C31517298   3.284   5.309   8.300  0.0426  0.4432  0.2196
  145DOPC  H15X17299   3.252   5.415   8.306  2.7970  1.3189  1.3751
  145DOPC  H15Y17300   3.194   5.245   8.290  0.8109 -1.0731  2.2030
  145DOPC  C31617301   3.388   5.290   8.181 -0.6905  0.2137  0.3484
  145DOPC  H16X17302   3.474   5.347   8.221  0.9512 -2.2790  0.6273
  145DOPC  H16Y17303   3.416   5.182   8.177  1.0532  0.5755  1.6934
  145DOPC  C31717304   3.349   5.338   8.043 -0.3652  0.4865  0.2172
  145DOPC  H17X17305   3.301   5.436   8.060 -3.4414 -0.7823 -0.5151
  145DOPC  H17Y17306   3.440   5.359   7.982 -0.9943  3.0346  0.0442
  145DOPC  C31817307   3.265   5.233   7.961 -0.5981 -0.0660  0.4870
  145DOPC  H18X17308   3.239   5.282   7.865 -1.3610  2.3691  1.8706
  145DOPC  H18Y17309   3.333   5.147   7.943  0.7050  0.1248  3.7103
  145DOPC  H18Z17310   3.175   5.208   8.021  0.5937 -1.0493  1.9518
  146DOPC     N17311   4.074   2.676  10.098 -0.1308  0.0358 -0.1400
  146DOPC   C1217312   4.082   2.816  10.168 -0.6767 -1.0475 -0.5952
  146DOPC  H12A17313   4.077   2.808  10.276  1.8801  4.6898  0.3037
  146DOPC  H12B17314   4.016   2.885  10.119  1.7568 -0.8714 -3.9884
  146DOPC   C1317315   3.941   2.628  10.134 -0.3463 -0.2684  0.1112
  146DOPC  H13A17316   3.869   2.708  10.143  2.6154  2.4067  1.5079
  146DOPC  H13B17317   3.904   2.544  10.076 -0.9538 -0.9184  1.3973
  146DOPC  H13C17318   3.944   2.587  10.234 -0.7987 -0.1699  0.1664
  146DOPC   C1417319   4.173   2.573  10.142 -0.1814 -0.0391  0.2491
  146DOPC  H14A17320   4.273   2.610  10.125  0.0715 -0.6348  0.4350
  146DOPC  H14B17321   4.159   2.550  10.247 -0.4411 -1.4556 -0.0811
  146DOPC  H14C17322   4.163   2.483  10.084  1.4590 -0.3098  0.3524
  146DOPC   C1517323   4.086   2.685   9.946 -0.0407  0.4252 -0.3692
  146DOPC  H15A17324   4.007   2.749   9.909  0.9898  1.5978 -0.6151
  146DOPC  H15B17325   4.065   2.590   9.900 -2.1306  1.4476 -1.6835
  146DOPC  H15C17326   4.183   2.727   9.922 -0.1990  2.3298  1.9268
  146DOPC   C1117327   4.225   2.883  10.171  0.8055  0.0934 -0.1220
  146DOPC  H11A17328   4.215   2.973  10.236 -2.1291  1.6822 -2.5207
  146DOPC  H11B17329   4.286   2.804  10.220 -0.4829 -0.2501  1.0045
  146DOPC     P17330   4.427   2.912  10.016 -0.0300  0.0592 -0.0596
  146DOPC   O1317331   4.484   2.806  10.102  1.1705 -0.1695  0.5120
  146DOPC   O1417332   4.487   3.049  10.014 -0.6558  0.4398 -0.7088
  146DOPC   O1217333   4.269   2.918  10.042 -1.2917 -0.2400 -0.3690
  146DOPC   O1117334   4.449   2.852   9.867  0.7605  0.2957  0.5073
  146DOPC    C117335   4.389   2.926   9.753 -0.7584  0.1587 -0.5256
  146DOPC    HA17336   4.467   2.950   9.677 -1.7484  1.0662 -1.2893
  146DOPC    HB17337   4.352   3.026   9.782 -0.0337  0.1514  0.4578
  146DOPC    C217338   4.292   2.838   9.674  0.7325 -0.6248 -0.4865
  146DOPC    HS17339   4.204   2.815   9.738 -0.1377 -2.6527 -2.2849
  146DOPC   O2117340   4.361   2.717   9.638 -0.5700  0.2329  0.2008
  146DOPC   C2117341   4.291   2.606   9.621  0.6886 -0.3393 -0.0503
  146DOPC   O2217342   4.172   2.594   9.627 -0.0761 -0.9398 -0.3385
  146DOPC   C2217343   4.388   2.494   9.607 -0.7800 -1.0014  0.1002
  146DOPC   H2R17344   4.417   2.458   9.708 -3.3529  1.0445  1.6671
  146DOPC   H2S17345   4.480   2.524   9.552 -1.0055  2.5782  1.4344
  146DOPC    C317346   4.236   2.913   9.548  0.7693 -0.2856  0.5591
  146DOPC    HX17347   4.325   2.925   9.483  1.7169 -0.3625  1.7823
  146DOPC    HY17348   4.186   3.002   9.591 -0.2322 -1.6232  2.3042
  146DOPC   O3117349   4.133   2.836   9.481 -0.6541 -0.0786  0.1776
  146DOPC   C3117350   4.015   2.823   9.529 -0.2219  0.0460  0.0367
  146DOPC   O3217351   3.970   2.883   9.627  0.4138  0.2262 -0.0767
  146DOPC   C3217352   3.937   2.734   9.432  0.0272  1.2091 -0.1113
  146DOPC   H2X17353   3.971   2.628   9.440  1.5551  1.7356  1.0448
  146DOPC   H2Y17354   3.835   2.742   9.473 -1.2581  0.3449 -2.8900
  146DOPC   C2317355   4.323   2.375   9.542  0.0126 -0.2637  0.2933
  146DOPC   H3R17356   4.235   2.338   9.599 -0.7634 -0.5765 -1.0448
  146DOPC   H3S17357   4.399   2.294   9.534  0.0243 -0.3055  0.7770
  146DOPC   C2417358   4.268   2.405   9.399 -0.6183 -0.0843 -0.5146
  146DOPC   H4R17359   4.175   2.462   9.422 -1.7385 -2.3437  0.9586
  146DOPC   H4S17360   4.232   2.304   9.369  0.0435 -0.2997 -0.5892
  146DOPC   C2517361   4.378   2.463   9.304 -0.3803 -0.1242  0.2451
  146DOPC   H5R17362   4.467   2.396   9.308  0.6679  1.1358 -1.0531
  146DOPC   H5S17363   4.416   2.561   9.339  2.6282 -0.5503 -1.5132
  146DOPC   C2617364   4.334   2.482   9.155 -0.2357  0.6674  0.0441
  146DOPC   H6R17365   4.244   2.547   9.160 -0.6279  0.0570  1.4302
  146DOPC   H6S17366   4.290   2.392   9.106 -1.1859  1.0671  0.1373
  146DOPC   C2717367   4.445   2.540   9.060  0.3759  0.1608 -0.3191
  146DOPC   H7R17368   4.538   2.496   9.100 -0.8401  0.5021  3.2089
  146DOPC   H7S17369   4.448   2.651   9.074 -0.5736  0.3893 -1.6604
  146DOPC   C2817370   4.424   2.498   8.914  1.1504  0.2367  0.1904
  146DOPC   H8R17371   4.432   2.387   8.909 -1.7457 -0.0234 -0.9335
  146DOPC   H8S17372   4.503   2.549   8.856 -0.8336  1.8622 -1.2398
  146DOPC   C2917373   4.298   2.552   8.853  0.4513  0.0086 -0.2765
  146DOPC   H9R17374   4.238   2.619   8.917 -0.4902 -0.9452 -0.1154
  146DOPC  C21017375   4.255   2.536   8.726 -0.4314  0.2011  0.3210
  146DOPC  H10R17376   4.162   2.582   8.691  1.3906  5.0516  1.0735
  146DOPC  C21117377   4.326   2.462   8.613 -0.6653 -0.4125 -0.0648
  146DOPC  H11R17378   4.266   2.378   8.572 -0.8828  0.9967 -2.8742
  146DOPC  H11S17379   4.427   2.432   8.646 -0.6104  1.1980  1.3467
  146DOPC  C21217380   4.348   2.549   8.485 -0.1885  0.2256  0.1702
  146DOPC  H12R17381   4.421   2.499   8.418  0.5488 -0.3401  1.3686
  146DOPC  H12S17382   4.402   2.642   8.515 -0.7900  1.0785 -1.2606
  146DOPC  C21317383   4.220   2.563   8.411  0.3445 -0.0755 -0.0956
  146DOPC  H13R17384   4.140   2.605   8.476 -0.8829 -0.8716 -1.0626
  146DOPC  H13S17385   4.165   2.467   8.394 -1.7345  0.7942  1.2487
  146DOPC  C21417386   4.230   2.632   8.280 -0.3462  0.2046  0.1348
  146DOPC  H14R17387   4.293   2.723   8.277 -2.4222  1.7459  0.4755
  146DOPC  H14S17388   4.126   2.670   8.267  0.0872  0.9793 -1.3964
  146DOPC  C21517389   4.276   2.543   8.160 -0.2441 -0.1934  0.1770
  146DOPC  H15R17390   4.205   2.459   8.143  0.1675 -0.2527 -1.3741
  146DOPC  H15S17391   4.382   2.511   8.167  0.1176  1.1245  1.2181
  146DOPC  C21617392   4.260   2.626   8.031  0.4174  0.1783  0.4820
  146DOPC  H16R17393   4.313   2.723   8.026  3.2978 -1.3180 -0.0775
  146DOPC  H16S17394   4.154   2.659   8.022  0.1707 -0.8514 -0.7691
  146DOPC  C21717395   4.297   2.541   7.910  0.1893  0.0298  0.1379
  146DOPC  H17R17396   4.236   2.449   7.903 -0.3441  0.3716  0.2681
  146DOPC  H17S17397   4.404   2.509   7.910  0.8233  2.0099  0.4009
  146DOPC  C21817398   4.270   2.603   7.779 -0.0379 -0.4197  0.0678
  146DOPC  H18R17399   4.322   2.701   7.775  0.4174 -0.6350  0.5389
  146DOPC  H18S17400   4.162   2.618   7.758  0.3381 -0.5709 -2.2047
  146DOPC  H18T17401   4.304   2.538   7.696 -1.3993 -0.1953 -0.6904
  146DOPC   C3317402   3.949   2.779   9.286 -0.2009 -0.3742  0.6497
  146DOPC   H3X17403   4.049   2.763   9.241 -0.5307  0.3236 -0.3803
  146DOPC   H3Y17404   3.920   2.884   9.264  0.3623 -0.1595  0.9168
  146DOPC   C3417405   3.852   2.687   9.206  0.1003  0.1104  0.4457
  146DOPC   H4X17406   3.758   2.681   9.264  1.1020 -1.8428  1.9767
  146DOPC   H4Y17407   3.896   2.585   9.201  1.1598  0.6137 -1.5547
  146DOPC   C3517408   3.844   2.743   9.066  0.1622 -0.2716  0.5159
  146DOPC   H5X17409   3.945   2.744   9.020 -0.7289  0.2604 -1.5438
  146DOPC   H5Y17410   3.801   2.846   9.057 -0.8769 -0.8159 -1.4156
  146DOPC   C3617411   3.749   2.658   8.984  0.7410 -0.2048  0.0353
  146DOPC   H6X17412   3.783   2.552   8.996 -1.0918 -0.6447  1.9395
  146DOPC   H6Y17413   3.643   2.663   9.014  0.5452  0.3558 -0.7151
  146DOPC   C3717414   3.754   2.690   8.836 -0.1807  0.0843  0.3220
  146DOPC   H7X17415   3.731   2.799   8.826  0.2395  0.1128 -0.3993
  146DOPC   H7Y17416   3.860   2.666   8.814  0.1616 -0.1237  2.0395
  146DOPC   C3817417   3.659   2.597   8.762 -0.5613 -0.0982  0.3150
  146DOPC   H8X17418   3.680   2.494   8.798 -1.0414 -0.0910  0.6276
  146DOPC   H8Y17419   3.692   2.604   8.656  1.0398 -1.1942  0.7009
  146DOPC   C3917420   3.515   2.635   8.769 -0.0094  0.2361 -0.1100
  146DOPC   H9X17421   3.494   2.731   8.720  3.4245  0.0260 -2.3273
  146DOPC  C31017422   3.411   2.566   8.818  0.3937  0.1153 -0.0302
  146DOPC  H10X17423   3.309   2.604   8.808 -0.2994 -1.4788  0.7164
  146DOPC  C31117424   3.421   2.439   8.897 -0.1271  0.0011  0.0035
  146DOPC  H11X17425   3.524   2.403   8.914 -0.2967 -0.9197 -0.8099
  146DOPC  H11Y17426   3.379   2.355   8.836  0.0797  0.5697 -0.9423
  146DOPC  C31217427   3.356   2.447   9.039  0.1077  0.7131 -0.1190
  146DOPC  H12X17428   3.344   2.342   9.072  2.0217  0.6923  0.6253
  146DOPC  H12Y17429   3.253   2.487   9.027 -1.2466 -2.7004 -0.9384
  146DOPC  C31317430   3.438   2.520   9.144  0.0433 -0.1656  1.0304
  146DOPC  H13X17431   3.545   2.489   9.146  0.0236 -0.6072 -1.6782
  146DOPC  H13Y17432   3.434   2.622   9.103 -3.4182  0.2858  2.1567
  146DOPC  C31417433   3.378   2.506   9.283  0.6537  0.2992 -0.1736
  146DOPC  H14X17434   3.410   2.595   9.341 -0.9091  1.5780 -1.2041
  146DOPC  H14Y17435   3.268   2.510   9.270  0.6639  0.0486 -0.3439
  146DOPC  C31517436   3.424   2.386   9.369  0.0247  0.5140 -0.1761
  146DOPC  H15X17437   3.535   2.380   9.365  0.0403 -1.0515  1.2881
  146DOPC  H15Y17438   3.386   2.288   9.334  0.1515  1.0203 -1.8190
  146DOPC  C31617439   3.378   2.404   9.515  0.4036  0.1706  0.0777
  146DOPC  H16X17440   3.390   2.513   9.534 -1.0013  0.7116 -1.8333
  146DOPC  H16Y17441   3.273   2.387   9.545  0.4698  1.3787  1.0684
  146DOPC  C31717442   3.464   2.322   9.613 -0.7577  0.3283  0.1711
  146DOPC  H17X17443   3.472   2.217   9.576  0.1279  1.0638 -1.8391
  146DOPC  H17Y17444   3.570   2.353   9.595 -0.4116 -0.1835  1.2506
  146DOPC  C31817445   3.427   2.322   9.765 -0.2646 -0.0250  0.0744
  146DOPC  H18X17446   3.515   2.288   9.823  0.3857 -0.1416 -0.9619
  146DOPC  H18Y17447   3.404   2.426   9.799  1.8934  0.4418  0.2436
  146DOPC  H18Z17448   3.348   2.247   9.783  0.4460 -0.7732  0.1330
  147DOPC     N17449   1.490   2.132   9.767 -0.1882 -1.0980  0.0304
  147DOPC   C1217450   1.444   2.278   9.752 -0.0295 -0.4647 -0.4731
  147DOPC  H12A17451   1.410   2.312   9.849  0.7825 -0.0097 -0.3376
  147DOPC  H12B17452   1.358   2.275   9.687 -0.1366  0.4464 -0.3928
  147DOPC   C1317453   1.592   2.123   9.877 -0.4920 -0.0801  0.6086
  147DOPC  H13A17454   1.624   2.021   9.883 -0.6002 -0.2166 -0.9403
  147DOPC  H13B17455   1.674   2.192   9.863 -2.2171  2.0386  0.2659
  147DOPC  H13C17456   1.546   2.155   9.970 -0.7682 -1.8891  1.1316
  147DOPC   C1417457   1.541   2.085   9.636 -0.2213  0.5744  0.0941
  147DOPC  H14A17458   1.504   1.985   9.623 -0.6526  0.7906 -0.3535
  147DOPC  H14B17459   1.510   2.151   9.556  0.9506  2.2846  0.9729
  147DOPC  H14C17460   1.645   2.099   9.607 -0.7518  0.1042 -2.2125
  147DOPC   C1517461   1.366   2.056   9.805 -0.1380  0.7803  0.1415
  147DOPC  H15A17462   1.393   1.956   9.836  1.2494  1.1495  0.2235
  147DOPC  H15B17463   1.302   2.045   9.719  1.8572 -1.4030 -1.1985
  147DOPC  H15C17464   1.315   2.103   9.887  0.2727  0.4746  0.5738
  147DOPC   C1117465   1.541   2.385   9.710 -0.2235  0.2871 -0.5157
  147DOPC  H11A17466   1.585   2.353   9.613  2.7952 -0.7684  1.0808
  147DOPC  H11B17467   1.494   2.484   9.693  1.6513  1.7384  2.1790
  147DOPC     P17468   1.668   2.483   9.915  0.5673  0.0677  0.2073
  147DOPC   O1317469   1.789   2.454   9.991 -0.4133 -0.0388  0.3554
  147DOPC   O1417470   1.544   2.457   9.991  0.0572 -0.0932  0.1530
  147DOPC   O1217471   1.661   2.387   9.788 -0.0382 -0.3632  0.4069
  147DOPC   O1117472   1.663   2.631   9.861 -0.7103  0.4079 -0.2284
  147DOPC    C117473   1.778   2.683   9.786  0.7375  0.0424 -0.4503
  147DOPC    HA17474   1.868   2.618   9.791 -0.9645 -2.4488 -0.5832
  147DOPC    HB17475   1.792   2.789   9.817 -0.7127  0.4574 -1.1470
  147DOPC    C217476   1.747   2.715   9.631 -0.9373  0.3720  0.5275
  147DOPC    HS17477   1.820   2.792   9.596 -1.2860  1.1934  1.5381
  147DOPC   O2117478   1.614   2.763   9.619  0.0840  0.3347 -0.5518
  147DOPC   C2117479   1.585   2.834   9.516  0.1385 -0.2946  0.3105
  147DOPC   O2217480   1.662   2.868   9.428  0.3208 -0.6143  0.1765
  147DOPC   C2217481   1.429   2.841   9.504  0.2933  0.1936 -0.0332
  147DOPC   H2R17482   1.401   2.940   9.545  1.7696 -0.3678  2.5719
  147DOPC   H2S17483   1.392   2.754   9.563  0.9024 -1.0581 -1.4092
  147DOPC    C317484   1.771   2.594   9.543  0.4272 -0.3499 -0.2634
  147DOPC    HX17485   1.674   2.542   9.534  0.4578 -0.5023  0.2834
  147DOPC    HY17486   1.835   2.514   9.587 -0.4860 -0.5968  0.6429
  147DOPC   O3117487   1.812   2.640   9.412 -0.2523  0.0282 -0.5745
  147DOPC   C3117488   1.750   2.594   9.309 -0.5068  0.3086 -0.0709
  147DOPC   O3217489   1.671   2.503   9.303  0.4617  0.8695  0.4848
  147DOPC   C3217490   1.790   2.685   9.194  0.0575  0.1835  0.5361
  147DOPC   H2X17491   1.760   2.791   9.212 -1.4459 -0.0746 -0.2751
  147DOPC   H2Y17492   1.900   2.675   9.195  0.1233  0.8066  0.4493
  147DOPC   C2317493   1.367   2.833   9.361 -0.9067  0.1368  0.5321
  147DOPC   H3R17494   1.411   2.909   9.293 -0.1519  0.2118  1.0940
  147DOPC   H3S17495   1.257   2.832   9.368 -0.8853 -0.3641  0.8341
  147DOPC   C2417496   1.400   2.693   9.308 -0.2671 -0.1645  0.4253
  147DOPC   H4R17497   1.334   2.620   9.360 -1.9491 -0.4112 -1.8731
  147DOPC   H4S17498   1.509   2.675   9.313 -0.3103 -0.2869  0.9541
  147DOPC   C2517499   1.361   2.688   9.163  0.4380 -0.5431 -0.2161
  147DOPC   H5R17500   1.430   2.754   9.104  0.4617  0.2635  0.6948
  147DOPC   H5S17501   1.253   2.713   9.153  0.4107 -1.2154 -2.1739
  147DOPC   C2617502   1.379   2.549   9.099 -0.1158 -0.0358  0.0028
  147DOPC   H6R17503   1.435   2.491   9.175  0.0479  1.3439  0.9810
  147DOPC   H6S17504   1.437   2.544   9.005  0.3152 -1.5424  0.3258
  147DOPC   C2717505   1.244   2.480   9.065 -0.0055  0.5045 -0.2550
  147DOPC   H7R17506   1.193   2.544   8.989  0.5993  1.1148 -0.1537
  147DOPC   H7S17507   1.182   2.478   9.157 -0.6292  1.6683 -0.6367
  147DOPC   C2817508   1.266   2.340   9.014  0.0485 -0.7726  0.9090
  147DOPC   H8R17509   1.319   2.273   9.086  1.6121  0.5815  1.0885
  147DOPC   H8S17510   1.327   2.338   8.921 -0.7129 -0.6227  0.4065
  147DOPC   C2917511   1.136   2.275   8.996 -0.0620  0.0486  0.1462
  147DOPC   H9R17512   1.088   2.253   9.093  0.7720 -0.5718  0.4328
  147DOPC  C21017513   1.074   2.252   8.887  0.2044  0.1425  0.3424
  147DOPC  H10R17514   0.990   2.182   8.901  2.1211 -2.3464  0.0403
  147DOPC  C21117515   1.106   2.280   8.742 -0.1658  0.3311  0.5470
  147DOPC  H11R17516   1.189   2.354   8.740 -1.1034  1.5549 -3.5066
  147DOPC  H11S17517   1.027   2.336   8.688 -0.7903 -0.8420  0.2176
  147DOPC  C21217518   1.145   2.159   8.651 -0.9477 -0.1323 -0.0448
  147DOPC  H12R17519   1.079   2.071   8.663 -0.1850 -0.7246 -0.1210
  147DOPC  H12S17520   1.248   2.130   8.681 -0.6517 -1.8857 -2.4527
  147DOPC  C21317521   1.152   2.202   8.506  0.0703  0.2898  0.2404
  147DOPC  H13R17522   1.225   2.284   8.485 -1.3548  1.1695 -1.6286
  147DOPC  H13S17523   1.053   2.242   8.476 -0.9172 -1.7780  0.5663
  147DOPC  C21417524   1.177   2.083   8.410  0.5556 -0.0962  0.0383
  147DOPC  H14R17525   1.087   2.019   8.424  0.3453  0.1618 -0.1288
  147DOPC  H14S17526   1.271   2.027   8.429  0.6133  0.3172  1.0601
  147DOPC  C21517527   1.179   2.140   8.262 -0.2233  0.8748 -0.0171
  147DOPC  H15R17528   1.268   2.207   8.263  0.5455  0.0077  3.2153
  147DOPC  H15S17529   1.084   2.195   8.248 -1.0983 -0.6093 -0.0508
  147DOPC  C21617530   1.178   2.034   8.152 -0.2412  0.9486  0.3284
  147DOPC  H16R17531   1.080   1.983   8.140 -0.4888  1.6166 -0.6157
  147DOPC  H16S17532   1.252   1.952   8.158 -1.9615 -0.8248 -1.2918
  147DOPC  C21717533   1.212   2.100   8.012  0.2204  0.3794  0.4891
  147DOPC  H17R17534   1.318   2.130   8.018 -0.2504  2.0798  0.9111
  147DOPC  H17S17535   1.161   2.199   8.007  2.1881  1.4842  1.3816
  147DOPC  C21817536   1.198   2.015   7.881  0.6036  0.5178  0.7046
  147DOPC  H18R17537   1.093   2.012   7.843  1.0477 -1.5176 -0.5517
  147DOPC  H18S17538   1.220   1.908   7.903 -0.5157 -0.2002 -1.2940
  147DOPC  H18T17539   1.259   2.067   7.804 -1.1739  2.4564  0.5085
  147DOPC   C3317540   1.729   2.634   9.059 -0.1723 -0.6121  0.1388
  147DOPC   H3X17541   1.622   2.658   9.048  0.1208  0.5491 -0.3053
  147DOPC   H3Y17542   1.741   2.523   9.054  0.0591 -0.5542 -0.7091
  147DOPC   C3417543   1.797   2.698   8.936 -0.1092 -0.7196 -0.2332
  147DOPC   H4X17544   1.893   2.648   8.910 -0.3126 -0.3955 -1.7142
  147DOPC   H4Y17545   1.821   2.805   8.951 -0.2007 -0.6680 -0.4498
  147DOPC   C3517546   1.699   2.701   8.812  0.5886  0.6994  0.3852
  147DOPC   H5X17547   1.601   2.751   8.830  0.5849  1.2319 -1.0472
  147DOPC   H5Y17548   1.691   2.596   8.778 -2.4568  1.2743 -0.9857
  147DOPC   C3617549   1.757   2.792   8.705 -0.5603 -0.0888 -0.1490
  147DOPC   H6X17550   1.772   2.889   8.757  2.4646  0.0285 -1.0544
  147DOPC   H6Y17551   1.858   2.765   8.668  0.6026  2.6609  0.7495
  147DOPC   C3717552   1.671   2.817   8.576  0.3667  0.0051 -0.1110
  147DOPC   H7X17553   1.569   2.851   8.602 -0.9226 -2.2663 -1.8514
  147DOPC   H7Y17554   1.726   2.893   8.517  1.6039 -1.4060 -0.8425
  147DOPC   C3817555   1.639   2.685   8.492  0.8194 -0.6766  0.0264
  147DOPC   H8X17556   1.581   2.624   8.565  0.9849 -0.6876  0.1499
  147DOPC   H8Y17557   1.733   2.628   8.475  0.9779 -0.5557  0.4866
  147DOPC   C3917558   1.576   2.727   8.361  0.1007  0.1081 -0.4653
  147DOPC   H9X17559   1.643   2.785   8.295 -0.3566 -1.6253 -2.5898
  147DOPC  C31017560   1.447   2.717   8.331  0.3840 -0.0500 -0.2076
  147DOPC  H10X17561   1.429   2.756   8.230  3.0666 -0.6030 -0.9909
  147DOPC  C31117562   1.347   2.633   8.410 -0.2187  0.0924 -0.1668
  147DOPC  H11X17563   1.276   2.702   8.459  1.2141  0.5151  1.4130
  147DOPC  H11Y17564   1.394   2.592   8.502 -0.4725  2.3837  1.0643
  147DOPC  C31217565   1.287   2.518   8.331 -0.2899  1.1152  0.1514
  147DOPC  H12X17566   1.209   2.484   8.403 -0.0480  0.4901  0.1239
  147DOPC  H12Y17567   1.358   2.436   8.310 -1.4167  0.1899 -0.1954
  147DOPC  C31317568   1.215   2.565   8.204 -0.4084  0.4000 -0.7914
  147DOPC  H13X17569   1.115   2.517   8.206 -1.4459  2.4454  1.5140
  147DOPC  H13Y17570   1.204   2.675   8.208  1.1405  0.5507  0.0437
  147DOPC  C31417571   1.293   2.528   8.079 -0.3467  0.3864  0.3150
  147DOPC  H14X17572   1.387   2.587   8.082  0.3655 -0.6309 -0.9015
  147DOPC  H14Y17573   1.316   2.420   8.065 -1.2623  0.4844 -2.6949
  147DOPC  C31517574   1.215   2.569   7.949 -0.5774 -0.1715 -0.6868
  147DOPC  H15X17575   1.272   2.658   7.914 -1.9267  0.5305 -1.1996
  147DOPC  H15Y17576   1.118   2.619   7.972 -0.6837  0.3057 -2.0573
  147DOPC  C31617577   1.208   2.460   7.846 -0.1808 -0.3834  0.2262
  147DOPC  H16X17578   1.296   2.395   7.865  0.2525  0.2108  0.2777
  147DOPC  H16Y17579   1.114   2.400   7.848  0.1143 -0.9868 -1.7612
  147DOPC  C31717580   1.215   2.517   7.699 -0.2027  0.4082  0.1413
  147DOPC  H17X17581   1.134   2.591   7.684 -0.9918 -0.4273  0.1742
  147DOPC  H17Y17582   1.304   2.582   7.687  0.5266 -0.7171 -0.7328
  147DOPC  C31817583   1.208   2.406   7.596  0.3229  0.6594 -0.2481
  147DOPC  H18X17584   1.219   2.443   7.492  0.7380  0.0703 -0.4140
  147DOPC  H18Y17585   1.285   2.328   7.607  0.7737  1.2803  1.4538
  147DOPC  H18Z17586   1.108   2.358   7.601  0.8017 -0.4988 -1.5119
  148DOPC     N17587   2.543   4.474  10.003  0.4001  0.3636  0.7895
  148DOPC   C1217588   2.661   4.561  10.034  0.1227 -0.0065 -0.0028
  148DOPC  H12A17589   2.738   4.543   9.960 -1.3349  1.0985 -1.8955
  148DOPC  H12B17590   2.687   4.532  10.134  0.2080  1.5549  0.4491
  148DOPC   C1317591   2.446   4.476  10.116 -0.3468 -0.1216 -0.0548
  148DOPC  H13A17592   2.378   4.558  10.100 -0.8805 -0.5687 -0.0753
  148DOPC  H13B17593   2.378   4.393  10.115 -2.7668  1.7348  0.4976
  148DOPC  H13C17594   2.490   4.497  10.213  0.5744 -0.1474 -0.4524
  148DOPC   C1417595   2.586   4.328   9.983 -0.1302 -0.2350  0.2184
  148DOPC  H14A17596   2.498   4.267   9.997  0.3398 -0.4226  3.0127
  148DOPC  H14B17597   2.634   4.313   9.887 -1.0821 -1.3930 -0.0924
  148DOPC  H14C17598   2.660   4.309  10.059  2.5238  0.3050 -2.0699
  148DOPC   C1517599   2.460   4.511   9.876 -0.4501 -0.2893 -0.3777
  148DOPC  H15A17600   2.373   4.449   9.865 -0.3891 -0.8806  1.9707
  148DOPC  H15B17601   2.522   4.480   9.793 -0.5853 -0.5089 -0.3955
  148DOPC  H15C17602   2.444   4.618   9.875  0.6504  0.0236  3.3047
  148DOPC   C1117603   2.649   4.716  10.034  0.5755 -0.0086 -0.8041
  148DOPC  H11A17604   2.747   4.763  10.054 -0.2402  1.7614 -0.6993
  148DOPC  H11B17605   2.610   4.745   9.934 -0.8039  2.0764  0.2485
  148DOPC     P17606   2.471   4.895  10.121  0.1554 -0.1603  0.1367
  148DOPC   O1317607   2.463   4.958  10.255 -0.0675  0.1839  0.2593
  148DOPC   O1417608   2.339   4.865  10.065  0.7082  0.4114  0.9758
  148DOPC   O1217609   2.555   4.762  10.131  0.1216 -0.6273 -0.4458
  148DOPC   O1117610   2.555   4.986  10.032 -0.0187  0.2358  0.1655
  148DOPC    C117611   2.488   5.067   9.931  0.0953  0.0524 -0.0361
  148DOPC    HA17612   2.553   5.149   9.893 -2.1328  1.6945 -0.4919
  148DOPC    HB17613   2.395   5.119   9.964 -0.1132  0.2669 -0.9392
  148DOPC    C217614   2.459   4.988   9.796  0.0511  0.0690 -0.1590
  148DOPC    HS17615   2.401   4.898   9.823 -0.3641  0.5670  0.6588
  148DOPC   O2117616   2.589   4.957   9.746 -0.4417 -0.2221  0.0398
  148DOPC   C2117617   2.600   4.854   9.662  0.0927 -0.1247  0.4043
  148DOPC   O2217618   2.507   4.781   9.627 -0.2873 -0.4411  0.1723
  148DOPC   C2217619   2.748   4.831   9.627  0.3000 -0.0197  0.0121
  148DOPC   H2R17620   2.780   4.749   9.695  1.9024  2.5215  2.5712
  148DOPC   H2S17621   2.800   4.928   9.641 -0.9790  0.6920 -0.0054
  148DOPC    C317622   2.382   5.084   9.696 -0.1210  0.4737 -0.0013
  148DOPC    HX17623   2.445   5.174   9.678 -0.2811  0.8489  1.2225
  148DOPC    HY17624   2.296   5.122   9.755  0.8455  3.0050 -0.0960
  148DOPC   O3117625   2.328   5.015   9.576  0.1340  0.4213  0.2055
  148DOPC   C3117626   2.271   5.091   9.488 -0.0493 -0.0526  0.1281
  148DOPC   O3217627   2.258   5.211   9.496  0.6472 -0.3976  0.2809
  148DOPC   C3217628   2.242   5.003   9.368 -0.3597  0.3495 -0.3407
  148DOPC   H2X17629   2.213   4.898   9.390  0.7379  0.2060  0.5081
  148DOPC   H2Y17630   2.150   5.048   9.324 -1.0130 -0.1835  0.4569
  148DOPC   C2317631   2.759   4.782   9.483  0.9591  0.1430  1.0401
  148DOPC   H3R17632   2.688   4.702   9.455  0.0389  1.4949 -0.6570
  148DOPC   H3S17633   2.864   4.748   9.474  1.2431  1.3890 -0.8605
  148DOPC   C2417634   2.749   4.896   9.382 -0.1468  0.3406 -1.2408
  148DOPC   H4R17635   2.829   4.968   9.407 -1.4908  0.8615  1.9511
  148DOPC   H4S17636   2.652   4.947   9.397 -0.5194 -1.1332  2.2485
  148DOPC   C2517637   2.777   4.851   9.237 -0.6840  0.0196 -0.3466
  148DOPC   H5R17638   2.696   4.789   9.194  0.7256 -1.8476 -0.4677
  148DOPC   H5S17639   2.872   4.792   9.230 -0.2154  0.7942 -0.7162
  148DOPC   C2617640   2.796   4.965   9.151  0.6521  0.1419 -0.0537
  148DOPC   H6R17641   2.875   5.031   9.195  0.0345  0.1728  1.0344
  148DOPC   H6S17642   2.715   5.038   9.173 -0.0623 -1.2490  2.2245
  148DOPC   C2717643   2.824   4.935   9.004 -0.0602  0.1564  0.5902
  148DOPC   H7R17644   2.825   5.035   8.955 -1.2723 -0.5036 -0.8692
  148DOPC   H7S17645   2.755   4.867   8.951  1.6697  0.4057 -2.1892
  148DOPC   C2817646   2.965   4.875   8.982  0.5015  0.3694 -0.1068
  148DOPC   H8R17647   2.975   4.773   9.026  0.5044 -1.2444 -3.5397
  148DOPC   H8S17648   3.043   4.931   9.040  0.6550  0.2679 -0.2141
  148DOPC   C2917649   3.014   4.882   8.837  0.6245 -0.1462 -0.0500
  148DOPC   H9R17650   3.018   4.978   8.785 -1.1168 -0.5676 -1.0225
  148DOPC  C21017651   3.018   4.774   8.760 -0.2265  0.3844  0.2524
  148DOPC  H10R17652   3.060   4.783   8.659  0.5940 -0.3562  0.5186
  148DOPC  C21117653   2.994   4.635   8.810  0.0940  1.0204 -0.1086
  148DOPC  H11R17654   2.982   4.566   8.724 -0.1570  2.4534 -1.2682
  148DOPC  H11S17655   2.894   4.618   8.856 -0.8381 -2.9198 -3.0927
  148DOPC  C21217656   3.111   4.576   8.900 -0.3367  0.6043 -0.0030
  148DOPC  H12R17657   3.176   4.657   8.940  1.0244 -0.7009  0.5173
  148DOPC  H12S17658   3.186   4.521   8.839  2.3134  2.6184  1.1925
  148DOPC  C21317659   3.053   4.496   9.014  0.1553 -0.3726  0.2295
  148DOPC  H13R17660   2.975   4.423   8.983 -0.2200 -1.2871  2.9667
  148DOPC  H13S17661   3.002   4.564   9.086  0.8219  1.3499 -0.8590
  148DOPC  C21417662   3.161   4.421   9.085 -0.5376 -0.3503  0.0924
  148DOPC  H14R17663   3.238   4.498   9.109 -2.1713  1.3964 -0.0015
  148DOPC  H14S17664   3.199   4.338   9.022  1.5407  0.8365 -0.2946
  148DOPC  C21517665   3.104   4.370   9.215  0.6083  0.3754  0.1280
  148DOPC  H15R17666   3.008   4.319   9.192  1.1492  0.1288 -1.6713
  148DOPC  H15S17667   3.066   4.457   9.273 -1.5662  0.5550 -1.4184
  148DOPC  C21617668   3.204   4.289   9.289 -0.1686 -0.0410  0.1812
  148DOPC  H16R17669   3.277   4.354   9.341 -0.5273 -0.0887  0.7570
  148DOPC  H16S17670   3.259   4.234   9.210 -0.7474  0.1606 -0.3785
  148DOPC  C21717671   3.147   4.204   9.401  0.7702 -0.7422  0.7746
  148DOPC  H17R17672   3.056   4.149   9.367 -0.5656  0.2720  2.5464
  148DOPC  H17S17673   3.119   4.274   9.483  0.2313  0.0883 -0.1011
  148DOPC  C21817674   3.239   4.100   9.458 -0.7344 -0.5657 -0.1730
  148DOPC  H18R17675   3.184   4.030   9.524 -1.6469  0.2489 -0.0587
  148DOPC  H18S17676   3.336   4.125   9.505  0.2054 -2.4249 -0.9897
  148DOPC  H18T17677   3.272   4.039   9.371 -0.3182 -1.2858  0.4745
  148DOPC   C3317678   2.355   5.026   9.263  0.2220  0.3221  0.0609
  148DOPC   H3X17679   2.439   4.970   9.310 -0.3829 -0.6002  0.0605
  148DOPC   H3Y17680   2.394   5.129   9.252 -1.9446  1.0353 -1.5263
  148DOPC   C3417681   2.325   4.977   9.123 -0.1265  0.2510 -0.1051
  148DOPC   H4X17682   2.230   5.023   9.088 -0.5093 -0.4255  0.0209
  148DOPC   H4Y17683   2.298   4.869   9.130 -0.2605  0.3882  2.7336
  148DOPC   C3517684   2.447   4.991   9.036 -0.1922 -0.1081 -0.7734
  148DOPC   H5X17685   2.515   4.904   9.045 -0.1085 -0.1480 -1.6980
  148DOPC   H5Y17686   2.502   5.086   9.057 -0.6736  0.0312 -0.1186
  148DOPC   C3617687   2.404   4.995   8.888  0.2049  0.3899 -0.7967
  148DOPC   H6X17688   2.370   4.890   8.872  0.9142  0.2303 -1.3155
  148DOPC   H6Y17689   2.317   5.063   8.874  0.4908  1.4063  1.8147
  148DOPC   C3717690   2.520   5.010   8.789  0.5122  0.0222 -0.0467
  148DOPC   H7X17691   2.563   5.113   8.788 -0.1335  0.3000  0.3934
  148DOPC   H7Y17692   2.603   4.944   8.824 -0.9073 -0.8939  1.7420
  148DOPC   C3817693   2.483   4.955   8.651 -0.5054 -0.6434  0.3742
  148DOPC   H8X17694   2.449   4.849   8.658  0.5671 -0.8968  2.7119
  148DOPC   H8Y17695   2.575   4.946   8.589 -0.4710 -1.2651  0.5020
  148DOPC   C3917696   2.380   5.036   8.581 -0.4369 -0.4580  0.2483
  148DOPC   H9X17697   2.295   5.049   8.650  1.2642  0.1509  2.3191
  148DOPC  C31017698   2.398   5.094   8.459 -0.4602 -0.5761  0.0710
  148DOPC  H10X17699   2.324   5.162   8.413 -1.7666 -2.9405 -1.5507
  148DOPC  C31117700   2.525   5.075   8.378  0.3795  0.0891  0.1307
  148DOPC  H11X17701   2.547   4.967   8.364  0.9721  0.0371  1.3786
  148DOPC  H11Y17702   2.611   5.122   8.429  1.9764 -1.2711 -1.1977
  148DOPC  C31217703   2.513   5.140   8.237  0.0680  0.4072  0.2799
  148DOPC  H12X17704   2.620   5.154   8.212  0.6581 -1.3505  1.6174
  148DOPC  H12Y17705   2.453   5.233   8.248 -0.0952  0.1479  1.8097
  148DOPC  C31317706   2.451   5.040   8.133  0.2607 -0.2059 -0.8492
  148DOPC  H13X17707   2.502   4.944   8.158  0.8340  0.3648  0.2485
  148DOPC  H13Y17708   2.341   5.028   8.141  0.4896 -2.7619 -0.7829
  148DOPC  C31417709   2.474   5.078   7.989  0.5917 -0.2830  0.7249
  148DOPC  H14X17710   2.423   5.176   7.975 -0.5869 -0.8376  0.9617
  148DOPC  H14Y17711   2.578   5.094   7.954 -0.3166  1.3107 -1.4742
  148DOPC  C31517712   2.404   4.965   7.900 -0.2685  0.0196  0.4215
  148DOPC  H15X17713   2.300   4.946   7.934 -0.1190 -0.1730  0.7732
  148DOPC  H15Y17714   2.458   4.869   7.894 -1.6167 -0.7209 -0.5029
  148DOPC  C31617715   2.384   5.021   7.757  0.8528  0.0162 -0.1723
  148DOPC  H16X17716   2.332   4.938   7.705  2.1448 -0.6403 -0.4301
  148DOPC  H16Y17717   2.298   5.092   7.759  0.1917 -0.7132 -1.2775
  148DOPC  C31717718   2.511   5.071   7.681 -0.1303  0.2767  0.3440
  148DOPC  H17X17719   2.553   5.160   7.732  0.4821  0.3050 -0.1922
  148DOPC  H17Y17720   2.586   4.989   7.683 -1.4106 -0.9753 -0.7207
  148DOPC  C31817721   2.497   5.102   7.536  0.4640  0.0991  0.3014
  148DOPC  H18X17722   2.416   5.175   7.517 -0.3650 -1.2699 -1.8444
  148DOPC  H18Y17723   2.591   5.146   7.496  0.3642  0.0319 -0.0166
  148DOPC  H18Z17724   2.476   5.012   7.473 -1.0173  0.8160 -0.2613
  149DOPC     N17725   1.691   1.472   9.910 -0.1269 -0.6138 -0.1956
  149DOPC   C1217726   1.584   1.503   9.803 -0.0789  0.6488  0.6580
  149DOPC  H12A17727   1.550   1.603   9.826  0.5666  0.6611  1.5683
  149DOPC  H12B17728   1.500   1.436   9.816 -1.8272  2.7803  1.0777
  149DOPC   C1317729   1.632   1.500  10.048 -0.4098  0.1722  0.1655
  149DOPC  H13A17730   1.545   1.442  10.078  0.1271  0.6270  2.8814
  149DOPC  H13B17731   1.708   1.491  10.124 -2.1171 -0.5778  1.8501
  149DOPC  H13C17732   1.600   1.603  10.055 -1.4791 -0.1557  0.4430
  149DOPC   C1417733   1.801   1.560   9.880  0.8012 -0.1126  0.5127
  149DOPC  H14A17734   1.885   1.540   9.945  1.4158  0.0987 -0.1873
  149DOPC  H14B17735   1.829   1.550   9.776 -0.9880  1.0659 -0.1305
  149DOPC  H14C17736   1.782   1.666   9.892  2.6163  0.4482 -0.9435
  149DOPC   C1517737   1.736   1.333   9.908  0.1426  0.3030  0.0275
  149DOPC  H15A17738   1.827   1.325   9.966 -0.9936 -0.1127  1.8484
  149DOPC  H15B17739   1.752   1.313   9.803 -0.5319  0.5704 -0.1358
  149DOPC  H15C17740   1.667   1.260   9.949  1.5026  0.0010  1.9153
  149DOPC   C1117741   1.627   1.479   9.651 -0.5733  0.1610 -0.5570
  149DOPC  H11A17742   1.542   1.530   9.601 -0.9979  0.3083  0.2800
  149DOPC  H11B17743   1.721   1.535   9.629  0.3906 -1.0995  0.2118
  149DOPC     P17744   1.514   1.244   9.623  0.2007  0.1903 -0.0066
  149DOPC   O1317745   1.431   1.255   9.745 -0.5346  0.0660  0.0461
  149DOPC   O1417746   1.566   1.109   9.586  0.1190  0.1915 -1.1291
  149DOPC   O1217747   1.641   1.337   9.625  0.2771  0.0847  0.3887
  149DOPC   O1117748   1.432   1.299   9.507 -0.4513  0.0507  0.4131
  149DOPC    C117749   1.489   1.317   9.375 -0.2293  0.1591  0.3355
  149DOPC    HA17750   1.509   1.221   9.322  0.9799  0.4013  0.3262
  149DOPC    HB17751   1.585   1.372   9.371  0.7590 -1.4096  1.5511
  149DOPC    C217752   1.389   1.397   9.289 -0.1942 -0.1120  0.1096
  149DOPC    HS17753   1.291   1.347   9.271 -0.9818  0.9833  1.1318
  149DOPC   O2117754   1.459   1.426   9.165  0.3230 -0.0041  0.2909
  149DOPC   C2117755   1.404   1.371   9.056  0.7229 -0.1578  0.2857
  149DOPC   O2217756   1.304   1.297   9.056  0.1199  0.5176 -0.0626
  149DOPC   C2217757   1.461   1.439   8.933  0.5942  0.1959  0.4397
  149DOPC   H2R17758   1.571   1.429   8.939  0.6805  1.6022  1.8125
  149DOPC   H2S17759   1.439   1.548   8.940 -0.6630 -0.0346  0.3190
  149DOPC    C317760   1.355   1.535   9.356  0.6022 -0.1899  0.2020
  149DOPC    HX17761   1.446   1.577   9.403  1.0759  0.6306 -1.3808
  149DOPC    HY17762   1.280   1.508   9.433 -0.0410 -0.4647 -0.5033
  149DOPC   O3117763   1.299   1.627   9.256  0.0761  0.1227 -0.4427
  149DOPC   C3117764   1.253   1.737   9.305  0.4527 -0.7925 -0.6191
  149DOPC   O3217765   1.243   1.765   9.426  0.5636  0.4361 -0.4871
  149DOPC   C3217766   1.192   1.823   9.190  0.4857  0.4394  0.7107
  149DOPC   H2X17767   1.096   1.869   9.220  0.1213 -0.1223  0.4416
  149DOPC   H2Y17768   1.261   1.907   9.171  0.8753  0.3014  1.4830
  149DOPC   C2317769   1.429   1.370   8.800  0.5639 -0.6536 -0.4375
  149DOPC   H3R17770   1.320   1.363   8.778  0.1415 -2.7422  1.7862
  149DOPC   H3S17771   1.469   1.266   8.794  0.5643 -0.5533 -2.6561
  149DOPC   C2417772   1.502   1.436   8.673  0.1658  0.3184  0.3466
  149DOPC   H4R17773   1.608   1.455   8.702 -0.1157  0.2128  1.5073
  149DOPC   H4S17774   1.451   1.532   8.654 -1.5020 -0.7162 -0.6120
  149DOPC   C2517775   1.476   1.363   8.543 -0.2355  0.2024  0.1441
  149DOPC   H5R17776   1.366   1.358   8.526 -0.2322  0.2076  0.1220
  149DOPC   H5S17777   1.509   1.257   8.541  0.0141  0.1357 -4.9060
  149DOPC   C2617778   1.535   1.428   8.424 -0.2666  0.3915 -0.1486
  149DOPC   H6R17779   1.644   1.406   8.431 -0.4843 -0.8176 -0.4050
  149DOPC   H6S17780   1.515   1.537   8.430  0.6401  0.6241 -0.9130
  149DOPC   C2717781   1.472   1.387   8.287 -0.7540  0.3157 -0.3585
  149DOPC   H7R17782   1.362   1.406   8.296 -1.5940 -3.5411 -0.6256
  149DOPC   H7S17783   1.474   1.277   8.272  0.6086  0.3047 -0.1992
  149DOPC   C2817784   1.527   1.475   8.170 -0.0675  1.0010 -0.0950
  149DOPC   H8R17785   1.637   1.480   8.180  0.2564 -1.1905 -1.7508
  149DOPC   H8S17786   1.482   1.576   8.173 -2.0018  0.1753  1.3471
  149DOPC   C2917787   1.490   1.402   8.040 -0.1040 -0.9873 -0.0530
  149DOPC   H9R17788   1.557   1.318   8.013 -0.3333 -1.3512  0.4869
  149DOPC  C21017789   1.400   1.438   7.951  1.1517 -0.2204 -0.3345
  149DOPC  H10R17790   1.391   1.375   7.862 -0.3972 -0.7192  0.1516
  149DOPC  C21117791   1.291   1.540   7.961 -0.1870  0.4186 -0.8310
  149DOPC  H11R17792   1.329   1.644   7.958 -0.1721  0.4135 -0.8223
  149DOPC  H11S17793   1.253   1.545   8.065  1.8883 -0.0998  0.0034
  149DOPC  C21217794   1.172   1.535   7.857  0.2854 -0.3080  0.3637
  149DOPC  H12R17795   1.208   1.562   7.756  1.0778  0.6332  0.8769
  149DOPC  H12S17796   1.094   1.603   7.897  1.2344 -0.6974  3.1138
  149DOPC  C21317797   1.108   1.394   7.855  0.4348 -0.6631  0.4636
  149DOPC  H13R17798   1.056   1.389   7.953 -0.5773  0.8069  0.0411
  149DOPC  H13S17799   1.188   1.319   7.837  0.7522 -0.1620 -0.2680
  149DOPC  C21417800   0.997   1.383   7.747 -0.1834 -0.0973  0.4524
  149DOPC  H14R17801   0.914   1.455   7.766 -0.9277 -1.4141  2.6100
  149DOPC  H14S17802   0.954   1.281   7.752  0.1880 -0.3540 -1.2851
  149DOPC  C21517803   1.048   1.411   7.610 -0.3916  0.1950 -0.0729
  149DOPC  H15R17804   1.143   1.360   7.582 -0.6692 -0.4568  0.1610
  149DOPC  H15S17805   1.066   1.520   7.594  0.2700  0.1926  0.5740
  149DOPC  C21617806   0.936   1.376   7.510 -0.5361  0.2981  0.2513
  149DOPC  H16R17807   0.855   1.446   7.540 -0.0247  0.8204  0.4357
  149DOPC  H16S17808   0.898   1.272   7.519 -2.5479  0.8191 -1.7061
  149DOPC  C21717809   0.962   1.400   7.362 -0.8654 -0.6341  0.9814
  149DOPC  H17R17810   0.868   1.375   7.309  0.4560 -2.5478 -0.5713
  149DOPC  H17S17811   1.048   1.332   7.344  0.9834  1.9798 -0.8659
  149DOPC  C21817812   1.000   1.546   7.330 -0.0799  0.5499  0.0859
  149DOPC  H18R17813   0.919   1.620   7.347  0.2324  0.4350  2.3570
  149DOPC  H18S17814   1.037   1.546   7.225  2.0254 -0.7442  0.7627
  149DOPC  H18T17815   1.087   1.579   7.392  1.1375 -1.6603 -0.3433
  149DOPC   C3317816   1.167   1.749   9.062  0.4617  0.1456 -0.1810
  149DOPC   H3X17817   1.087   1.677   9.090 -0.7547  0.4363 -2.5930
  149DOPC   H3Y17818   1.253   1.682   9.041  0.9190 -0.3910  2.9193
  149DOPC   C3417819   1.130   1.832   8.945  0.4398 -0.0351 -0.0889
  149DOPC   H4X17820   1.216   1.898   8.922  0.2290  1.0978  2.1460
  149DOPC   H4Y17821   1.050   1.903   8.976 -0.4223 -0.6158 -0.9108
  149DOPC   C3517822   1.087   1.750   8.825 -0.0012  1.0019 -0.3731
  149DOPC   H5X17823   1.063   1.818   8.741 -1.0070 -0.4846 -1.3432
  149DOPC   H5Y17824   0.994   1.694   8.848 -0.2924  1.7771  0.3865
  149DOPC   C3617825   1.178   1.635   8.776  0.1628  0.0838  0.4442
  149DOPC   H6X17826   1.285   1.657   8.753 -0.2004  1.5914  0.1052
  149DOPC   H6Y17827   1.187   1.548   8.844 -0.5512 -1.9406 -1.9333
  149DOPC   C3717828   1.134   1.579   8.642  0.2966 -0.1009 -0.3081
  149DOPC   H7X17829   1.168   1.474   8.628 -1.0299 -0.1942 -4.1649
  149DOPC   H7Y17830   1.025   1.570   8.656  0.2766 -2.3087 -1.4545
  149DOPC   C3817831   1.172   1.671   8.521  0.3672 -0.0631  0.2283
  149DOPC   H8X17832   1.279   1.697   8.537  1.2773 -2.2221 -1.7539
  149DOPC   H8Y17833   1.122   1.770   8.525  1.9280  0.7658 -0.0465
  149DOPC   C3917834   1.145   1.604   8.388  0.5336 -0.2190  0.1049
  149DOPC   H9X17835   1.237   1.563   8.344  1.8688  1.5216  1.1715
  149DOPC  C31017836   1.030   1.612   8.311 -0.4637 -0.2432  0.3388
  149DOPC  H10X17837   1.033   1.584   8.205 -2.1306  1.9571 -0.3654
  149DOPC  C31117838   0.903   1.684   8.349 -0.3467  0.7210 -0.6359
  149DOPC  H11X17839   0.907   1.724   8.453  1.9046  1.3445 -0.8952
  149DOPC  H11Y17840   0.822   1.609   8.346 -1.9200  2.2514  0.9300
  149DOPC  C31217841   0.866   1.788   8.239  0.4467 -0.0807  0.4493
  149DOPC  H12X17842   0.945   1.866   8.231 -0.1369  0.6591  1.5811
  149DOPC  H12Y17843   0.774   1.833   8.283 -0.8200 -1.0227 -1.1103
  149DOPC  C31317844   0.834   1.734   8.099  0.0838  0.3937 -0.1024
  149DOPC  H13X17845   0.931   1.700   8.055  0.6631 -2.5193  2.9417
  149DOPC  H13Y17846   0.765   1.648   8.111 -0.7182  0.4897 -3.1065
  149DOPC  C31417847   0.782   1.833   7.999  0.9818  0.6438  0.4313
  149DOPC  H14X17848   0.686   1.882   8.028  1.0643  1.6039 -0.8296
  149DOPC  H14Y17849   0.853   1.915   7.976  2.0100 -0.5340 -0.7532
  149DOPC  C31517850   0.758   1.762   7.868  0.2222 -0.4442  0.3966
  149DOPC  H15X17851   0.677   1.687   7.878  0.2905 -0.3732  1.5656
  149DOPC  H15Y17852   0.842   1.696   7.837  1.0137  0.9028 -0.4027
  149DOPC  C31617853   0.705   1.858   7.755 -0.4068 -0.3459 -0.0192
  149DOPC  H16X17854   0.641   1.927   7.813  1.4395  0.2589  1.3791
  149DOPC  H16Y17855   0.788   1.924   7.722 -0.7335 -0.4914 -1.1884
  149DOPC  C31717856   0.625   1.788   7.653  0.3639  0.5476  0.0316
  149DOPC  H17X17857   0.690   1.735   7.581  1.0651 -0.1230  1.1393
  149DOPC  H17Y17858   0.554   1.713   7.693  1.7243  0.1392  1.8212
  149DOPC  C31817859   0.544   1.890   7.566 -0.6472  0.1609  0.0254
  149DOPC  H18X17860   0.515   1.848   7.468  0.1558  0.1579 -0.2145
  149DOPC  H18Y17861   0.446   1.917   7.612 -2.1673 -2.7944 -1.2441
  149DOPC  H18Z17862   0.593   1.990   7.560 -1.2491  0.4038 -1.0950
  150DOPC     N17863   4.738   4.701  10.341 -0.2300  0.4164  0.6484
  150DOPC   C1217864   4.780   4.842  10.322  0.5839  0.8486 -0.6233
  150DOPC  H12A17865   4.888   4.849  10.328  0.6444 -1.1002  2.3591
  150DOPC  H12B17866   4.745   4.908  10.400 -0.8703  0.5206 -0.9711
  150DOPC   C1317867   4.768   4.645  10.479 -0.2711  0.6852  0.4397
  150DOPC  H13A17868   4.875   4.639  10.496 -0.5065  0.4473  2.0701
  150DOPC  H13B17869   4.712   4.700  10.554  0.5032  0.4924  1.1745
  150DOPC  H13C17870   4.737   4.542  10.486 -0.7790  0.7941 -0.1198
  150DOPC   C1417871   4.826   4.615  10.251 -1.4266 -0.4263  0.3562
  150DOPC  H14A17872   4.930   4.636  10.273 -1.7560 -1.1144  2.9679
  150DOPC  H14B17873   4.820   4.508  10.268  3.0244 -0.9163  0.1398
  150DOPC  H14C17874   4.801   4.641  10.150 -2.1978 -0.5786  0.4989
  150DOPC   C1517875   4.594   4.679  10.302 -0.1238 -0.1091  0.3527
  150DOPC  H15A17876   4.563   4.577  10.282 -0.1317  0.1701 -1.1777
  150DOPC  H15B17877   4.568   4.728  10.210 -2.3889  0.5400  1.2863
  150DOPC  H15C17878   4.526   4.723  10.373  0.3056 -0.1897  0.8220
  150DOPC   C1117879   4.738   4.904  10.184 -0.4040  0.3509  0.6153
  150DOPC  H11A17880   4.631   4.882  10.165 -0.4321 -0.2510  1.4265
  150DOPC  H11B17881   4.745   5.015  10.180 -3.3263  0.6477  1.6498
  150DOPC     P17882   4.975   4.905  10.066  0.1848 -0.3080  0.6936
  150DOPC   O1317883   5.042   4.812   9.974 -0.7160  0.5212  0.1472
  150DOPC   O1417884   5.024   4.938  10.202 -0.3847 -0.0445  0.0386
  150DOPC   O1217885   4.825   4.847  10.084 -0.4422  0.6487  0.6567
  150DOPC   O1117886   4.959   5.041   9.999  0.4329  0.7852 -0.4559
  150DOPC    C117887   4.857   5.072   9.905 -0.2843  0.0916  0.2958
  150DOPC    HA17888   4.806   5.168   9.928  1.6563  2.1577 -3.0354
  150DOPC    HB17889   4.789   4.988   9.882 -0.4584  0.4079 -0.3632
  150DOPC    C217890   4.920   5.106   9.767 -0.1273 -0.7031  0.1396
  150DOPC    HS17891   4.848   5.169   9.711 -0.1374  1.4844  2.3858
  150DOPC   O2117892   4.965   4.993   9.694 -0.4884  0.6380 -0.0225
  150DOPC   C2117893   4.874   4.930   9.624  0.0298 -0.6446 -0.4118
  150DOPC   O2217894   4.758   4.959   9.610 -0.1812 -0.0210 -0.8470
  150DOPC   C2217895   4.938   4.812   9.555 -0.4241 -0.3895  0.3884
  150DOPC   H2R17896   4.916   4.718   9.610  1.9433 -2.0633 -1.3265
  150DOPC   H2S17897   5.048   4.828   9.566 -0.6695  0.8676  1.1413
  150DOPC    C317898   5.045   5.200   9.790 -0.7281  0.5447  0.1575
  150DOPC    HX17899   5.119   5.163   9.865  0.5398  0.9598 -0.8553
  150DOPC    HY17900   5.008   5.288   9.847  1.3800  0.9143  1.0478
  150DOPC   O3117901   5.109   5.237   9.666  0.4258  0.7251  0.0269
  150DOPC   C3117902   5.052   5.340   9.603  0.0851  0.7994 -0.6077
  150DOPC   O3217903   4.939   5.380   9.635  0.0591 -1.3232 -0.0186
  150DOPC   C3217904   5.129   5.395   9.487 -0.7449  0.1052  0.0191
  150DOPC   H2X17905   5.222   5.434   9.532 -0.4990 -0.1201 -0.2896
  150DOPC   H2Y17906   5.155   5.316   9.414 -0.8298 -0.0395  0.1450
  150DOPC   C2317907   4.872   4.811   9.412  0.6533  0.0672  0.2346
  150DOPC   H3R17908   4.872   4.917   9.380  0.0216  0.1458  0.4712
  150DOPC   H3S17909   4.769   4.771   9.429  0.9783 -0.8540  0.0719
  150DOPC   C2417910   4.931   4.730   9.303 -0.2793  0.0992 -0.2927
  150DOPC   H4R17911   4.924   4.625   9.339  1.4694 -0.4694 -1.5068
  150DOPC   H4S17912   5.041   4.741   9.291  0.0106 -0.6263  1.4617
  150DOPC   C2517913   4.868   4.759   9.175  0.3716 -0.0155  0.2237
  150DOPC   H5R17914   4.902   4.856   9.133 -2.2245  0.5351 -0.8039
  150DOPC   H5S17915   4.757   4.761   9.187  0.4177 -0.1814  0.6936
  150DOPC   C2617916   4.882   4.659   9.059 -0.4740 -0.6020  0.4755
  150DOPC   H6R17917   4.846   4.559   9.090 -1.2187 -0.4162  0.2217
  150DOPC   H6S17918   4.991   4.641   9.043 -0.4577 -2.7875  2.4757
  150DOPC   C2717919   4.810   4.702   8.930  0.5405 -0.6061 -0.1666
  150DOPC   H7R17920   4.703   4.729   8.942  0.4968 -0.3141 -1.1839
  150DOPC   H7S17921   4.807   4.619   8.856  0.5758  0.3673 -1.2793
  150DOPC   C2817922   4.875   4.823   8.860  0.2712 -0.1836 -0.3368
  150DOPC   H8R17923   4.866   4.910   8.928  2.7825 -0.0214 -0.1011
  150DOPC   H8S17924   4.812   4.828   8.769 -0.3479 -2.5612 -0.0987
  150DOPC   C2917925   5.019   4.814   8.833 -0.0356 -0.3713  0.6749
  150DOPC   H9R17926   5.091   4.844   8.910  0.8584  1.0149 -0.6515
  150DOPC  C21017927   5.062   4.764   8.715  0.2567 -0.9291  0.3248
  150DOPC  H10R17928   5.169   4.744   8.694 -0.4325 -2.4481 -2.1694
  150DOPC  C21117929   4.973   4.726   8.594 -0.1794 -0.0400  0.0366
  150DOPC  H11R17930   4.891   4.796   8.566 -0.4919  0.4245  2.0050
  150DOPC  H11S17931   4.937   4.622   8.603 -0.1195  0.0305  1.1365
  150DOPC  C21217932   5.068   4.731   8.474 -0.3784 -0.0232  0.7867
  150DOPC  H12R17933   5.154   4.661   8.487 -0.0303 -0.4998 -2.9303
  150DOPC  H12S17934   5.103   4.836   8.466 -1.2341  0.2437  0.4450
  150DOPC  C21317935   5.009   4.683   8.342 -0.7443 -0.5362 -0.5070
  150DOPC  H13R17936   4.919   4.740   8.309  0.3856  0.3137 -2.2257
  150DOPC  H13S17937   4.974   4.581   8.368  0.1960 -1.2230 -1.8533
  150DOPC  C21417938   5.117   4.673   8.233 -0.2958  0.1730 -0.4155
  150DOPC  H14R17939   5.202   4.608   8.264  0.6936  0.8618 -1.5721
  150DOPC  H14S17940   5.163   4.773   8.218  0.9509 -0.1475  1.0224
  150DOPC  C21517941   5.058   4.626   8.101  0.1913 -0.7089 -0.3440
  150DOPC  H15R17942   4.988   4.709   8.079  1.9116  0.7474 -0.5459
  150DOPC  H15S17943   5.011   4.527   8.122  0.1936 -0.3096  1.8620
  150DOPC  C21617944   5.159   4.626   7.985  0.0112  0.1003  0.0859
  150DOPC  H16R17945   5.106   4.615   7.889 -0.1730 -2.0520  0.3714
  150DOPC  H16S17946   5.226   4.537   7.995 -0.4709 -0.1689  1.0487
  150DOPC  C21717947   5.253   4.748   7.970 -0.7105 -0.3129  0.6796
  150DOPC  H17R17948   5.317   4.732   7.880 -0.9955 -0.6871  0.5407
  150DOPC  H17S17949   5.316   4.757   8.061  1.1341 -0.7291 -0.5074
  150DOPC  C21817950   5.178   4.882   7.950 -0.2593  0.7309  0.8333
  150DOPC  H18R17951   5.142   4.897   7.846  0.0125  1.9304  0.8956
  150DOPC  H18S17952   5.248   4.967   7.965 -0.6687  1.3689 -0.6610
  150DOPC  H18T17953   5.095   4.886   8.023  0.5887  2.8531  1.7477
  150DOPC   C3317954   5.060   5.510   9.406 -0.3999 -0.7444 -0.4746
  150DOPC   H3X17955   5.014   5.582   9.477  2.2243  0.7356 -0.1397
  150DOPC   H3Y17956   4.972   5.470   9.352  0.4733 -1.3589 -1.4885
  150DOPC   C3417957   5.161   5.573   9.313  0.7082  0.0801 -0.2331
  150DOPC   H4X17958   5.192   5.486   9.251  2.3112 -0.6967  1.5565
  150DOPC   H4Y17959   5.241   5.610   9.380  0.5171 -1.5486  0.9470
  150DOPC   C3517960   5.104   5.692   9.222 -0.5426 -0.0453 -0.4767
  150DOPC   H5X17961   5.192   5.752   9.194 -0.5398  1.2884  2.0849
  150DOPC   H5Y17962   5.033   5.752   9.283  1.9097 -0.4712  3.0914
  150DOPC   C3617963   5.031   5.635   9.095 -0.5141  0.5784 -0.0155
  150DOPC   H6X17964   5.107   5.603   9.021 -1.4887 -2.0694  0.0299
  150DOPC   H6Y17965   4.951   5.560   9.115 -0.6669  0.5750 -0.6105
  150DOPC   C3717966   4.966   5.749   9.025 -0.3725 -0.6678  0.5015
  150DOPC   H7X17967   4.880   5.777   9.089  0.3189  0.6930  0.8887
  150DOPC   H7Y17968   5.043   5.828   9.040 -0.0215 -1.3019  2.4290
  150DOPC   C3817969   4.924   5.723   8.885  0.3536  0.1560 -0.8024
  150DOPC   H8X17970   5.002   5.680   8.819  0.2126 -1.8315  0.2225
  150DOPC   H8Y17971   4.895   5.819   8.838 -2.5379  0.7277  1.8000
  150DOPC   C3917972   4.812   5.621   8.879 -0.2300  0.0521 -0.7969
  150DOPC   H9X17973   4.754   5.603   8.970  0.8259  0.9518  0.0689
  150DOPC  C31017974   4.759   5.566   8.766 -0.6644  0.7891 -0.6667
  150DOPC  H10X17975   4.666   5.507   8.768 -1.2771  1.7376 -0.0119
  150DOPC  C31117976   4.799   5.593   8.624 -0.3208  0.0003 -0.6323
  150DOPC  H11X17977   4.811   5.502   8.561 -0.2084 -0.6724  0.3241
  150DOPC  H11Y17978   4.903   5.630   8.616  0.0045 -0.7663 -0.1146
  150DOPC  C31217979   4.699   5.684   8.557 -0.6095  0.1276 -0.0361
  150DOPC  H12X17980   4.693   5.782   8.609  0.4551  0.6505 -0.8657
  150DOPC  H12Y17981   4.601   5.632   8.570  0.6358 -1.9092  1.7317
  150DOPC  C31317982   4.709   5.694   8.405 -0.1275 -0.1883  0.3785
  150DOPC  H13X17983   4.702   5.588   8.372  1.6086 -0.2753  0.1993
  150DOPC  H13Y17984   4.624   5.750   8.360 -0.3829 -0.1502  0.8962
  150DOPC  C31417985   4.847   5.745   8.352  0.6563  0.5970  0.1935
  150DOPC  H14X17986   4.933   5.714   8.415  1.6296 -0.7760 -1.6870
  150DOPC  H14Y17987   4.851   5.686   8.258  1.5240  1.2630 -0.2068
  150DOPC  C31517988   4.844   5.893   8.320 -0.3277 -0.6516 -0.1777
  150DOPC  H15X17989   4.838   5.956   8.411 -0.9197  0.8277 -1.2141
  150DOPC  H15Y17990   4.755   5.927   8.262  0.2788 -1.2349 -1.4949
  150DOPC  C31617991   4.977   5.932   8.249 -0.4676 -0.0920 -0.0921
  150DOPC  H16X17992   4.988   6.042   8.257 -0.5173  0.3089 -3.8497
  150DOPC  H16Y17993   5.064   5.882   8.297 -1.0075 -1.1420 -0.1666
  150DOPC  C31717994   4.991   5.894   8.103  0.3274 -0.0688  0.1926
  150DOPC  H17X17995   4.993   5.784   8.091  2.2088  0.0628 -0.9812
  150DOPC  H17Y17996   4.901   5.920   8.042  1.6202  1.2466 -1.2284
  150DOPC  C31817997   5.103   5.961   8.033 -0.0003 -0.1546 -0.3932
  150DOPC  H18X17998   5.110   5.929   7.927  0.5662  0.1499 -0.4566
  150DOPC  H18Y17999   5.072   6.068   8.035 -3.1295 -0.9439  2.6002
  150DOPC  H18Z18000   5.203   5.957   8.082 -0.6308  1.9830  1.2200
  151DOPC     N18001   1.128   3.194   9.767 -0.0429  0.2197  0.6412
  151DOPC   C1218002   1.191   3.092   9.668  0.1258 -0.4240 -0.0219
  151DOPC  H12A18003   1.153   2.993   9.687 -1.5835  0.4367  1.2767
  151DOPC  H12B18004   1.296   3.078   9.688  0.2736 -0.8516 -1.0252
  151DOPC   C1318005   0.979   3.174   9.776 -0.7170 -0.1659 -0.5247
  151DOPC  H13A18006   0.912   3.220   9.705 -2.2591 -2.4962 -0.6865
  151DOPC  H13B18007   0.944   3.072   9.779 -1.4614  0.0847 -0.4835
  151DOPC  H13C18008   0.953   3.223   9.868 -0.0832 -1.0004  0.1127
  151DOPC   C1418009   1.164   3.338   9.728  0.4678  0.0295 -0.2294
  151DOPC  H14A18010   1.115   3.353   9.632  2.3905 -2.0221 -1.6282
  151DOPC  H14B18011   1.118   3.405   9.799 -3.4065 -2.1865 -0.3406
  151DOPC  H14C18012   1.266   3.356   9.699  1.1367 -2.7091  0.1448
  151DOPC   C1518013   1.188   3.176   9.900 -0.1535 -1.0482 -0.4292
  151DOPC  H15A18014   1.131   3.237   9.970 -0.2581  0.0820 -1.4607
  151DOPC  H15B18015   1.291   3.207   9.906 -1.2336  2.9669  1.8189
  151DOPC  H15C18016   1.182   3.074   9.935  0.8489 -0.1691  2.6416
  151DOPC   C1118017   1.183   3.120   9.514 -0.1213  0.4896 -0.1473
  151DOPC  H11A18018   1.221   3.222   9.493  2.3093 -0.1438  0.8746
  151DOPC  H11B18019   1.245   3.040   9.469  0.1809  0.0488  1.0009
  151DOPC     P18020   0.974   2.992   9.431 -0.5151 -0.1031 -0.1602
  151DOPC   O1318021   0.833   3.016   9.386  0.0938  0.0123  0.3097
  151DOPC   O1418022   0.982   2.892   9.537  0.3316 -0.3445 -0.2953
  151DOPC   O1218023   1.043   3.123   9.478 -0.9184 -0.2597 -0.5674
  151DOPC   O1118024   1.046   2.941   9.302  0.1659 -0.3914 -0.1814
  151DOPC    C118025   1.067   3.032   9.191 -0.3758 -0.2283  0.6281
  151DOPC    HA18026   1.163   3.008   9.139 -0.2591 -0.3629  0.9063
  151DOPC    HB18027   1.085   3.136   9.224 -0.7379 -0.0900  0.3901
  151DOPC    C218028   0.955   3.011   9.089  0.9489 -0.1317  0.5784
  151DOPC    HS18029   0.858   3.039   9.134  1.1234  1.4152  0.0479
  151DOPC   O2118030   0.949   2.872   9.052  0.5031 -0.1932  0.3578
  151DOPC   C2118031   0.827   2.830   9.011  0.1601 -0.0439  0.8848
  151DOPC   O2218032   0.723   2.894   9.026 -0.3262 -0.7859 -0.0743
  151DOPC   C2218033   0.821   2.699   8.954  0.3829  0.1379  0.0986
  151DOPC   H2R18034   0.714   2.690   8.926  0.1338  0.1927  0.9890
  151DOPC   H2S18035   0.838   2.617   9.028  2.3432 -0.7323 -1.2446
  151DOPC    C318036   0.976   3.099   8.957  0.7349  0.7063 -0.7910
  151DOPC    HX18037   1.053   3.043   8.900  0.4548 -0.7451  0.1897
  151DOPC    HY18038   1.013   3.198   8.990  2.7388 -0.7079  1.5780
  151DOPC   O3118039   0.861   3.108   8.872  0.0682  0.2237 -0.0800
  151DOPC   C3118040   0.757   3.179   8.916 -0.5022 -0.7129  0.7042
  151DOPC   O3218041   0.764   3.253   9.013 -0.7012 -0.1617 -0.2336
  151DOPC   C3218042   0.640   3.160   8.817 -0.2429  0.2860  0.5847
  151DOPC   H2X18043   0.681   3.167   8.714 -0.2070 -0.4942  0.5376
  151DOPC   H2Y18044   0.629   3.050   8.803  0.4797  0.4206 -1.2763
  151DOPC   C2318045   0.912   2.676   8.830 -0.4898 -0.0023  0.4810
  151DOPC   H3R18046   0.890   2.574   8.792  0.3593 -0.1314  0.3239
  151DOPC   H3S18047   1.020   2.679   8.854 -0.8001  0.3866  1.9322
  151DOPC   C2418048   0.901   2.784   8.727 -0.3759  0.1462 -0.5027
  151DOPC   H4R18049   0.925   2.885   8.767 -0.1055  0.2212 -0.8475
  151DOPC   H4S18050   0.795   2.784   8.692 -0.7584 -2.5028  0.4749
  151DOPC   C2518051   0.993   2.769   8.607 -0.5711 -0.1556  0.4179
  151DOPC   H5R18052   1.015   2.662   8.583  1.2363  0.5751 -1.4895
  151DOPC   H5S18053   1.093   2.803   8.642 -0.1345  0.7462 -1.5806
  151DOPC   C2618054   0.947   2.861   8.495  0.0934  0.8871 -0.2237
  151DOPC   H6R18055   0.964   2.966   8.525  0.3045  0.0896  2.8046
  151DOPC   H6S18056   0.837   2.845   8.494  0.2573 -0.3049 -0.9078
  151DOPC   C2718057   1.003   2.838   8.357 -0.5449  0.0882  0.0648
  151DOPC   H7R18058   0.963   2.748   8.303 -0.5829  1.0290 -1.5499
  151DOPC   H7S18059   1.109   2.809   8.369 -0.2206  0.8451 -0.8427
  151DOPC   C2818060   0.982   2.956   8.267 -0.2395 -1.0918  0.5474
  151DOPC   H8R18061   1.001   3.054   8.316 -1.3261 -1.8277  2.5440
  151DOPC   H8S18062   0.873   2.944   8.251 -0.5836 -2.1993  3.2059
  151DOPC   C2918063   1.081   2.932   8.153  0.1556  0.8885  0.3125
  151DOPC   H9R18064   1.185   2.925   8.187  0.8219 -0.9700 -1.8172
  151DOPC  C21018065   1.055   2.911   8.030 -0.8880 -0.0967 -0.2347
  151DOPC  H10R18066   1.132   2.887   7.956  1.1324  0.7106  1.5140
  151DOPC  C21118067   0.915   2.915   7.968 -0.0365 -0.0636 -0.7528
  151DOPC  H11R18068   0.845   2.892   8.051 -0.7081 -1.8381 -1.7570
  151DOPC  H11S18069   0.906   2.826   7.902 -2.1812 -0.2351 -0.2840
  151DOPC  C21218070   0.888   3.055   7.906  0.0768  0.8932  0.1992
  151DOPC  H12R18071   0.974   3.083   7.842 -0.6783 -0.6264 -1.6119
  151DOPC  H12S18072   0.878   3.137   7.979  0.4750  1.7499 -0.6909
  151DOPC  C21318073   0.767   3.054   7.809  0.5017 -0.2513  0.3838
  151DOPC  H13R18074   0.668   3.045   7.858 -1.3994  2.3692 -2.5726
  151DOPC  H13S18075   0.780   2.972   7.734 -0.3213  0.2133 -0.2946
  151DOPC  C21418076   0.770   3.178   7.724  0.7094 -0.1551 -0.5884
  151DOPC  H14R18077   0.779   3.275   7.777 -2.2022  1.8487 -3.3727
  151DOPC  H14S18078   0.678   3.167   7.663  1.6294 -0.4677 -1.9930
  151DOPC  C21518079   0.888   3.173   7.622  0.0509  0.1958 -0.6815
  151DOPC  H15R18080   0.899   3.071   7.579 -4.2330  0.2660 -2.3946
  151DOPC  H15S18081   0.990   3.205   7.654 -0.1943  0.5594 -0.2660
  151DOPC  C21618082   0.862   3.284   7.510  0.3164  0.1531 -0.4005
  151DOPC  H16R18083   0.963   3.291   7.463  1.0354 -0.6897  0.9275
  151DOPC  H16S18084   0.844   3.380   7.563 -0.7632  1.0968 -2.3659
  151DOPC  C21718085   0.758   3.251   7.402 -1.6106 -0.1374 -0.4708
  151DOPC  H17R18086   0.656   3.262   7.445 -1.2364  1.8566  0.0134
  151DOPC  H17S18087   0.776   3.148   7.365 -2.0666 -0.4042  0.0321
  151DOPC  C21818088   0.772   3.347   7.285  0.1349 -0.4706 -0.3523
  151DOPC  H18R18089   0.858   3.327   7.218 -0.6282 -1.2366 -1.1220
  151DOPC  H18S18090   0.769   3.451   7.324  2.3206 -0.4221 -0.1852
  151DOPC  H18T18091   0.694   3.325   7.209  1.7497  1.8128 -2.8233
  151DOPC   C3318092   0.504   3.224   8.850  0.0838 -0.6063 -0.6050
  151DOPC   H3X18093   0.523   3.319   8.905  1.3349 -1.4177  0.4096
  151DOPC   H3Y18094   0.440   3.150   8.903  3.8419 -2.7454  1.3006
  151DOPC   C3418095   0.431   3.271   8.720 -0.2424 -0.9354  0.5601
  151DOPC   H4X18096   0.384   3.184   8.672 -2.9449 -0.2032  1.7080
  151DOPC   H4Y18097   0.495   3.326   8.648  2.1338 -4.0670  0.0564
  151DOPC   C3518098   0.319   3.361   8.774 -0.1767 -0.4126  0.2378
  151DOPC   H5X18099   0.352   3.442   8.842 -0.6682 -0.6932  0.8259
  151DOPC   H5Y18100   0.243   3.305   8.833 -0.2964 -2.8963 -2.1163
  151DOPC   C3618101   0.224   3.419   8.671 -0.1863  0.6260 -0.6816
  151DOPC   H6X18102   0.195   3.338   8.600 -0.4804  0.2676 -0.1572
  151DOPC   H6Y18103   0.141   3.452   8.736 -0.4245  0.5129 -0.9262
  151DOPC   C3718104   0.270   3.540   8.593 -0.4650  0.1468 -0.1483
  151DOPC   H7X18105   0.351   3.598   8.643 -0.6987 -1.0513  1.6983
  151DOPC   H7Y18106   0.320   3.495   8.505  0.9370  2.1431 -0.4704
  151DOPC   C3818107   0.163   3.641   8.563  0.7969 -0.9782 -0.0364
  151DOPC   H8X18108   0.203   3.742   8.538 -0.0394  0.2114  2.9780
  151DOPC   H8Y18109   0.115   3.660   8.661  1.2431  2.9329 -0.3791
  151DOPC   C3918110   0.058   3.594   8.466 -0.4436 -0.0547 -0.8990
  151DOPC   H9X18111   0.030   3.490   8.489  2.1391 -0.5810  0.2755
  151DOPC  C31018112   0.022   3.650   8.351  0.2339 -0.4804 -0.6003
  151DOPC  H10X18113  -0.045   3.595   8.283  0.2287 -1.4989  0.1847
  151DOPC  C31118114   0.073   3.787   8.310 -0.1509 -1.0172  0.4924
  151DOPC  H11X18115   0.127   3.838   8.393 -0.6669 -0.6860  0.6267
  151DOPC  H11Y18116  -0.010   3.854   8.279  1.5823  0.9316 -0.2540
  151DOPC  C31218117   0.174   3.782   8.200  0.2647 -0.5884 -0.5819
  151DOPC  H12X18118   0.250   3.707   8.228 -0.2225 -1.0174 -0.3946
  151DOPC  H12Y18119   0.220   3.883   8.193 -0.8914  0.0441  0.4524
  151DOPC  C31318120   0.098   3.745   8.069 -0.8209  0.1245  0.3711
  151DOPC  H13X18121   0.084   3.635   8.081 -1.9111  0.3124  0.9324
  151DOPC  H13Y18122   0.005   3.805   8.060 -0.0077  1.7747  2.2493
  151DOPC  C31418123   0.198   3.768   7.951 -0.4710  0.7441  0.2101
  151DOPC  H14X18124   0.258   3.859   7.973 -1.1904  1.7278 -1.7019
  151DOPC  H14Y18125   0.281   3.693   7.953  0.0199  1.2855  0.6212
  151DOPC  C31518126   0.152   3.779   7.809 -0.2308  0.6063 -0.5143
  151DOPC  H15X18127   0.065   3.848   7.807 -0.2952  0.5191 -0.7411
  151DOPC  H15Y18128   0.109   3.681   7.780  0.2420  0.2633 -0.0775
  151DOPC  C31618129   0.263   3.820   7.716 -0.3594 -0.9608  0.7922
  151DOPC  H16X18130   0.294   3.920   7.753  0.5964 -0.0260 -2.2483
  151DOPC  H16Y18131   0.354   3.756   7.717  0.3274  0.0047  1.1413
  151DOPC  C31718132   0.215   3.840   7.570  0.2384  0.2579 -0.3492
  151DOPC  H17X18133   0.138   3.920   7.568 -0.1562 -0.1044  0.0646
  151DOPC  H17Y18134   0.300   3.879   7.511  0.4742  1.0385  0.4855
  151DOPC  C31818135   0.164   3.705   7.512 -0.1672 -0.5197 -0.1292
  151DOPC  H18X18136   0.073   3.681   7.572 -0.3171  2.1286  0.8686
  151DOPC  H18Y18137   0.136   3.719   7.406 -0.6707  0.2703  0.0956
  151DOPC  H18Z18138   0.247   3.632   7.509  0.3307  0.0063  0.3506
  152DOPC     N18139   3.534   0.927  10.100  0.0085  0.3439  0.1072
  152DOPC   C1218140   3.437   0.931   9.974 -0.5965 -0.8376  0.1591
  152DOPC  H12A18141   3.334   0.905   9.994 -1.2639 -0.3911 -2.4415
  152DOPC  H12B18142   3.481   0.861   9.904 -2.6400 -1.8622 -0.1873
  152DOPC   C1318143   3.512   0.795  10.168  0.3729  0.8765 -0.7334
  152DOPC  H13A18144   3.512   0.710  10.101 -3.6020 -1.2210  1.5137
  152DOPC  H13B18145   3.587   0.768  10.241 -0.6152  0.4725  0.1694
  152DOPC  H13C18146   3.415   0.779  10.214  0.3679 -3.0107 -1.7205
  152DOPC   C1418147   3.499   1.030  10.195 -0.4118  0.2552 -0.4986
  152DOPC  H14A18148   3.402   1.012  10.240 -1.0918  2.0657 -1.1376
  152DOPC  H14B18149   3.573   1.037  10.274 -0.9691 -3.0298  0.4913
  152DOPC  H14C18150   3.497   1.126  10.146  0.2515  0.9316  0.7513
  152DOPC   C1518151   3.674   0.934  10.062  1.1443  0.5681  0.5806
  152DOPC  H15A18152   3.723   0.931  10.158 -0.9053 -0.0964  1.6514
  152DOPC  H15B18153   3.704   1.027  10.014  0.7985  1.0173  1.2182
  152DOPC  H15C18154   3.697   0.854   9.994 -1.8914 -2.2897  2.6283
  152DOPC   C1118155   3.431   1.063   9.900 -0.2609 -0.3046  0.4012
  152DOPC  H11A18156   3.535   1.099   9.886 -0.6721  0.4001 -1.0688
  152DOPC  H11B18157   3.386   1.037   9.802 -0.4691 -1.4347  0.7773
  152DOPC     P18158   3.199   1.152   9.985 -0.1228 -0.3247  0.0299
  152DOPC   O1318159   3.169   1.237  10.108  0.1554 -0.7209  0.0541
  152DOPC   O1418160   3.149   1.015   9.993 -0.3422  0.1747  0.4580
  152DOPC   O1218161   3.363   1.164   9.972 -0.5984 -0.2829 -0.0194
  152DOPC   O1118162   3.139   1.220   9.855  0.0182 -0.3439 -0.0879
  152DOPC    C118163   3.196   1.337   9.802  0.1220 -0.1771 -0.2607
  152DOPC    HA18164   3.302   1.359   9.828 -0.4636  2.9990 -0.1700
  152DOPC    HB18165   3.137   1.423   9.842  0.8466  0.1032  0.2295
  152DOPC    C218166   3.192   1.342   9.648  0.3801 -0.4209  0.2869
  152DOPC    HS18167   3.093   1.382   9.618 -0.0566 -0.7608  1.2198
  152DOPC   O2118168   3.226   1.210   9.593 -0.7676  0.0974  0.3206
  152DOPC   C2118169   3.120   1.148   9.557  0.8732 -0.6490  0.2830
  152DOPC   O2218170   3.005   1.194   9.553 -0.0867 -0.0558 -0.4944
  152DOPC   C2218171   3.154   1.014   9.496  0.0208 -0.3258 -0.0379
  152DOPC   H2R18172   3.058   0.962   9.475 -0.6665  1.6705 -2.1674
  152DOPC   H2S18173   3.214   0.958   9.572  1.8054  0.6288 -0.6883
  152DOPC    C318174   3.291   1.451   9.589  0.3050 -0.8093 -1.0359
  152DOPC    HX18175   3.394   1.422   9.620  1.6405  2.7596 -1.6308
  152DOPC    HY18176   3.271   1.547   9.640  1.6220 -0.7404 -0.6105
  152DOPC   O3118177   3.291   1.452   9.442 -0.8345 -0.1452 -0.1376
  152DOPC   C3118178   3.211   1.538   9.385  0.1107 -0.4921 -0.3689
  152DOPC   O3218179   3.135   1.618   9.443  0.0999  0.5875 -0.2349
  152DOPC   C3218180   3.222   1.517   9.236 -0.0320  0.3013  0.0210
  152DOPC   H2X18181   3.328   1.528   9.205  0.1645 -2.2536 -0.4063
  152DOPC   H2Y18182   3.180   1.417   9.211 -0.6516 -0.0278  2.1623
  152DOPC   C2318183   3.259   1.020   9.378 -0.0050 -0.4466 -0.3586
  152DOPC   H3R18184   3.269   0.918   9.337 -0.4190 -0.4461 -0.4603
  152DOPC   H3S18185   3.354   1.060   9.419  0.1880 -0.9912 -0.2679
  152DOPC   C2418186   3.208   1.116   9.269 -0.5171  0.3172 -0.4581
  152DOPC   H4R18187   3.230   1.221   9.301 -1.2097 -0.0197  1.2330
  152DOPC   H4S18188   3.098   1.102   9.255 -0.4780  0.7312 -1.2446
  152DOPC   C2518189   3.280   1.092   9.134 -0.4675  0.3947 -0.1085
  152DOPC   H5R18190   3.284   0.983   9.110 -0.8057  0.5406 -0.8510
  152DOPC   H5S18191   3.387   1.116   9.151  0.6401 -1.7293 -3.2428
  152DOPC   C2618192   3.233   1.176   9.014 -0.3679  0.1489  0.5552
  152DOPC   H6R18193   3.202   1.273   9.056 -0.6868 -0.1355  0.9839
  152DOPC   H6S18194   3.145   1.122   8.972  1.4625 -0.2112 -3.2230
  152DOPC   C2718195   3.343   1.185   8.907 -0.2794  0.5486  0.5679
  152DOPC   H7R18196   3.385   1.084   8.886  3.2884  2.1379 -0.7992
  152DOPC   H7S18197   3.431   1.239   8.948 -0.0854 -0.8050  2.0368
  152DOPC   C2818198   3.301   1.254   8.775  0.3895  0.5499 -0.3069
  152DOPC   H8R18199   3.392   1.285   8.719  0.2187 -0.2083 -1.0258
  152DOPC   H8S18200   3.245   1.346   8.803 -0.4506 -0.0683  0.1032
  152DOPC   C2918201   3.218   1.156   8.693 -0.3978  0.7704 -0.2636
  152DOPC   H9R18202   3.154   1.092   8.756  0.0514  0.1421 -0.4379
  152DOPC  C21018203   3.238   1.132   8.563  0.4846 -0.4724 -0.4175
  152DOPC  H10R18204   3.167   1.068   8.509 -1.2561  1.3180 -0.3296
  152DOPC  C21118205   3.333   1.205   8.470 -0.7042 -0.6396  0.3448
  152DOPC  H11R18206   3.433   1.162   8.494 -0.8504 -1.1506  0.0415
  152DOPC  H11S18207   3.345   1.311   8.502 -0.8692 -0.3212 -0.5988
  152DOPC  C21218208   3.308   1.194   8.317 -0.0851  0.8195 -1.0630
  152DOPC  H12R18209   3.283   1.087   8.298  0.3916  0.6110 -0.5444
  152DOPC  H12S18210   3.399   1.223   8.261  0.9301 -1.4194 -0.6801
  152DOPC  C21318211   3.198   1.292   8.269 -0.4619 -0.2985 -0.3055
  152DOPC  H13R18212   3.200   1.380   8.337 -0.3470 -1.1780  0.8569
  152DOPC  H13S18213   3.099   1.245   8.291  0.1319 -1.6830 -0.4989
  152DOPC  C21418214   3.220   1.338   8.124 -0.1620 -0.6834  0.1145
  152DOPC  H14R18215   3.323   1.380   8.119 -1.6846  4.3068  3.3550
  152DOPC  H14S18216   3.143   1.417   8.105  0.7385  0.0041 -0.7939
  152DOPC  C21518217   3.208   1.223   8.021  0.6366  0.2702  0.2183
  152DOPC  H15R18218   3.116   1.163   8.036  0.9808  0.3577  3.5012
  152DOPC  H15S18219   3.294   1.156   8.045  1.8991  2.3063  1.6603
  152DOPC  C21618220   3.210   1.267   7.870  0.8666 -0.3497  0.6324
  152DOPC  H16R18221   3.132   1.342   7.843 -0.3579 -1.9048 -0.2712
  152DOPC  H16S18222   3.185   1.178   7.809 -1.8569  0.6840  0.0876
  152DOPC  C21718223   3.342   1.331   7.817 -0.2615  0.4074  0.1420
  152DOPC  H17R18224   3.390   1.403   7.887  2.8144 -0.0067 -1.3611
  152DOPC  H17S18225   3.311   1.369   7.718  0.8077 -0.2988 -0.4758
  152DOPC  C21818226   3.455   1.222   7.805  0.0716 -0.0418 -0.3527
  152DOPC  H18R18227   3.478   1.187   7.908 -0.6075 -0.7206 -0.4281
  152DOPC  H18S18228   3.552   1.268   7.777  1.7902 -1.9669  1.9871
  152DOPC  H18T18229   3.420   1.135   7.746 -0.5255 -0.3925  0.5043
  152DOPC   C3318230   3.135   1.620   9.163 -0.1039  0.4341  0.5749
  152DOPC   H3X18231   3.156   1.721   9.205 -3.8935  0.9704  1.5932
  152DOPC   H3Y18232   3.030   1.597   9.189 -0.8767  1.6289 -1.2278
  152DOPC   C3418233   3.146   1.616   9.009  0.3008 -0.3523 -0.3348
  152DOPC   H4X18234   3.049   1.653   8.968  1.5911  0.5693 -2.7720
  152DOPC   H4Y18235   3.159   1.507   8.991  0.3365 -0.5869  1.0296
  152DOPC   C3518236   3.257   1.709   8.948  0.4180  0.5248 -0.4679
  152DOPC   H5X18237   3.351   1.670   8.994 -0.6489 -1.1163  0.4222
  152DOPC   H5Y18238   3.237   1.811   8.987  0.3384 -0.0261  1.0025
  152DOPC   C3618239   3.251   1.708   8.794  0.7782  0.6601  0.6963
  152DOPC   H6X18240   3.326   1.784   8.762 -0.0980  0.1329 -3.1924
  152DOPC   H6Y18241   3.291   1.611   8.758 -0.7676 -0.0539  0.8052
  152DOPC   C3718242   3.122   1.757   8.721  0.2452  0.5480  0.1350
  152DOPC   H7X18243   3.051   1.673   8.735  1.5488 -1.0315 -2.0434
  152DOPC   H7Y18244   3.087   1.853   8.765 -0.3926 -0.5262  2.1004
  152DOPC   C3818245   3.136   1.772   8.562  0.2011 -0.7937 -0.4283
  152DOPC   H8X18246   3.203   1.860   8.553 -2.7841  1.7737  0.6774
  152DOPC   H8Y18247   3.037   1.809   8.528  0.3896 -0.7941 -0.9747
  152DOPC   C3918248   3.178   1.655   8.478 -0.2972 -0.0902  0.0731
  152DOPC   H9X18249   3.094   1.585   8.460  0.2281 -0.9229  0.7684
  152DOPC  C31018250   3.303   1.626   8.432  0.5220  0.2481  0.2273
  152DOPC  H10X18251   3.318   1.538   8.368  0.7332  1.1116 -0.9505
  152DOPC  C31118252   3.426   1.710   8.461  0.1469  0.1269  0.8772
  152DOPC  H11X18253   3.514   1.647   8.485  1.6959  1.6179 -0.6043
  152DOPC  H11Y18254   3.411   1.772   8.552  0.6091  0.9021  0.4372
  152DOPC  C31218255   3.463   1.806   8.345  0.0718  0.4071  0.6891
  152DOPC  H12X18256   3.531   1.889   8.374 -0.1964 -0.0658  2.8137
  152DOPC  H12Y18257   3.374   1.858   8.303 -0.1685 -0.6094 -0.1135
  152DOPC  C31318258   3.520   1.729   8.220 -0.2822  0.0480  0.4047
  152DOPC  H13X18259   3.625   1.705   8.247 -0.3338  0.5826  1.1150
  152DOPC  H13Y18260   3.465   1.632   8.218  1.2708 -0.8823  1.0358
  152DOPC  C31418261   3.494   1.806   8.093  0.1210  0.2686 -0.4961
  152DOPC  H14X18262   3.393   1.852   8.090 -0.6756 -1.1541  1.8403
  152DOPC  H14Y18263   3.560   1.895   8.085 -0.8060  0.8543 -2.2261
  152DOPC  C31518264   3.514   1.717   7.970  0.2131  0.5085  0.8079
  152DOPC  H15X18265   3.442   1.633   7.976 -2.4888  2.7080  0.7781
  152DOPC  H15Y18266   3.617   1.675   7.967 -0.4452 -1.1188 -1.0013
  152DOPC  C31618267   3.490   1.787   7.832  0.0032 -0.0740 -0.1315
  152DOPC  H16X18268   3.480   1.712   7.751  2.1997  0.9292 -1.4312
  152DOPC  H16Y18269   3.405   1.857   7.846  1.0390  1.0685  0.6454
  152DOPC  C31718270   3.622   1.862   7.794  0.8643  0.3516  0.5823
  152DOPC  H17X18271   3.598   1.939   7.717 -2.0864 -0.5716  0.4320
  152DOPC  H17Y18272   3.656   1.933   7.873  1.9412  1.4166 -0.7750
  152DOPC  C31818273   3.739   1.778   7.748  1.0397  0.1137  0.2988
  152DOPC  H18X18274   3.700   1.694   7.686  1.8454  1.0459 -1.5562
  152DOPC  H18Y18275   3.819   1.840   7.704 -0.8451  2.9254  0.5288
  152DOPC  H18Z18276   3.788   1.733   7.836  1.4585  0.3600  0.1929
  153DOPC     N18277   3.285   6.205   9.882 -0.3994 -0.1928  0.3004
  153DOPC   C1218278   3.430   6.169   9.864 -0.7869 -0.4220 -0.6346
  153DOPC  H12A18279   3.437   6.063   9.842  2.2549 -0.5892  0.7101
  153DOPC  H12B18280   3.467   6.186   9.964 -1.5217  0.4113 -0.4909
  153DOPC   C1318281   3.227   6.120   9.998 -0.3701  0.4808 -0.6765
  153DOPC  H13A18282   3.241   6.015   9.978  1.4126  0.7468 -0.9443
  153DOPC  H13B18283   3.289   6.136  10.085 -1.0808  0.4760 -0.1520
  153DOPC  H13C18284   3.124   6.142  10.022 -0.1984  2.9982 -1.8893
  153DOPC   C1418285   3.215   6.184   9.756  0.2524 -0.3577 -0.3275
  153DOPC  H14A18286   3.107   6.196   9.760  0.3488  1.2773 -1.6673
  153DOPC  H14B18287   3.250   6.242   9.672 -0.3325 -1.4010 -1.3239
  153DOPC  H14C18288   3.229   6.079   9.734 -0.0903 -0.5781  0.4635
  153DOPC   C1518289   3.277   6.351   9.917  0.8426  0.2403 -0.2872
  153DOPC  H15A18290   3.324   6.370  10.012  0.6592 -0.1631 -0.1133
  153DOPC  H15B18291   3.176   6.387   9.910  0.9987  0.7231 -0.0924
  153DOPC  H15C18292   3.322   6.413   9.841 -2.9927  2.1134 -1.2360
  153DOPC   C1118293   3.523   6.244   9.762  0.1158  0.4888  0.2559
  153DOPC  H11A18294   3.603   6.179   9.720 -0.9318 -1.0630  0.5869
  153DOPC  H11B18295   3.457   6.263   9.675 -0.2128  1.5695  0.7303
  153DOPC     P18296   3.552   6.512   9.749  0.0557  0.2667 -0.4704
  153DOPC   O1318297   3.625   6.599   9.844 -0.4290  0.9178 -0.1071
  153DOPC   O1418298   3.405   6.534   9.735 -0.4392 -0.4677  0.1796
  153DOPC   O1218299   3.578   6.369   9.808  0.3444  0.2320  0.4823
  153DOPC   O1118300   3.623   6.517   9.611  0.4424  0.5164 -0.0779
  153DOPC    C118301   3.739   6.434   9.599 -0.1826 -0.2342 -0.0105
  153DOPC    HA18302   3.720   6.325   9.609  2.0229 -0.6587 -0.0062
  153DOPC    HB18303   3.810   6.450   9.683  1.0711  1.1082 -1.2702
  153DOPC    C218304   3.814   6.476   9.469 -0.3872 -0.7970  0.1671
  153DOPC    HS18305   3.844   6.583   9.471 -1.0230 -0.6252  1.9443
  153DOPC   O2118306   3.723   6.444   9.363 -0.0630 -0.5159  0.1005
  153DOPC   C2118307   3.677   6.556   9.297 -0.3913 -0.3364 -0.4000
  153DOPC   O2218308   3.690   6.671   9.333 -0.1114  0.8335 -0.5982
  153DOPC   C2218309   3.599   6.504   9.182  0.2409 -0.1576 -0.0898
  153DOPC   H2R18310   3.510   6.466   9.235 -1.9259  4.0193 -0.3128
  153DOPC   H2S18311   3.651   6.419   9.132  2.7360  0.7289  0.8429
  153DOPC    C318312   3.949   6.393   9.474  0.0671  0.0229  0.3312
  153DOPC    HX18313   4.015   6.445   9.547  2.9360 -2.7568 -0.0624
  153DOPC    HY18314   4.000   6.404   9.376  0.3551  1.5438  0.6248
  153DOPC   O3118315   3.933   6.257   9.512  0.4932 -0.0250 -0.0827
  153DOPC   C3118316   4.008   6.169   9.448  0.1207 -0.0733 -0.4670
  153DOPC   O3218317   4.093   6.205   9.365  0.0876  0.2327 -0.4177
  153DOPC   C3218318   3.974   6.024   9.477  0.8001 -0.3902  0.7484
  153DOPC   H2X18319   4.059   5.981   9.535  1.3341  0.4588  0.6158
  153DOPC   H2Y18320   3.895   6.047   9.551 -1.0516  1.4281 -1.6394
  153DOPC   C2318321   3.555   6.610   9.075  0.6998 -0.0356 -0.2965
  153DOPC   H3R18322   3.647   6.668   9.049 -0.4730  1.6302 -0.9305
  153DOPC   H3S18323   3.486   6.681   9.125 -0.8682 -0.8019 -1.3046
  153DOPC   C2418324   3.488   6.560   8.950 -0.8868  0.6286  0.3520
  153DOPC   H4R18325   3.379   6.552   8.966 -1.1896  0.1748 -1.5842
  153DOPC   H4S18326   3.534   6.463   8.920  0.6028  1.8637 -1.6475
  153DOPC   C2518327   3.502   6.665   8.839 -0.4733 -0.0317  0.2295
  153DOPC   H5R18328   3.606   6.670   8.801 -1.0220  0.2560 -1.3141
  153DOPC   H5S18329   3.467   6.764   8.878 -1.6560 -0.2096 -0.3190
  153DOPC   C2618330   3.400   6.625   8.726  0.7646 -0.6751 -0.0625
  153DOPC   H6R18331   3.303   6.591   8.769 -0.3703 -0.9207 -2.5837
  153DOPC   H6S18332   3.435   6.539   8.664 -0.2284  0.1683 -1.8851
  153DOPC   C2718333   3.362   6.751   8.629  0.3691  0.4957  0.4125
  153DOPC   H7R18334   3.457   6.790   8.588  0.0509 -1.2022 -2.2035
  153DOPC   H7S18335   3.302   6.827   8.683  1.7950  1.1790  1.0832
  153DOPC   C2818336   3.262   6.699   8.517 -0.2098  0.2873  0.2053
  153DOPC   H8R18337   3.169   6.658   8.560 -0.1722  0.7117  0.6941
  153DOPC   H8S18338   3.324   6.621   8.468 -1.3790 -0.9931  0.7183
  153DOPC   C2918339   3.229   6.809   8.425 -0.1151 -0.0632  0.1161
  153DOPC   H9R18340   3.239   6.906   8.474  0.1767  0.4847 -0.9980
  153DOPC  C21018341   3.233   6.799   8.291  0.0733  0.0580 -0.0826
  153DOPC  H10R18342   3.189   6.880   8.231 -0.5206 -0.0915  0.1399
  153DOPC  C21118343   3.248   6.675   8.216  0.1272  0.8457 -0.4478
  153DOPC  H11R18344   3.157   6.615   8.196  0.7331 -0.4156  0.4504
  153DOPC  H11S18345   3.321   6.608   8.266 -1.9963 -1.3528 -0.1227
  153DOPC  C21218346   3.305   6.716   8.083 -0.1387  0.2517 -0.0236
  153DOPC  H12R18347   3.228   6.770   8.024 -0.3789  1.0959  1.0248
  153DOPC  H12S18348   3.324   6.620   8.029 -3.2117  0.8616 -2.5008
  153DOPC  C21318349   3.434   6.795   8.094  0.3946  0.2833 -0.7556
  153DOPC  H13R18350   3.496   6.734   8.163 -3.2401 -1.1553  1.5026
  153DOPC  H13S18351   3.425   6.894   8.144  0.5344 -0.3950  0.6671
  153DOPC  C21418352   3.498   6.812   7.954 -0.3156  0.7552  0.3297
  153DOPC  H14R18353   3.495   6.719   7.894  1.6952  0.6691  0.2759
  153DOPC  H14S18354   3.606   6.838   7.960 -0.3661  0.7525  1.4639
  153DOPC  C21518355   3.424   6.923   7.877 -0.5247  0.2826 -0.2848
  153DOPC  H15R18356   3.414   7.007   7.949  2.2999  0.2707  0.2311
  153DOPC  H15S18357   3.327   6.884   7.840  0.5435 -2.2713 -0.5693
  153DOPC  C21618358   3.510   6.974   7.767  0.0881  0.2685 -0.0527
  153DOPC  H16R18359   3.558   6.891   7.711 -0.2887 -0.3374  0.4961
  153DOPC  H16S18360   3.597   7.022   7.817  1.1787 -0.5470 -1.1061
  153DOPC  C21718361   3.441   7.079   7.670 -0.1023 -0.4290  0.3565
  153DOPC  H17R18362   3.409   7.171   7.724  0.7584 -0.2986  0.6647
  153DOPC  H17S18363   3.347   7.035   7.632 -1.4044  0.9310  1.8393
  153DOPC  C21818364   3.534   7.109   7.549  0.5262  0.8028  0.4950
  153DOPC  H18R18365   3.510   7.204   7.498  1.1559 -0.0971 -1.5621
  153DOPC  H18S18366   3.519   7.024   7.480  0.9091  0.5487  0.7189
  153DOPC  H18T18367   3.643   7.118   7.573  0.7373  1.3975 -0.6585
  153DOPC   C3318368   3.921   5.933   9.370 -0.4181  0.5205  1.3140
  153DOPC   H3X18369   3.838   5.976   9.310 -0.8323 -1.9246  0.0327
  153DOPC   H3Y18370   3.868   5.845   9.413  1.7724  0.3804  4.0050
  153DOPC   C3418371   4.028   5.894   9.265  0.8213 -0.2798  0.6517
  153DOPC   H4X18372   4.091   5.980   9.235  0.9389 -0.2127  1.0918
  153DOPC   H4Y18373   3.983   5.847   9.174  2.8903 -0.6481 -0.2312
  153DOPC   C3518374   4.129   5.792   9.314 -0.3342  0.1473 -0.3486
  153DOPC   H5X18375   4.175   5.814   9.413  2.4075  3.1319 -2.0791
  153DOPC   H5Y18376   4.218   5.800   9.248  0.3925 -0.3797  0.5432
  153DOPC   C3618377   4.081   5.648   9.305  0.3775 -0.0560 -0.3006
  153DOPC   H6X18378   4.023   5.626   9.213  0.0242 -1.4301  0.2213
  153DOPC   H6Y18379   4.172   5.585   9.292  0.0976 -0.3197 -1.0718
  153DOPC   C3718380   4.017   5.600   9.441 -0.1996  0.1632  0.3809
  153DOPC   H7X18381   4.083   5.619   9.529 -1.4619 -1.0959  1.6673
  153DOPC   H7Y18382   3.926   5.664   9.449 -0.2696  0.1341 -0.1417
  153DOPC   C3818383   3.976   5.455   9.441  0.7116  0.7568  0.2189
  153DOPC   H8X18384   3.917   5.437   9.349 -0.1248  0.6780  0.7667
  153DOPC   H8Y18385   3.899   5.435   9.517  2.5244  2.8422  2.7680
  153DOPC   C3918386   4.089   5.358   9.449 -0.4183  0.1864 -0.5781
  153DOPC   H9X18387   4.130   5.358   9.551 -2.0114  3.6765  0.2098
  153DOPC  C31018388   4.154   5.289   9.352  0.3225  0.1195  0.2400
  153DOPC  H10X18389   4.243   5.231   9.383 -0.5405 -0.8665  0.9286
  153DOPC  C31118390   4.122   5.265   9.199  0.7398 -0.4760 -0.5061
  153DOPC  H11X18391   4.045   5.337   9.163 -0.7618 -1.6976  0.1222
  153DOPC  H11Y18392   4.083   5.162   9.187 -0.5260  0.1866 -2.4740
  153DOPC  C31218393   4.244   5.286   9.105 -0.1622  0.4027 -0.5760
  153DOPC  H12X18394   4.321   5.206   9.115 -0.3684  0.2134 -0.4985
  153DOPC  H12Y18395   4.288   5.388   9.108 -0.4224  0.4867  0.8795
  153DOPC  C31318396   4.190   5.273   8.960 -0.2399 -0.6073  0.1660
  153DOPC  H13X18397   4.124   5.185   8.946  0.2563 -0.5785 -3.1657
  153DOPC  H13Y18398   4.128   5.365   8.955 -1.0796 -1.0735  1.4029
  153DOPC  C31418399   4.300   5.286   8.849 -0.1509 -0.4537 -0.3225
  153DOPC  H14X18400   4.381   5.354   8.885  1.3815 -2.0666 -0.6053
  153DOPC  H14Y18401   4.351   5.188   8.842  0.9457 -0.1180  2.0056
  153DOPC  C31518402   4.243   5.342   8.714 -0.0756 -0.0769 -1.2391
  153DOPC  H15X18403   4.191   5.439   8.729 -3.1720 -1.7876  0.1044
  153DOPC  H15Y18404   4.163   5.275   8.675  0.5798 -0.5354 -1.8275
  153DOPC  C31618405   4.351   5.356   8.596  0.3475 -0.0252 -0.7588
  153DOPC  H16X18406   4.433   5.417   8.638  0.1739 -1.2756  1.5543
  153DOPC  H16Y18407   4.395   5.259   8.564  1.1318 -0.5011  1.5941
  153DOPC  C31718408   4.295   5.426   8.471 -0.1655  1.1052 -0.0514
  153DOPC  H17X18409   4.368   5.418   8.387 -0.6358 -0.9609 -0.3037
  153DOPC  H17Y18410   4.209   5.362   8.441  0.8870 -0.3529 -0.0308
  153DOPC  C31818411   4.251   5.568   8.486  0.5725 -0.1124 -0.3224
  153DOPC  H18X18412   4.227   5.588   8.592  2.0333  2.2149 -0.3616
  153DOPC  H18Y18413   4.328   5.633   8.439  1.3547 -0.8338 -0.0778
  153DOPC  H18Z18414   4.167   5.597   8.420  2.2106 -0.0337 -2.4715
  154DOPC     N18415   5.860   2.899   9.600 -0.1311 -0.2243  0.7150
  154DOPC   C1218416   5.882   3.032   9.528 -0.3179  0.2094  0.0771
  154DOPC  H12A18417   5.788   3.067   9.487  0.2236  0.8063 -0.6549
  154DOPC  H12B18418   5.946   3.025   9.442  0.1726 -1.6444  0.5323
  154DOPC   C1318419   5.983   2.870   9.673 -0.1553  0.3383  0.3974
  154DOPC  H13A18420   6.060   2.842   9.603 -1.1711 -0.3774 -0.4555
  154DOPC  H13B18421   6.010   2.951   9.741 -1.2547  0.4501  0.7214
  154DOPC  H13C18422   5.961   2.793   9.746 -1.6642  0.5410  0.1912
  154DOPC   C1418423   5.828   2.793   9.499 -0.1906  0.9010  0.0292
  154DOPC  H14A18424   5.901   2.795   9.419 -1.7225 -0.2288 -1.4699
  154DOPC  H14B18425   5.834   2.704   9.559 -0.6744  0.6588 -0.2714
  154DOPC  H14C18426   5.728   2.805   9.460 -0.1314  1.0136 -0.0914
  154DOPC   C1518427   5.758   2.913   9.702 -0.1911  0.1535 -0.1142
  154DOPC  H15A18428   5.774   2.849   9.787  2.0817  0.5724 -0.1714
  154DOPC  H15B18429   5.659   2.883   9.668 -0.0841 -4.9442  3.0244
  154DOPC  H15C18430   5.764   3.015   9.736  2.2580  1.2375 -3.2907
  154DOPC   C1118431   5.936   3.156   9.616 -0.0312  1.0337  0.8481
  154DOPC  H11A18432   6.026   3.129   9.675 -1.3082  2.0826  3.4551
  154DOPC  H11B18433   5.963   3.231   9.538 -0.6775  2.0824  1.5950
  154DOPC     P18434   5.703   3.290   9.667 -0.2205 -0.1221 -0.1356
  154DOPC   O1318435   5.725   3.427   9.697  0.4365 -0.1589 -0.3949
  154DOPC   O1418436   5.582   3.229   9.726 -0.0625 -0.4125  0.3876
  154DOPC   O1218437   5.833   3.208   9.707 -0.4654  0.0330 -0.0640
  154DOPC   O1118438   5.703   3.283   9.510 -0.3788  0.1545 -0.0897
  154DOPC    C118439   5.592   3.238   9.435 -0.3021 -0.3509 -0.0010
  154DOPC    HA18440   5.511   3.314   9.442  0.0402 -0.0451  0.8108
  154DOPC    HB18441   5.548   3.145   9.477 -1.8510  0.1935 -0.3156
  154DOPC    C218442   5.625   3.199   9.293  0.6425  0.1815 -0.1708
  154DOPC    HS18443   5.685   3.106   9.296  0.3706  0.0128  0.0848
  154DOPC   O2118444   5.680   3.306   9.223  0.1969  0.2610 -0.4444
  154DOPC   C2118445   5.812   3.305   9.232 -0.2958 -0.1586 -0.5145
  154DOPC   O2218446   5.884   3.218   9.277  0.1458 -0.4453 -0.1588
  154DOPC   C2218447   5.863   3.436   9.170  0.3814  0.5330  0.3498
  154DOPC   H2R18448   5.974   3.434   9.169  0.4479  0.5372 -2.8611
  154DOPC   H2S18449   5.832   3.520   9.236 -2.1644 -0.2329  0.2286
  154DOPC    C318450   5.491   3.161   9.225  0.5894 -0.1427 -0.2045
  154DOPC    HX18451   5.429   3.252   9.239  1.6003  0.2816  2.0088
  154DOPC    HY18452   5.442   3.077   9.278  1.9575  0.8197  2.8326
  154DOPC   O3118453   5.522   3.127   9.088  0.7504  0.3639  0.3058
  154DOPC   C3118454   5.478   3.192   8.991  0.5877 -0.4292 -0.2822
  154DOPC   O3218455   5.407   3.295   8.999  0.4405  0.2462  0.2430
  154DOPC   C3218456   5.511   3.134   8.852  0.6377  0.2396  0.2357
  154DOPC   H2X18457   5.622   3.136   8.856  0.5851  1.3060  1.7890
  154DOPC   H2Y18458   5.475   3.030   8.834  0.7550  0.2276  0.0690
  154DOPC   C2318459   5.804   3.467   9.022  0.0272 -0.1889  0.6580
  154DOPC   H3R18460   5.797   3.575   8.997 -0.7286 -0.4588 -0.3544
  154DOPC   H3S18461   5.700   3.428   9.020 -0.0268 -0.0657  0.9085
  154DOPC   C2418462   5.873   3.390   8.910  0.1450  0.3269  0.2181
  154DOPC   H4R18463   5.884   3.280   8.921 -0.8463  0.1476 -0.4092
  154DOPC   H4S18464   5.979   3.421   8.901  0.5247 -0.6537  1.1337
  154DOPC   C2518465   5.787   3.424   8.783 -0.0108  0.0719 -0.2269
  154DOPC   H5R18466   5.786   3.534   8.766  0.1935  0.3177  1.2294
  154DOPC   H5S18467   5.681   3.402   8.806  0.6517  0.5656  3.9981
  154DOPC   C2618468   5.838   3.350   8.659  0.3874 -0.2056  0.4649
  154DOPC   H6R18469   5.824   3.240   8.666 -1.1255 -0.1415 -1.0598
  154DOPC   H6S18470   5.945   3.376   8.642  0.8076 -0.1085  2.8447
  154DOPC   C2718471   5.750   3.398   8.543  0.1644  0.0244  0.0483
  154DOPC   H7R18472   5.767   3.507   8.530 -0.6488  0.0304 -1.0291
  154DOPC   H7S18473   5.642   3.392   8.569 -0.0584  1.9470 -0.2827
  154DOPC   C2818474   5.775   3.315   8.413 -0.2050  0.2545 -0.3787
  154DOPC   H8R18475   5.729   3.214   8.424  3.3268 -1.6602 -1.4739
  154DOPC   H8S18476   5.883   3.295   8.397  0.1341  2.4785 -1.1803
  154DOPC   C2918477   5.707   3.387   8.299  1.0688 -0.2537  0.3603
  154DOPC   H9R18478   5.605   3.415   8.328  0.8260 -1.8569  1.1617
  154DOPC  C21018479   5.759   3.414   8.177  0.5645 -0.0315 -0.0959
  154DOPC  H10R18480   5.687   3.452   8.103 -1.3687  0.7286  2.0506
  154DOPC  C21118481   5.890   3.370   8.119  0.5931  0.0415  0.0721
  154DOPC  H11R18482   5.953   3.311   8.189  1.8048  0.7860 -0.3594
  154DOPC  H11S18483   5.937   3.464   8.083  1.6953 -1.1757 -1.8054
  154DOPC  C21218484   5.880   3.279   7.991 -0.5040 -0.6018 -0.1164
  154DOPC  H12R18485   5.986   3.261   7.963 -1.1073 -0.8739 -2.3748
  154DOPC  H12S18486   5.846   3.337   7.903  1.7804  0.2096 -0.5371
  154DOPC  C21318487   5.805   3.142   8.009  0.2671 -0.5938 -0.0548
  154DOPC  H13R18488   5.707   3.179   8.045  0.0751 -0.4644 -0.7038
  154DOPC  H13S18489   5.840   3.095   8.103 -0.8750  0.2718  0.8211
  154DOPC  C21418490   5.803   3.058   7.892  0.1926  0.4970 -0.0820
  154DOPC  H14R18491   5.816   3.115   7.798 -0.5814  0.1085 -0.4327
  154DOPC  H14S18492   5.705   3.006   7.889  1.6461 -2.5464  1.0401
  154DOPC  C21518493   5.912   2.946   7.898  0.5281 -0.2040  0.2751
  154DOPC  H15R18494   5.906   2.882   7.989 -0.8290 -0.5958 -0.0674
  154DOPC  H15S18495   6.008   3.002   7.900 -0.7496  2.1016  0.8775
  154DOPC  C21618496   5.900   2.851   7.781  0.1405 -0.1142  0.6007
  154DOPC  H16R18497   5.805   2.792   7.782 -0.8239  1.3579 -0.3781
  154DOPC  H16S18498   5.985   2.781   7.795  0.2267  0.1157  1.2548
  154DOPC  C21718499   5.919   2.916   7.638 -0.5548  0.3346  0.6024
  154DOPC  H17R18500   6.013   2.974   7.648 -0.2428 -0.3315  1.6930
  154DOPC  H17S18501   5.832   2.982   7.621 -0.8907  0.5201  2.7212
  154DOPC  C21818502   5.946   2.808   7.531  0.8522 -0.2840  0.0410
  154DOPC  H18R18503   6.038   2.750   7.550  0.8585  0.2439  1.8407
  154DOPC  H18S18504   5.961   2.855   7.432 -2.6165 -1.0083 -0.9939
  154DOPC  H18T18505   5.860   2.738   7.520  1.0046 -0.4157 -0.3453
  154DOPC   C3318506   5.461   3.214   8.733 -0.0839 -0.2197 -0.4049
  154DOPC   H3X18507   5.491   3.321   8.736 -1.5281  0.1976 -0.2120
  154DOPC   H3Y18508   5.351   3.215   8.747 -0.1139 -1.8334 -0.2982
  154DOPC   C3418509   5.500   3.160   8.590  0.3227 -0.1355 -0.2533
  154DOPC   H4X18510   5.474   3.052   8.590 -0.6670  0.0876 -1.3598
  154DOPC   H4Y18511   5.610   3.172   8.584  0.3133  0.1202  0.0153
  154DOPC   C3518512   5.419   3.222   8.476 -0.5760  0.0019  0.2405
  154DOPC   H5X18513   5.438   3.331   8.474 -1.0821  0.1166  1.1655
  154DOPC   H5Y18514   5.311   3.206   8.495 -0.7975  0.9538 -0.1727
  154DOPC   C3618515   5.454   3.157   8.339  0.1460  0.4821 -0.0292
  154DOPC   H6X18516   5.564   3.167   8.330  0.0338  0.7821 -1.2964
  154DOPC   H6Y18517   5.428   3.049   8.343 -2.3265  0.9268 -1.9492
  154DOPC   C3718518   5.371   3.204   8.218 -0.3094 -0.0496 -0.3673
  154DOPC   H7X18519   5.268   3.228   8.250 -0.9296 -0.6071 -1.8800
  154DOPC   H7Y18520   5.415   3.302   8.187  0.9051 -0.7605 -0.9668
  154DOPC   C3818521   5.369   3.102   8.103 -0.2533 -0.0260  0.7379
  154DOPC   H8X18522   5.355   3.009   8.162  2.4117 -0.2015  1.1939
  154DOPC   H8Y18523   5.470   3.096   8.058  0.7936  2.5229  2.4982
  154DOPC   C3918524   5.270   3.123   7.991  0.6065  0.3436 -0.4017
  154DOPC   H9X18525   5.259   3.229   7.965 -0.2175  0.2549 -0.4391
  154DOPC  C31018526   5.213   3.028   7.914 -0.5880  0.3426  0.2877
  154DOPC  H10X18527   5.149   3.060   7.831 -1.5001  1.1954  1.3041
  154DOPC  C31118528   5.238   2.877   7.924  0.0652 -0.2920  0.4346
  154DOPC  H11X18529   5.158   2.815   7.878  0.1629 -0.2829  0.2548
  154DOPC  H11Y18530   5.247   2.837   8.027 -0.9541 -2.1408 -0.1458
  154DOPC  C31218531   5.364   2.833   7.845 -0.8538  0.1258  0.1460
  154DOPC  H12X18532   5.362   2.723   7.858 -1.7699  0.3216  2.0757
  154DOPC  H12Y18533   5.457   2.871   7.892 -0.2583 -0.1496 -0.7861
  154DOPC  C31318534   5.354   2.851   7.690 -0.0192 -0.0699 -0.1212
  154DOPC  H13X18535   5.277   2.792   7.637 -1.7329 -1.5012  3.6384
  154DOPC  H13Y18536   5.322   2.953   7.660 -1.1981 -0.9027 -1.7737
  154DOPC  C31418537   5.494   2.822   7.627  0.7487 -0.1101 -0.0156
  154DOPC  H14X18538   5.577   2.888   7.661 -1.3453  2.8440 -0.2261
  154DOPC  H14Y18539   5.528   2.726   7.672  2.6718  0.7371  0.4724
  154DOPC  C31518540   5.494   2.825   7.473  0.6709  0.9400 -0.0908
  154DOPC  H15X18541   5.603   2.811   7.453  0.4766 -1.2868  0.1551
  154DOPC  H15Y18542   5.452   2.915   7.424  0.7236  0.8546 -0.2904
  154DOPC  C31618543   5.419   2.703   7.418 -0.4936 -0.3128  0.1932
  154DOPC  H16X18544   5.427   2.620   7.492  0.4693  0.6340  1.1862
  154DOPC  H16Y18545   5.312   2.727   7.402 -0.2247  0.9602  0.2623
  154DOPC  C31718546   5.476   2.679   7.279  0.4770  0.5398  0.7582
  154DOPC  H17X18547   5.489   2.767   7.212  1.8620 -0.9288 -0.9793
  154DOPC  H17Y18548   5.580   2.643   7.294  0.2362 -0.1191  0.8605
  154DOPC  C31818549   5.398   2.569   7.206 -0.1686 -0.1754 -0.3981
  154DOPC  H18X18550   5.291   2.581   7.180  0.1574 -0.0247 -1.7216
  154DOPC  H18Y18551   5.453   2.547   7.112  2.1165  0.4058  0.7086
  154DOPC  H18Z18552   5.407   2.475   7.264  1.9676  0.2063 -0.0223
  155DOPC     N18553   0.671   1.294  10.196  0.1072 -0.6232 -0.1624
  155DOPC   C1218554   0.687   1.367  10.056 -0.1747 -0.4800  0.2223
  155DOPC  H12A18555   0.793   1.357  10.038  0.3746 -0.3579  3.0189
  155DOPC  H12B18556   0.662   1.472  10.070 -1.4464 -0.7267 -0.0719
  155DOPC   C1318557   0.678   1.146  10.173  0.0029  0.2923 -0.0731
  155DOPC  H13A18558   0.650   1.090  10.261  0.6830 -0.6995 -0.4708
  155DOPC  H13B18559   0.619   1.113  10.089 -2.5533  1.2686  1.2477
  155DOPC  H13C18560   0.780   1.117  10.153  0.0239  0.5387 -0.3399
  155DOPC   C1418561   0.534   1.326  10.257  0.2750 -0.9603 -0.2910
  155DOPC  H14A18562   0.446   1.308  10.196 -1.0415  2.6441  0.3260
  155DOPC  H14B18563   0.524   1.261  10.343 -0.2212 -1.2868 -0.5861
  155DOPC  H14C18564   0.525   1.429  10.286  1.3740 -0.5124 -1.4254
  155DOPC   C1518565   0.778   1.327  10.298 -0.7606  0.0179 -0.3555
  155DOPC  H15A18566   0.876   1.303  10.259 -0.2988 -1.4130  1.5646
  155DOPC  H15B18567   0.767   1.275  10.392 -1.1287  0.3792 -0.1977
  155DOPC  H15C18568   0.769   1.429  10.330 -0.0753 -0.4582  1.4906
  155DOPC   C1118569   0.601   1.320   9.938  0.8665  0.5454  0.2424
  155DOPC  H11A18570   0.494   1.318   9.969  0.8153 -0.0088  0.0556
  155DOPC  H11B18571   0.609   1.392   9.854 -1.5188  0.8877  0.2197
  155DOPC     P18572   0.772   1.174   9.789  0.3692 -0.4538 -0.0258
  155DOPC   O1318573   0.819   1.036   9.786  0.1118 -0.3595  0.5902
  155DOPC   O1418574   0.880   1.266   9.828 -0.5927  0.1429 -0.2363
  155DOPC   O1218575   0.648   1.200   9.882  0.3091  0.6241 -0.2900
  155DOPC   O1118576   0.730   1.214   9.637  0.4626  0.0360 -0.2375
  155DOPC    C118577   0.613   1.153   9.583 -0.1261 -0.0382  0.2834
  155DOPC    HA18578   0.537   1.233   9.572 -0.4480 -0.3174  0.4694
  155DOPC    HB18579   0.561   1.082   9.650 -0.1963  0.3526  0.6549
  155DOPC    C218580   0.642   1.067   9.454 -0.3270 -0.0701  0.5958
  155DOPC    HS18581   0.716   0.992   9.488  1.6512  0.2797 -2.5107
  155DOPC   O2118582   0.699   1.155   9.356  0.6139 -0.5162  0.5894
  155DOPC   C2118583   0.776   1.105   9.267 -0.5485 -0.5359  0.1146
  155DOPC   O2218584   0.811   0.987   9.277  0.0480  0.0137 -0.1230
  155DOPC   C2218585   0.818   1.207   9.161  0.0378  0.1191  0.4421
  155DOPC   H2R18586   0.871   1.289   9.214 -1.3540  1.5386 -0.2924
  155DOPC   H2S18587   0.726   1.256   9.124  0.6989 -0.2064 -1.7271
  155DOPC    C318588   0.512   1.001   9.386  0.6366 -1.0698 -1.0464
  155DOPC    HX18589   0.446   1.087   9.361  0.6723 -1.0004 -0.9021
  155DOPC    HY18590   0.454   0.935   9.455  1.8473  0.3607  1.4768
  155DOPC   O3118591   0.536   0.941   9.259  0.1572  0.2502  0.5876
  155DOPC   C3118592   0.537   0.808   9.255 -0.4480  0.3854 -0.2323
  155DOPC   O3218593   0.516   0.725   9.341 -0.5539 -0.6203  0.7640
  155DOPC   C3218594   0.549   0.768   9.111 -0.2443 -0.0774 -0.4879
  155DOPC   H2X18595   0.575   0.661   9.126 -1.8185 -0.5394 -0.8751
  155DOPC   H2Y18596   0.448   0.771   9.065 -0.9849  0.4392  1.1063
  155DOPC   C2318597   0.893   1.139   9.048 -0.4573  0.2388 -0.3823
  155DOPC   H3R18598   0.823   1.088   8.979 -0.9993 -1.4912  1.3592
  155DOPC   H3S18599   0.970   1.068   9.086 -0.6639 -2.3918 -4.3403
  155DOPC   C2418600   0.972   1.246   8.957  0.1369 -0.2836  0.0375
  155DOPC   H4R18601   1.039   1.183   8.893  1.7253 -2.0753  3.2403
  155DOPC   H4S18602   1.038   1.305   9.024  1.6332 -3.3927  1.5216
  155DOPC   C2518603   0.882   1.337   8.874 -0.3987 -0.7371  0.6530
  155DOPC   H5R18604   0.949   1.420   8.842 -2.8035  0.6439 -1.1539
  155DOPC   H5S18605   0.797   1.367   8.938  0.3110 -0.4084  1.4544
  155DOPC   C2618606   0.837   1.271   8.741  0.7125  0.3302  0.9998
  155DOPC   H6R18607   0.762   1.195   8.772  0.7463  0.8091  2.2741
  155DOPC   H6S18608   0.930   1.235   8.691  1.2950  0.5574  1.9086
  155DOPC   C2718609   0.764   1.367   8.647  0.1824 -0.3750 -0.4304
  155DOPC   H7R18610   0.831   1.447   8.608 -0.2071  0.1472 -0.0312
  155DOPC   H7S18611   0.689   1.427   8.701  0.9266  0.8573 -0.7416
  155DOPC   C2818612   0.722   1.277   8.526  0.0491  0.0291  0.5502
  155DOPC   H8R18613   0.656   1.344   8.466  0.3661 -0.7397 -0.6935
  155DOPC   H8S18614   0.665   1.186   8.555  0.7820 -0.7680 -0.4272
  155DOPC   C2918615   0.822   1.230   8.423 -0.3184  0.8088 -0.0097
  155DOPC   H9R18616   0.923   1.208   8.461  1.4236  1.3789 -3.8339
  155DOPC  C21018617   0.808   1.238   8.285 -0.2399  0.0580  0.1770
  155DOPC  H10R18618   0.895   1.209   8.224  0.5399 -0.8032  1.6333
  155DOPC  C21118619   0.697   1.291   8.211  0.5022 -0.5048 -0.1496
  155DOPC  H11R18620   0.683   1.398   8.237  0.4784 -0.3906 -0.6415
  155DOPC  H11S18621   0.604   1.232   8.227  0.7161 -0.7587  0.2022
  155DOPC  C21218622   0.726   1.289   8.061  0.4062 -0.0702 -0.2041
  155DOPC  H12R18623   0.735   1.186   8.021 -1.6382 -0.8217  1.0991
  155DOPC  H12S18624   0.816   1.351   8.040 -0.3514  0.4630 -2.1471
  155DOPC  C21318625   0.619   1.347   7.975  0.1894  0.0421  0.2771
  155DOPC  H13R18626   0.596   1.453   7.999  1.0388  0.7970 -1.9489
  155DOPC  H13S18627   0.527   1.288   7.998  0.3363  0.1052  1.0345
  155DOPC  C21418628   0.643   1.348   7.821 -0.5782 -0.1545  0.0181
  155DOPC  H14R18629   0.670   1.248   7.782  2.3081  0.2073  0.8441
  155DOPC  H14S18630   0.726   1.417   7.795 -0.6046  0.0079  0.3622
  155DOPC  C21518631   0.514   1.388   7.745 -0.1465 -0.4582  0.2222
  155DOPC  H15R18632   0.474   1.474   7.803  2.2173  1.3446 -0.6363
  155DOPC  H15S18633   0.433   1.313   7.733  0.8315 -2.0399  2.7905
  155DOPC  C21618634   0.541   1.442   7.601  0.3771  0.2538 -0.0149
  155DOPC  H16R18635   0.645   1.480   7.591  1.0160 -1.6376 -1.0139
  155DOPC  H16S18636   0.471   1.528   7.590  2.4912  2.1461  0.5368
  155DOPC  C21718637   0.513   1.337   7.487  0.2193 -0.5111 -0.4352
  155DOPC  H17R18638   0.420   1.282   7.514  0.2014  0.2552  1.1285
  155DOPC  H17S18639   0.600   1.268   7.488  1.2027  0.6822 -0.7015
  155DOPC  C21818640   0.519   1.391   7.343  1.0586 -0.3757 -0.5757
  155DOPC  H18R18641   0.522   1.304   7.275 -1.6006 -0.2573 -0.9614
  155DOPC  H18S18642   0.605   1.460   7.332 -0.4268  1.8813  1.0817
  155DOPC  H18T18643   0.424   1.444   7.322 -0.3326 -1.0556  3.1414
  155DOPC   C3318644   0.648   0.848   9.021 -0.1858  0.3885 -0.8827
  155DOPC   H3X18645   0.755   0.834   9.047  0.0666  3.0226 -0.2442
  155DOPC   H3Y18646   0.640   0.958   9.019 -3.1341  0.2557 -0.4679
  155DOPC   C3418647   0.649   0.804   8.872 -0.5492 -0.3906  0.3528
  155DOPC   H4X18648   0.541   0.787   8.852 -0.8054  0.3052  1.0889
  155DOPC   H4Y18649   0.703   0.708   8.858  1.9548  1.3053 -3.1289
  155DOPC   C3518650   0.709   0.911   8.782  0.0873  0.5046 -0.6927
  155DOPC   H5X18651   0.807   0.946   8.821 -0.1509 -0.0311  0.4133
  155DOPC   H5Y18652   0.635   0.995   8.775 -0.8537 -0.2796 -0.3833
  155DOPC   C3618653   0.741   0.860   8.640  0.2137  0.4996 -0.3821
  155DOPC   H6X18654   0.776   0.946   8.579 -1.0930  0.7170 -0.8531
  155DOPC   H6Y18655   0.816   0.779   8.639 -2.2239 -1.8830 -1.5944
  155DOPC   C3718656   0.617   0.817   8.562 -0.3792  0.5366 -0.5991
  155DOPC   H7X18657   0.593   0.720   8.611 -1.9073  0.0976 -2.1204
  155DOPC   H7Y18658   0.535   0.892   8.566 -0.1627  0.7956 -1.0630
  155DOPC   C3818659   0.640   0.785   8.417 -0.6628 -0.0468  0.2607
  155DOPC   H8X18660   0.553   0.726   8.382 -0.0795 -1.7016  1.4652
  155DOPC   H8Y18661   0.730   0.719   8.414  0.5554  1.5668  0.1318
  155DOPC   C3918662   0.663   0.903   8.332  0.1045  1.0711  0.2732
  155DOPC   H9X18663   0.751   0.959   8.365  0.4784 -0.1952  1.5415
  155DOPC  C31018664   0.583   0.951   8.239 -0.2474  0.3082  0.2565
  155DOPC  H10X18665   0.626   1.041   8.193  1.0636  0.0343  0.8898
  155DOPC  C31118666   0.452   0.895   8.188  0.1019  0.2048  0.4543
  155DOPC  H11X18667   0.362   0.955   8.210  0.2628  1.1816 -1.3405
  155DOPC  H11Y18668   0.420   0.795   8.226 -1.6539 -0.4860 -2.4615
  155DOPC  C31218669   0.461   0.879   8.032 -0.1687  0.3335  0.1624
  155DOPC  H12X18670   0.372   0.825   7.994  1.1975 -0.9527 -1.3741
  155DOPC  H12Y18671   0.551   0.817   8.012 -1.4283 -1.6886  0.5157
  155DOPC  C31318672   0.462   1.013   7.955  0.3647  0.9860 -0.4559
  155DOPC  H13X18673   0.402   1.091   8.007 -0.5069 -0.7913  1.3452
  155DOPC  H13Y18674   0.571   1.037   7.955  0.5020  0.4936  1.0642
  155DOPC  C31418675   0.421   1.000   7.813  0.1811  0.3994  0.6122
  155DOPC  H14X18676   0.499   1.046   7.748 -2.0155  0.2982 -2.3103
  155DOPC  H14Y18677   0.426   0.893   7.784 -2.1015 -0.2452  2.2817
  155DOPC  C31518678   0.281   1.058   7.780  0.3059  0.0673 -0.2999
  155DOPC  H15X18679   0.276   1.163   7.815  2.8298 -0.4191  1.8444
  155DOPC  H15Y18680   0.202   1.014   7.845 -1.7292  2.8566 -0.6934
  155DOPC  C31618681   0.248   1.024   7.627 -0.4144  0.3728 -0.4290
  155DOPC  H16X18682   0.334   1.074   7.578  0.9977 -1.2242  0.3102
  155DOPC  H16Y18683   0.262   0.916   7.606 -0.3967  0.4462 -0.7982
  155DOPC  C31718684   0.116   1.076   7.560 -0.0657  0.0668 -0.1611
  155DOPC  H17X18685   0.030   1.058   7.628 -0.4952  2.7244  0.1067
  155DOPC  H17Y18686   0.120   1.187   7.556  0.8446  0.1312  1.6737
  155DOPC  C31818687   0.093   1.010   7.427  0.2768 -0.1324 -0.4488
  155DOPC  H18X18688   0.185   0.985   7.371 -0.8916 -3.4556 -1.1581
  155DOPC  H18Y18689   0.048   0.910   7.449 -0.6033  0.2671 -0.3823
  155DOPC  H18Z18690   0.028   1.064   7.354  0.9720 -0.6257 -1.4590
  156DOPC     N18691   5.889   4.623   9.967 -0.3303  0.4268  0.3243
  156DOPC   C1218692   5.840   4.679   9.833 -0.4509 -0.6627  0.0718
  156DOPC  H12A18693   5.753   4.624   9.802 -0.5627 -0.5918  0.2570
  156DOPC  H12B18694   5.909   4.661   9.752 -0.2361  1.4161 -0.2506
  156DOPC   C1318695   5.795   4.617  10.070  0.2219 -0.3298 -0.6225
  156DOPC  H13A18696   5.842   4.612  10.167  1.9513 -2.5227 -1.4942
  156DOPC  H13B18697   5.742   4.711  10.075  1.4876  0.3344  2.3024
  156DOPC  H13C18698   5.721   4.542  10.047  0.9757 -1.0478 -0.7282
  156DOPC   C1418699   6.006   4.710  10.021  0.5139  0.7228  0.3932
  156DOPC  H14A18700   5.970   4.812  10.022 -0.2214  0.4655  0.5567
  156DOPC  H14B18701   6.032   4.686  10.124 -1.8497  0.9965  1.1137
  156DOPC  H14C18702   6.091   4.703   9.955 -0.3193 -0.2810 -0.5858
  156DOPC   C1518703   5.931   4.477   9.953  0.7227 -0.2800 -0.4041
  156DOPC  H15A18704   5.969   4.436  10.046  0.6951 -0.5255 -0.4991
  156DOPC  H15B18705   6.008   4.475   9.877  0.8138 -0.9877 -0.3054
  156DOPC  H15C18706   5.854   4.417   9.907 -0.7787  1.5371 -0.3607
  156DOPC   C1118707   5.815   4.833   9.827 -0.1287 -1.2320  0.8338
  156DOPC  H11A18708   5.910   4.887   9.844  1.0283 -2.3030 -1.8239
  156DOPC  H11B18709   5.788   4.858   9.723 -1.7319 -1.6951  1.1088
  156DOPC     P18710   5.723   4.998  10.009 -0.4535 -0.0420  0.1650
  156DOPC   O1318711   5.851   4.993  10.085 -0.2985  0.0576  0.1733
  156DOPC   O1418712   5.598   5.020  10.086  0.6539  0.4721 -0.8435
  156DOPC   O1218713   5.705   4.866   9.918  0.2921 -0.0566 -0.0438
  156DOPC   O1118714   5.735   5.109   9.896  0.2481  0.4729 -0.3694
  156DOPC    C118715   5.626   5.171   9.834 -0.4567  0.5911  0.0380
  156DOPC    HA18716   5.645   5.280   9.824  1.1059  0.2463 -1.0920
  156DOPC    HB18717   5.540   5.172   9.905 -1.8173  1.9749 -1.5496
  156DOPC    C218718   5.581   5.098   9.706  0.2752 -0.5489  0.7060
  156DOPC    HS18719   5.579   4.987   9.714  0.3780 -0.4849  1.8371
  156DOPC   O2118720   5.669   5.138   9.594  0.5731 -0.3911  0.6155
  156DOPC   C2118721   5.677   5.058   9.482  0.2099  0.0084 -0.3999
  156DOPC   O2218722   5.608   4.960   9.454 -0.0922 -0.4577 -0.5633
  156DOPC   C2218723   5.793   5.106   9.405  0.2494 -0.1265  0.3168
  156DOPC   H2R18724   5.879   5.102   9.475  1.5370 -1.1341 -1.2429
  156DOPC   H2S18725   5.771   5.214   9.392 -2.7993 -0.7558 -0.5913
  156DOPC    C318726   5.436   5.156   9.673 -0.7327  0.3689 -1.1362
  156DOPC    HX18727   5.434   5.266   9.691  0.5679  0.2509 -0.0857
  156DOPC    HY18728   5.375   5.110   9.753  0.4190 -1.8835 -1.4706
  156DOPC   O3118729   5.388   5.123   9.539  0.1491 -0.2250 -0.1724
  156DOPC   C3118730   5.315   5.010   9.530  0.2230 -0.2084 -0.4709
  156DOPC   O3218731   5.312   4.923   9.617 -0.0711 -0.0274 -0.4302
  156DOPC   C3218732   5.214   5.028   9.413 -0.6995  1.0026 -0.2671
  156DOPC   H2X18733   5.176   4.931   9.376  1.7218  0.3044 -1.1686
  156DOPC   H2Y18734   5.124   5.086   9.442  0.4338  2.7220 -0.0036
  156DOPC   C2318735   5.813   5.033   9.274 -0.2041  0.4888  0.3077
  156DOPC   H3R18736   5.713   5.028   9.227 -0.7083  1.6020  1.2068
  156DOPC   H3S18737   5.843   4.928   9.295 -0.6391  0.2162 -0.4063
  156DOPC   C2418738   5.916   5.105   9.180  0.5095  0.4171  0.0571
  156DOPC   H4R18739   6.020   5.081   9.214  0.8054 -0.9073 -1.6629
  156DOPC   H4S18740   5.897   5.214   9.184 -0.7086  0.2973 -1.6223
  156DOPC   C2518741   5.906   5.045   9.042 -0.1144 -0.3145 -0.2276
  156DOPC   H5R18742   5.951   4.944   9.044  1.4851  0.3761  0.5904
  156DOPC   H5S18743   5.969   5.100   8.969 -2.9028  1.8098 -1.2474
  156DOPC   C2618744   5.771   5.048   8.978  0.4984 -0.0510  0.2142
  156DOPC   H6R18745   5.707   5.137   9.000  1.6991  0.7247  0.6673
  156DOPC   H6S18746   5.723   4.954   9.013  4.2623 -2.5932 -0.9106
  156DOPC   C2718747   5.787   5.055   8.815  0.1182  0.7218 -0.6087
  156DOPC   H7R18748   5.864   4.977   8.796 -0.2335  0.1585  0.2195
  156DOPC   H7S18749   5.836   5.146   8.772 -1.3859  0.9468 -1.9505
  156DOPC   C2818750   5.663   5.041   8.731  0.2548  0.6962 -0.2080
  156DOPC   H8R18751   5.692   5.053   8.625 -1.5796 -0.6105 -0.9203
  156DOPC   H8S18752   5.592   5.121   8.761 -1.0498 -0.1149 -1.0067
  156DOPC   C2918753   5.590   4.911   8.749  0.3206 -0.6063 -0.4246
  156DOPC   H9R18754   5.525   4.902   8.836  0.2515 -1.0956 -0.5230
  156DOPC  C21018755   5.605   4.806   8.669 -0.3830  0.8968  0.5829
  156DOPC  H10R18756   5.570   4.709   8.707  0.8832  0.4593  0.6798
  156DOPC  C21118757   5.679   4.799   8.542  0.3074  0.6242  0.6428
  156DOPC  H11R18758   5.787   4.797   8.570 -0.2468  0.8456  3.0899
  156DOPC  H11S18759   5.645   4.892   8.490 -1.9241 -0.3452  0.2492
  156DOPC  C21218760   5.634   4.683   8.453 -0.1060  0.3128 -0.0470
  156DOPC  H12R18761   5.527   4.656   8.459  0.0758 -0.3481  0.2657
  156DOPC  H12S18762   5.692   4.591   8.474  0.1759  0.4563 -0.1910
  156DOPC  C21318763   5.665   4.707   8.302  0.1487  0.0440  0.6962
  156DOPC  H13R18764   5.771   4.719   8.270  0.1937 -2.8785 -0.5442
  156DOPC  H13S18765   5.617   4.801   8.266 -0.2033 -0.1946  0.5378
  156DOPC  C21418766   5.599   4.595   8.213  0.5917  1.0947 -0.1450
  156DOPC  H14R18767   5.491   4.579   8.236  0.5486  1.0298 -0.3940
  156DOPC  H14S18768   5.645   4.498   8.241  3.3143  1.4573 -2.8864
  156DOPC  C21518769   5.621   4.611   8.061 -0.2367  0.1790  0.4172
  156DOPC  H15R18770   5.558   4.693   8.020  2.6369  1.4899 -1.6462
  156DOPC  H15S18771   5.580   4.516   8.021 -0.3115  0.7457 -0.8918
  156DOPC  C21618772   5.763   4.634   8.015  0.3440 -0.2138  0.1043
  156DOPC  H16R18773   5.835   4.563   8.061 -0.9972 -0.5987  1.6998
  156DOPC  H16S18774   5.782   4.742   8.033  2.3620 -0.0984 -2.1775
  156DOPC  C21718775   5.783   4.617   7.865 -0.0463  0.1687 -0.0240
  156DOPC  H17R18776   5.718   4.698   7.824 -0.8660  0.3450  1.5360
  156DOPC  H17S18777   5.731   4.522   7.842  1.3079 -0.7944  0.8173
  156DOPC  C21818778   5.923   4.603   7.814  0.3691  0.2526 -0.9521
  156DOPC  H18R18779   5.986   4.693   7.832 -0.6289  0.6311  0.9171
  156DOPC  H18S18780   5.931   4.568   7.709  0.2017 -0.7441 -0.6439
  156DOPC  H18T18781   5.966   4.521   7.875  1.3547  1.0799 -0.4972
  156DOPC   C3318782   5.274   5.097   9.287 -0.1408  0.4885 -0.1457
  156DOPC   H3X18783   5.372   5.049   9.268 -0.4038 -1.2463  2.3692
  156DOPC   H3Y18784   5.299   5.204   9.299 -0.9518  0.6778 -0.1026
  156DOPC   C3418785   5.177   5.074   9.172  0.0924 -0.5674 -0.4774
  156DOPC   H4X18786   5.084   5.123   9.208 -0.1438 -0.9131 -0.6114
  156DOPC   H4Y18787   5.173   4.964   9.160  3.5522 -0.7786 -0.8219
  156DOPC   C3518788   5.227   5.146   9.051 -0.1531  0.0265  0.1410
  156DOPC   H5X18789   5.308   5.089   9.002  0.0403  1.9147 -1.9107
  156DOPC   H5Y18790   5.257   5.247   9.087 -0.1535  0.0867 -0.0295
  156DOPC   C3618791   5.123   5.172   8.940 -0.0898  0.3363  0.1247
  156DOPC   H6X18792   5.102   5.082   8.879 -1.3530  0.6688  0.0533
  156DOPC   H6Y18793   5.030   5.204   8.991 -0.2426  1.9643 -1.0959
  156DOPC   C3718794   5.170   5.282   8.843 -0.3571  0.2887 -0.3549
  156DOPC   H7X18795   5.088   5.315   8.775  1.6847  2.0418 -2.1375
  156DOPC   H7Y18796   5.191   5.369   8.909 -0.1835 -0.5345  0.7037
  156DOPC   C3818797   5.302   5.237   8.778 -0.2595 -0.0428 -0.0654
  156DOPC   H8X18798   5.381   5.219   8.854 -0.1651 -3.8429 -0.8739
  156DOPC   H8Y18799   5.333   5.329   8.723  0.4457 -1.0797 -1.4356
  156DOPC   C3918800   5.287   5.130   8.679 -0.9391  0.2444 -0.1911
  156DOPC   H9X18801   5.264   5.038   8.734  1.3510 -0.6211 -0.5812
  156DOPC  C31018802   5.300   5.128   8.547  0.0466  0.0505 -0.1461
  156DOPC  H10X18803   5.272   5.031   8.503 -3.3681  1.1098 -0.6144
  156DOPC  C31118804   5.342   5.236   8.452  0.4921 -0.4537 -0.6223
  156DOPC  H11X18805   5.353   5.330   8.510 -1.5058 -0.2440 -0.5172
  156DOPC  H11Y18806   5.265   5.253   8.373  1.1024 -1.4805 -1.4702
  156DOPC  C31218807   5.477   5.220   8.377 -0.0785 -0.4451  0.0223
  156DOPC  H12X18808   5.563   5.219   8.447  1.5497  3.7635 -1.5994
  156DOPC  H12Y18809   5.482   5.311   8.313  0.4467 -0.6620 -0.2518
  156DOPC  C31318810   5.487   5.101   8.276  0.9508  0.1529 -0.4580
  156DOPC  H13X18811   5.491   5.008   8.337 -1.3443  1.9195  2.7005
  156DOPC  H13Y18812   5.391   5.090   8.221 -0.5866 -1.5508  2.3415
  156DOPC  C31418813   5.614   5.113   8.191 -0.5336  0.0447  0.3110
  156DOPC  H14X18814   5.693   5.169   8.245 -0.9719 -2.3390  3.7259
  156DOPC  H14Y18815   5.654   5.012   8.168 -0.4964  0.5355 -2.0476
  156DOPC  C31518816   5.586   5.190   8.057  0.0955  0.7152  0.1290
  156DOPC  H15X18817   5.687   5.198   8.012 -0.0454 -0.1362 -0.3681
  156DOPC  H15Y18818   5.545   5.292   8.073 -1.7019  0.2156 -0.9325
  156DOPC  C31618819   5.504   5.108   7.955  0.3173  0.8558 -0.0838
  156DOPC  H16X18820   5.542   5.004   7.949  0.3471  0.9641 -2.8740
  156DOPC  H16Y18821   5.398   5.105   7.987  0.2654  0.4177 -0.3021
  156DOPC  C31718822   5.512   5.163   7.812 -0.1739  0.2649  0.0469
  156DOPC  H17X18823   5.456   5.259   7.813 -0.4167  0.1637  2.4201
  156DOPC  H17Y18824   5.617   5.181   7.781 -0.4115  0.5613 -0.6015
  156DOPC  C31818825   5.458   5.064   7.713  0.3719 -0.5341  0.1865
  156DOPC  H18X18826   5.482   4.958   7.737  1.4178 -0.7367 -1.6303
  156DOPC  H18Y18827   5.347   5.069   7.705  0.2479  1.3210  2.0339
  156DOPC  H18Z18828   5.496   5.099   7.615 -1.0186  3.3096  0.8464
  157DOPC     N18829   5.247   1.736  10.234 -0.0193 -0.2749  0.2891
  157DOPC   C1218830   5.316   1.705  10.104  0.7886  0.8127  0.0534
  157DOPC  H12A18831   5.345   1.601  10.102  1.8799  1.0775 -3.1288
  157DOPC  H12B18832   5.411   1.755  10.093  1.3663 -0.2507 -0.0040
  157DOPC   C1318833   5.209   1.880  10.234 -0.3169  0.1007  0.5330
  157DOPC  H13A18834   5.292   1.948  10.219 -0.5997  0.9713  2.5327
  157DOPC  H13B18835   5.129   1.908  10.168 -0.9593  0.9347  1.6232
  157DOPC  H13C18836   5.165   1.909  10.328 -1.2411 -2.0923  0.8452
  157DOPC   C1418837   5.345   1.715  10.343 -0.1075 -0.1551  0.2145
  157DOPC  H14A18838   5.441   1.761  10.324 -0.5571  0.1806 -1.4551
  157DOPC  H14B18839   5.299   1.741  10.437 -1.4955  0.2951 -0.5664
  157DOPC  H14C18840   5.368   1.610  10.355 -1.6307 -0.5335  0.0600
  157DOPC   C1518841   5.132   1.654  10.266  0.2068  0.2277 -0.5552
  157DOPC  H15A18842   5.096   1.673  10.366  2.3954  1.5231  0.0639
  157DOPC  H15B18843   5.154   1.549  10.267 -3.5209 -0.7220 -1.9130
  157DOPC  H15C18844   5.058   1.658  10.188 -0.1547  1.0795 -0.1958
  157DOPC   C1118845   5.232   1.726   9.969  0.1599 -0.1497  0.1284
  157DOPC  H11A18846   5.199   1.830   9.950  3.0488  1.0463  1.0875
  157DOPC  H11B18847   5.295   1.676   9.893  1.5411 -2.7678  2.8078
  157DOPC     P18848   5.077   1.509   9.917 -0.5383 -0.2959  0.0931
  157DOPC   O1318849   4.941   1.479   9.968 -0.7348  0.7627  0.5090
  157DOPC   O1418850   5.188   1.421   9.959  0.5160  0.2820  0.1077
  157DOPC   O1218851   5.110   1.659   9.969  0.3417  0.1799 -0.1009
  157DOPC   O1118852   5.070   1.507   9.762 -0.6556 -0.8793 -0.1373
  157DOPC    C118853   5.176   1.545   9.675 -0.4707  0.3823 -0.0545
  157DOPC    HA18854   5.174   1.484   9.583 -0.7834  1.7979 -1.0206
  157DOPC    HB18855   5.275   1.539   9.726 -0.7585 -0.4183  0.4182
  157DOPC    C218856   5.164   1.695   9.623  0.2249 -0.7412  0.6840
  157DOPC    HS18857   5.177   1.759   9.713  1.7040 -0.0498  0.0104
  157DOPC   O2118858   5.033   1.716   9.577 -0.2951  0.4243  0.3748
  157DOPC   C2118859   5.000   1.838   9.554  0.9146 -0.0774 -0.3419
  157DOPC   O2218860   5.066   1.933   9.590 -0.2293  0.7654  0.2757
  157DOPC   C2218861   4.859   1.841   9.511  0.0491  0.0946 -0.6849
  157DOPC   H2R18862   4.799   1.919   9.563 -0.4070 -0.0710 -0.9478
  157DOPC   H2S18863   4.804   1.747   9.531 -0.0558  0.2325 -0.3249
  157DOPC    C318864   5.270   1.739   9.521 -0.0066 -0.4170  0.0847
  157DOPC    HX18865   5.364   1.696   9.562 -2.3298 -2.9401  3.2753
  157DOPC    HY18866   5.273   1.847   9.497  0.9912 -0.8872 -2.2107
  157DOPC   O3118867   5.247   1.668   9.394  0.5358 -0.7903 -0.3776
  157DOPC   C3118868   5.335   1.654   9.298 -0.0181 -0.0068 -0.3357
  157DOPC   O3218869   5.448   1.703   9.299 -0.2662  0.0388 -0.5070
  157DOPC   C3218870   5.270   1.588   9.174 -0.3624  0.4149 -0.3408
  157DOPC   H2X18871   5.206   1.503   9.207  0.1497  0.3741  0.5739
  157DOPC   H2Y18872   5.196   1.662   9.136 -2.2759 -1.1498  0.1934
  157DOPC   C2318873   4.851   1.845   9.354  0.0922 -0.0722 -0.5757
  157DOPC   H3R18874   4.913   1.932   9.323 -0.8494  0.7233 -0.2942
  157DOPC   H3S18875   4.744   1.855   9.326  0.2804  1.5569 -0.8442
  157DOPC   C2418876   4.913   1.719   9.282  0.4672 -0.0869 -0.6205
  157DOPC   H4R18877   4.864   1.626   9.317 -0.8046  1.7114  2.8608
  157DOPC   H4S18878   5.021   1.714   9.304  0.5379 -0.5486 -1.0574
  157DOPC   C2518879   4.895   1.722   9.128 -0.3179  0.2022  0.0864
  157DOPC   H5R18880   4.786   1.732   9.108 -0.3536 -0.8772 -0.3261
  157DOPC   H5S18881   4.917   1.622   9.084 -1.5648  1.1648 -3.0630
  157DOPC   C2618882   4.977   1.830   9.056  0.0377 -0.3093 -0.5776
  157DOPC   H6R18883   5.085   1.805   9.057  0.3308  0.8546 -1.1540
  157DOPC   H6S18884   4.957   1.926   9.110  0.4637  0.1551 -1.2370
  157DOPC   C2718885   4.931   1.840   8.908  0.5207  0.6010 -0.0360
  157DOPC   H7R18886   4.825   1.873   8.910  0.0915 -0.6019 -1.3553
  157DOPC   H7S18887   4.926   1.731   8.886  0.1872 -0.0133  2.6529
  157DOPC   C2818888   5.019   1.926   8.811  0.5271  0.4816 -0.0495
  157DOPC   H8R18889   5.125   1.896   8.819  0.3273  0.0170  1.1422
  157DOPC   H8S18890   5.010   2.027   8.857  0.6071  1.3922 -1.9390
  157DOPC   C2918891   4.964   1.923   8.668 -0.6816  0.4534 -0.4802
  157DOPC   H9R18892   4.854   1.923   8.661 -0.7643  0.0248  0.6753
  157DOPC  C21018893   5.029   1.921   8.550  0.0212 -0.2471  0.0590
  157DOPC  H10R18894   4.966   1.925   8.460 -0.5116  0.7114  0.4579
  157DOPC  C21118895   5.176   1.920   8.531  0.3461 -0.2729  0.1881
  157DOPC  H11R18896   5.206   1.813   8.536  1.1083 -0.0097  1.7824
  157DOPC  H11S18897   5.217   1.967   8.623  0.9548 -0.4974  0.0358
  157DOPC  C21218898   5.223   1.984   8.399 -0.3997 -1.0714 -0.2369
  157DOPC  H12R18899   5.332   2.004   8.410 -0.3003 -1.8462  0.2953
  157DOPC  H12S18900   5.182   2.086   8.385  1.8823 -0.3923 -2.8357
  157DOPC  C21318901   5.204   1.889   8.278  0.0130  0.1512 -0.0510
  157DOPC  H13R18902   5.096   1.893   8.250 -0.6810 -0.0123  2.4019
  157DOPC  H13S18903   5.240   1.788   8.307  1.7877  1.2362  1.8275
  157DOPC  C21418904   5.271   1.922   8.142  0.1189 -0.3953  0.4592
  157DOPC  H14R18905   5.258   1.845   8.063 -1.4155  1.5609 -1.3301
  157DOPC  H14S18906   5.380   1.937   8.154 -0.0007  1.8039 -0.7050
  157DOPC  C21518907   5.238   2.059   8.086 -0.5318 -0.0678 -0.0621
  157DOPC  H15R18908   5.311   2.087   8.007  0.7896 -1.0603  0.7640
  157DOPC  H15S18909   5.257   2.137   8.163 -1.6208 -0.1804  0.3517
  157DOPC  C21618910   5.086   2.069   8.042  0.2422  0.6379 -0.2825
  157DOPC  H16R18911   5.054   2.175   8.045 -0.9781  0.2868  2.2101
  157DOPC  H16S18912   5.025   2.027   8.125 -0.2836  3.0043  0.6148
  157DOPC  C21718913   5.049   1.997   7.912 -0.0660 -0.1005 -0.4758
  157DOPC  H17R18914   4.944   2.029   7.892 -0.3688 -0.6663  0.1831
  157DOPC  H17S18915   5.063   1.889   7.932  2.0375  0.5325  1.9754
  157DOPC  C21818916   5.120   2.038   7.782  0.5597 -0.2156 -0.0731
  157DOPC  H18R18917   5.126   2.149   7.774 -0.3454  0.0677  2.2582
  157DOPC  H18S18918   5.061   2.001   7.695  1.1293  1.7823 -1.3939
  157DOPC  H18T18919   5.219   1.989   7.776  0.8947 -0.1706  3.4059
  157DOPC   C3318920   5.361   1.544   9.057 -0.1444 -0.7407 -0.6234
  157DOPC   H3X18921   5.437   1.475   9.097  1.4816  1.2856 -0.0409
  157DOPC   H3Y18922   5.417   1.632   9.019 -0.2779 -0.2058  0.3837
  157DOPC   C3418923   5.305   1.471   8.938 -0.5097 -0.6835  0.9550
  157DOPC   H4X18924   5.280   1.368   8.970 -0.7721 -0.6606  0.8310
  157DOPC   H4Y18925   5.379   1.476   8.856  0.1324  1.9372  1.5801
  157DOPC   C3518926   5.173   1.544   8.902  0.1336  0.5136 -0.5487
  157DOPC   H5X18927   5.175   1.651   8.932  2.5686 -0.5705  4.1334
  157DOPC   H5Y18928   5.087   1.496   8.953  0.9532  1.9697  2.4781
  157DOPC   C3618929   5.151   1.530   8.753  0.2419  0.0207 -0.1075
  157DOPC   H6X18930   5.073   1.605   8.729 -0.4766 -0.6763  0.0145
  157DOPC   H6Y18931   5.244   1.559   8.699 -0.5557  2.3041 -0.3816
  157DOPC   C3718932   5.114   1.385   8.707 -0.0824 -0.0357 -0.4377
  157DOPC   H7X18933   5.209   1.327   8.701  0.8325  1.1167  1.9689
  157DOPC   H7Y18934   5.057   1.346   8.794 -1.0546  3.6403  0.7310
  157DOPC   C3818935   5.037   1.367   8.582 -0.4630 -0.0428 -0.4430
  157DOPC   H8X18936   4.938   1.418   8.586  0.7319  2.3313  0.4993
  157DOPC   H8Y18937   5.013   1.258   8.573 -0.0238 -0.1004 -0.9263
  157DOPC   C3918938   5.107   1.427   8.467  0.3804  0.7306 -0.0595
  157DOPC   H9X18939   5.162   1.520   8.487  1.4038  0.7054 -2.3992
  157DOPC  C31018940   5.118   1.373   8.339  0.4009 -0.1176  0.3110
  157DOPC  H10X18941   5.167   1.427   8.257  1.6638 -0.5033  0.7946
  157DOPC  C31118942   5.069   1.239   8.303 -0.2664  0.1949 -0.8704
  157DOPC  H11X18943   5.078   1.178   8.395 -1.0238  0.9684 -0.2573
  157DOPC  H11Y18944   5.125   1.191   8.221  1.5399  1.7162 -0.5973
  157DOPC  C31218945   4.917   1.234   8.277 -0.0899 -0.2245 -0.1493
  157DOPC  H12X18946   4.863   1.267   8.368 -0.3322 -2.3459  0.5441
  157DOPC  H12Y18947   4.897   1.126   8.260  1.4498 -0.5019 -0.3683
  157DOPC  C31318948   4.867   1.326   8.160 -0.2008  0.7357 -0.4396
  157DOPC  H13X18949   4.766   1.290   8.132  0.9008 -1.1811 -2.2061
  157DOPC  H13Y18950   4.860   1.430   8.200 -1.0422  0.4354  0.2292
  157DOPC  C31418951   4.937   1.313   8.025  0.2001 -0.9386 -0.0557
  157DOPC  H14X18952   5.035   1.364   8.035 -0.3403  1.0553 -3.5167
  157DOPC  H14Y18953   4.964   1.206   8.007  1.3500 -0.6360 -0.1788
  157DOPC  C31518954   4.878   1.371   7.899 -0.8935 -0.2977  0.1682
  157DOPC  H15X18955   4.781   1.325   7.872 -0.3640 -1.1136 -0.3907
  157DOPC  H15Y18956   4.951   1.341   7.821  0.2463 -2.5451  1.9770
  157DOPC  C31618957   4.867   1.523   7.898  0.0847 -0.8306  0.6377
  157DOPC  H16X18958   4.798   1.567   7.973  0.5922  1.9454 -0.3945
  157DOPC  H16Y18959   4.970   1.561   7.913  0.9224 -2.4800 -0.6042
  157DOPC  C31718960   4.815   1.559   7.754  0.0323 -0.2708 -0.2971
  157DOPC  H17X18961   4.888   1.523   7.678 -0.0167 -0.4712 -0.2501
  157DOPC  H17Y18962   4.719   1.504   7.744 -0.3309  0.0483  1.2672
  157DOPC  C31818963   4.796   1.707   7.725  0.9057 -0.1477 -0.3901
  157DOPC  H18X18964   4.764   1.715   7.619 -1.9122  2.5374  0.5308
  157DOPC  H18Y18965   4.714   1.752   7.784  0.9596 -0.8373  0.2163
  157DOPC  H18Z18966   4.892   1.763   7.736  1.4273 -0.8722 -1.1702
  158DOPC     N18967   2.112   0.329  10.114  0.5563  0.1137  0.2184
  158DOPC   C1218968   2.242   0.311  10.185 -0.8274 -0.1984  0.3461
  158DOPC  H12A18969   2.244   0.220  10.243 -0.1784 -0.8119 -0.5962
  158DOPC  H12B18970   2.264   0.399  10.243  0.6295 -0.1506 -0.2265
  158DOPC   C1318971   2.106   0.461  10.030 -0.1259  0.2387 -0.3782
  158DOPC  H13A18972   2.009   0.480   9.986  0.3244  2.0885 -0.6409
  158DOPC  H13B18973   2.113   0.547  10.094  1.2941 -1.6971  2.2438
  158DOPC  H13C18974   2.190   0.454   9.962 -0.0053 -0.0516 -0.2018
  158DOPC   C1418975   1.998   0.338  10.204 -0.5741  0.1647 -0.0189
  158DOPC  H14A18976   1.984   0.243  10.252 -0.0105  0.2927  0.4159
  158DOPC  H14B18977   2.011   0.409  10.284 -1.9336  1.3330 -0.8009
  158DOPC  H14C18978   1.910   0.361  10.146  0.1590  1.2720 -0.7392
  158DOPC   C1518979   2.103   0.220  10.015 -0.6363  0.3506 -0.0963
  158DOPC  H15A18980   2.141   0.128  10.057  0.8693 -0.4395 -2.9347
  158DOPC  H15B18981   2.159   0.242   9.926 -1.3677 -0.4959 -0.7921
  158DOPC  H15C18982   1.999   0.203   9.990 -0.2848  1.1042 -2.2094
  158DOPC   C1118983   2.369   0.301  10.104 -0.7606 -0.1234  0.0540
  158DOPC  H11A18984   2.393   0.390  10.043  1.7648  0.1818  1.3805
  158DOPC  H11B18985   2.447   0.293  10.183 -0.3809  0.1453 -0.2968
  158DOPC     P18986   2.506   0.129   9.957  0.2292 -0.3953 -0.7331
  158DOPC   O1318987   2.593   0.060  10.057  0.5638 -0.1947  0.0191
  158DOPC   O1418988   2.562   0.244   9.875  0.7794 -0.3711 -0.2331
  158DOPC   O1218989   2.378   0.179  10.025  0.6971 -0.3988  0.2370
  158DOPC   O1118990   2.443   0.012   9.872 -0.3879 -0.4880 -0.2126
  158DOPC    C118991   2.379   0.048   9.747  0.3191  0.0666 -0.7809
  158DOPC    HA18992   2.306   0.131   9.746 -0.6574 -0.7299  0.5989
  158DOPC    HB18993   2.323  -0.046   9.725  1.5073 -0.3536 -2.2379
  158DOPC    C218994   2.475   0.057   9.627  0.3959  0.9788  0.6114
  158DOPC    HS18995   2.553   0.134   9.643  1.4343 -0.2823  1.9278
  158DOPC   O2118996   2.407   0.063   9.496  0.1587  0.9727  0.1431
  158DOPC   C2118997   2.363   0.178   9.456  0.2631 -0.4731 -0.2443
  158DOPC   O2218998   2.361   0.285   9.516 -0.1956 -0.0607 -0.6358
  158DOPC   C2218999   2.294   0.152   9.321 -0.0863  0.3179  0.1910
  158DOPC   H2R19000   2.271   0.250   9.274 -0.5348  0.5964  0.9746
  158DOPC   H2S19001   2.192   0.115   9.345  0.4892 -0.9141  0.8077
  158DOPC    C319002   2.560  -0.068   9.623  0.5118  0.1857 -0.9468
  158DOPC    HX19003   2.489  -0.153   9.618 -1.3546  1.6763 -1.1043
  158DOPC    HY19004   2.621  -0.068   9.716  0.2679  0.9569 -0.7755
  158DOPC   O3119005   2.645  -0.069   9.509 -0.7353 -0.0603 -0.6045
  158DOPC   C3119006   2.716  -0.187   9.502  0.7918 -0.5609  0.0376
  158DOPC   O3219007   2.708  -0.276   9.586  0.4021  0.7716 -0.0889
  158DOPC   C3219008   2.809  -0.192   9.381 -0.2615 -0.2192 -0.1574
  158DOPC   H2X19009   2.800  -0.095   9.328  0.9491  1.6331  2.7560
  158DOPC   H2Y19010   2.910  -0.192   9.428  0.0868 -0.0837 -0.8879
  158DOPC   C2319011   2.373   0.053   9.225 -0.0192  0.4145  0.1079
  158DOPC   H3R19012   2.374  -0.053   9.260  1.0569  0.3061 -0.2298
  158DOPC   H3S19013   2.478   0.087   9.214  0.8899 -2.4304 -1.1267
  158DOPC   C2419014   2.308   0.072   9.094  0.9822  0.5805 -0.3191
  158DOPC   H4R19015   2.319   0.179   9.066 -0.3686  1.1372  1.1211
  158DOPC   H4S19016   2.200   0.046   9.093  1.2791 -0.6812 -1.6341
  158DOPC   C2519017   2.374  -0.024   8.989 -0.2051 -0.2514 -0.2091
  158DOPC   H5R19018   2.350  -0.131   9.008 -0.0999 -0.4537 -1.1378
  158DOPC   H5S19019   2.484  -0.004   8.991  0.2117 -2.2486  2.6342
  158DOPC   C2619020   2.329   0.011   8.846 -0.1885  0.1779  0.1294
  158DOPC   H6R19021   2.329   0.120   8.824  1.4005 -0.0560 -1.2622
  158DOPC   H6S19022   2.222  -0.016   8.841 -0.0443 -0.3340 -0.2269
  158DOPC   C2719023   2.412  -0.059   8.736  0.0003  0.9073 -0.1023
  158DOPC   H7R19024   2.375  -0.159   8.704  2.0372  0.6427 -1.8909
  158DOPC   H7S19025   2.515  -0.066   8.778  0.5422  1.4473 -1.2865
  158DOPC   C2819026   2.418   0.034   8.607 -0.2416 -0.4752  0.3042
  158DOPC   H8R19027   2.484  -0.006   8.528  0.8461 -0.0281  0.9710
  158DOPC   H8S19028   2.462   0.134   8.626 -0.0105 -0.2134 -1.4076
  158DOPC   C2919029   2.280   0.037   8.550 -0.3812 -0.1990 -0.8851
  158DOPC   H9R19030   2.196   0.060   8.618 -0.2210  1.0684 -1.0904
  158DOPC  C21019031   2.246   0.003   8.422 -0.3703 -0.5436 -0.1606
  158DOPC  H10R19032   2.145   0.016   8.381  0.3913  1.1624 -1.6423
  158DOPC  C21119033   2.339  -0.028   8.301 -0.1606  0.0076 -0.1734
  158DOPC  H11R19034   2.315  -0.131   8.267  1.1772 -0.7872  1.1704
  158DOPC  H11S19035   2.442  -0.039   8.341 -0.2873 -0.1116  0.1228
  158DOPC  C21219036   2.337   0.081   8.196  0.1340  0.0437  0.1328
  158DOPC  H12R19037   2.420   0.055   8.126 -0.8364 -0.9830 -0.6842
  158DOPC  H12S19038   2.339   0.186   8.232 -0.6928 -0.5222  1.9186
  158DOPC  C21319039   2.205   0.067   8.113  0.2161  0.1373  0.4442
  158DOPC  H13R19040   2.118   0.106   8.171  1.1023  1.5580  0.8800
  158DOPC  H13S19041   2.187  -0.042   8.098  0.0391  0.5100 -2.6035
  158DOPC  C21419042   2.221   0.142   7.977  0.2895 -0.0004  0.2695
  158DOPC  H14R19043   2.317   0.110   7.931  0.3603  2.8120 -1.8611
  158DOPC  H14S19044   2.218   0.253   7.991  2.5002  0.2591 -0.8498
  158DOPC  C21519045   2.121   0.101   7.868 -0.3063  0.1982  0.5795
  158DOPC  H15R19046   2.017   0.112   7.903 -0.3437 -0.6883  0.7950
  158DOPC  H15S19047   2.136  -0.007   7.843  1.2516  0.7274 -1.0079
  158DOPC  C21619048   2.124   0.188   7.741  0.2999  0.2296  0.5586
  158DOPC  H16R19049   2.126   0.297   7.763 -1.1604 -0.0676  2.4387
  158DOPC  H16S19050   2.039   0.162   7.674  2.0328 -0.7114 -1.3827
  158DOPC  C21719051   2.251   0.147   7.655 -0.3438  0.4082  0.0795
  158DOPC  H17R19052   2.237   0.038   7.642  0.0190  0.3608  0.0752
  158DOPC  H17S19053   2.340   0.157   7.721 -0.7737 -2.5782  1.2866
  158DOPC  C21819054   2.264   0.209   7.519 -0.0940  0.0333 -0.1060
  158DOPC  H18R19055   2.244   0.316   7.542  1.9236  0.1382  1.3362
  158DOPC  H18S19056   2.184   0.176   7.449  1.1866  0.8028 -2.0295
  158DOPC  H18T19057   2.359   0.188   7.467 -0.2092 -2.1066  0.4691
  158DOPC   C3319058   2.790  -0.318   9.296 -0.0298 -0.2695 -0.5392
  158DOPC   H3X19059   2.786  -0.409   9.360 -1.7223  0.5164  0.5459
  158DOPC   H3Y19060   2.861  -0.311   9.211 -0.2498  0.4798 -0.6694
  158DOPC   C3419061   2.649  -0.323   9.224  0.2903 -0.0354  0.7348
  158DOPC   H4X19062   2.629  -0.226   9.173  0.4031 -0.3070  0.1718
  158DOPC   H4Y19063   2.562  -0.327   9.294 -1.5307 -2.9994 -1.4702
  158DOPC   C3519064   2.648  -0.426   9.113 -0.3220  0.2183 -0.2519
  158DOPC   H5X19065   2.662  -0.527   9.157 -2.3677  0.6244  1.5072
  158DOPC   H5Y19066   2.729  -0.407   9.040 -1.5769 -2.3969 -2.5041
  158DOPC   C3619067   2.525  -0.432   9.027 -0.3386 -0.1365  0.0552
  158DOPC   H6X19068   2.518  -0.530   8.976 -1.3724 -0.4856  0.8460
  158DOPC   H6Y19069   2.437  -0.428   9.095 -0.6454  0.0174 -0.3473
  158DOPC   C3719070   2.511  -0.330   8.911  0.9320 -0.0108  0.7155
  158DOPC   H7X19071   2.410  -0.352   8.870  1.0422 -2.1621  1.4742
  158DOPC   H7Y19072   2.522  -0.228   8.955  2.1132  0.6623 -1.0475
  158DOPC   C3819073   2.619  -0.341   8.799  0.0956 -0.4231 -0.0991
  158DOPC   H8X19074   2.720  -0.318   8.839  0.1447  1.9926 -1.4506
  158DOPC   H8Y19075   2.602  -0.253   8.733  0.8128  1.4692  2.1069
  158DOPC   C3919076   2.628  -0.469   8.728  0.4731 -0.3352 -0.2943
  158DOPC   H9X19077   2.670  -0.555   8.784  0.1691  0.1524  0.7008
  158DOPC  C31019078   2.604  -0.487   8.599 -0.6341 -0.0984 -0.2160
  158DOPC  H10X19079   2.618  -0.588   8.558  1.2381  0.8279 -2.0662
  158DOPC  C31119080   2.563  -0.379   8.500 -0.7964  0.4409 -0.4222
  158DOPC  H11X19081   2.505  -0.296   8.546  0.0338 -0.3863  2.2803
  158DOPC  H11Y19082   2.495  -0.440   8.436  1.3979 -0.4384 -2.0365
  158DOPC  C31219083   2.687  -0.327   8.421  0.5358  0.1282  0.3256
  158DOPC  H12X19084   2.769  -0.288   8.485  0.2340  0.2974  0.6118
  158DOPC  H12Y19085   2.653  -0.244   8.356 -2.9791  0.0996  1.9132
  158DOPC  C31319086   2.736  -0.440   8.324  0.5147 -0.0176 -0.6205
  158DOPC  H13X19087   2.807  -0.508   8.375  0.2555 -0.9381 -1.4527
  158DOPC  H13Y19088   2.651  -0.500   8.283  1.7836 -2.1236 -0.3266
  158DOPC  C31419089   2.812  -0.385   8.206 -0.2366 -0.9494  0.8362
  158DOPC  H14X19090   2.743  -0.337   8.134  0.7885  0.6220  0.8655
  158DOPC  H14Y19091   2.880  -0.306   8.244  2.0587 -3.3693  2.1014
  158DOPC  C31519092   2.892  -0.486   8.119  0.0828  0.5049 -0.0266
  158DOPC  H15X19093   2.942  -0.545   8.198  0.5215 -1.6647 -1.8234
  158DOPC  H15Y19094   2.967  -0.428   8.061  0.9227 -1.6143 -1.2027
  158DOPC  C31619095   2.818  -0.575   8.028  0.4329 -0.0261  0.7411
  158DOPC  H16X19096   2.741  -0.624   8.090  0.1787  0.9354  1.1990
  158DOPC  H16Y19097   2.771  -0.511   7.950  0.4804  0.8243  1.3928
  158DOPC  C31719098   2.903  -0.693   7.963  0.1548 -0.0497 -0.1505
  158DOPC  H17X19099   2.946  -0.752   8.048  1.8455 -1.0698 -1.6455
  158DOPC  H17Y19100   2.838  -0.766   7.909 -0.0142 -0.8927  1.1235
  158DOPC  C31819101   3.026  -0.649   7.887 -0.0167  0.3736  0.6991
  158DOPC  H18X19102   3.077  -0.741   7.851 -0.1268  0.2788  0.7830
  158DOPC  H18Y19103   2.995  -0.588   7.800 -0.1844  0.0953  0.5616
  158DOPC  H18Z19104   3.098  -0.595   7.953  1.6438 -0.2284 -0.5403
  159DOPC     N19105   6.180   1.585   9.937 -0.2908 -0.9521 -0.2660
  159DOPC   C1219106   6.127   1.652   9.807 -0.4197 -0.8913 -0.8716
  159DOPC  H12A19107   6.021   1.645   9.791 -0.6365  3.2125 -2.4164
  159DOPC  H12B19108   6.174   1.590   9.733  0.2632 -2.9399  1.1379
  159DOPC   C1319109   6.132   1.666  10.057  0.3333  0.7074 -0.3275
  159DOPC  H13A19110   6.169   1.630  10.152 -1.4198  0.7796  0.4207
  159DOPC  H13B19111   6.173   1.764  10.036  4.1359 -1.2096 -3.3125
  159DOPC  H13C19112   6.025   1.670  10.068  0.3674  0.7711  0.0108
  159DOPC   C1419113   6.325   1.587   9.942  0.3315  0.5159  0.4861
  159DOPC  H14A19114   6.370   1.548   9.852 -2.3538  0.3098 -0.8606
  159DOPC  H14B19115   6.362   1.687   9.961  1.2976  0.6453 -1.8048
  159DOPC  H14C19116   6.363   1.522  10.020  4.9839 -0.0350 -1.8960
  159DOPC   C1519117   6.131   1.442   9.944  0.2569 -0.6958  0.0600
  159DOPC  H15A19118   6.188   1.382   9.875  0.2162  0.2281 -0.7926
  159DOPC  H15B19119   6.027   1.428   9.916  0.6794  0.8469 -2.6235
  159DOPC  H15C19120   6.143   1.411  10.047  1.5498 -0.9293 -0.1532
  159DOPC   C1119121   6.170   1.809   9.790 -0.1587 -0.5340 -0.7344
  159DOPC  H11A19122   6.278   1.817   9.815 -0.5837  4.5121  0.7313
  159DOPC  H11B19123   6.154   1.832   9.682  0.4704 -0.1871 -0.7574
  159DOPC     P19124   5.939   1.918   9.856  0.1216 -0.1306 -0.6017
  159DOPC   O1319125   5.914   2.051   9.914  0.4178  0.2613 -0.5486
  159DOPC   O1419126   5.879   1.801   9.920 -0.0272 -0.4182 -0.0459
  159DOPC   O1219127   6.095   1.900   9.863 -0.4593 -0.3757  0.3812
  159DOPC   O1119128   5.922   1.919   9.702  0.0297  0.2128  0.4633
  159DOPC    C119129   5.966   2.027   9.625  0.5989 -0.2437  0.4614
  159DOPC    HA19130   6.073   2.055   9.638  1.0474  0.9189 -4.1731
  159DOPC    HB19131   5.910   2.117   9.660 -1.1268 -1.2508  0.4065
  159DOPC    C219132   5.951   1.999   9.473  0.9903 -0.2597  0.0232
  159DOPC    HS19133   6.014   1.909   9.456  1.3528 -0.1087  0.5527
  159DOPC   O2119134   6.004   2.110   9.403 -0.0027 -0.3689 -0.5541
  159DOPC   C2119135   6.132   2.106   9.368  0.0026  0.1342 -0.6122
  159DOPC   O2219136   6.219   2.032   9.417  0.7412 -0.6287 -0.1578
  159DOPC   C2219137   6.152   2.215   9.265 -0.5159 -0.7658  0.1615
  159DOPC   H2R19138   6.262   2.222   9.250 -0.4358 -0.7977  0.6940
  159DOPC   H2S19139   6.110   2.307   9.310 -0.1505  0.0656 -1.1631
  159DOPC    C319140   5.803   1.963   9.440 -0.2253 -0.0736 -0.1170
  159DOPC    HX19141   5.746   2.058   9.444 -1.7339 -0.9310 -0.3054
  159DOPC    HY19142   5.766   1.907   9.529  0.0824  3.2080  2.2443
  159DOPC   O3119143   5.780   1.893   9.310  0.1777  0.0906 -0.3383
  159DOPC   C3119144   5.720   1.961   9.212 -0.4958 -0.0061  0.2379
  159DOPC   O3219145   5.669   2.071   9.223 -0.0845 -0.1232  0.6871
  159DOPC   C3219146   5.715   1.882   9.090  0.5766 -0.2748  0.6420
  159DOPC   H2X19147   5.819   1.846   9.070  0.2427 -1.6986  1.3143
  159DOPC   H2Y19148   5.642   1.798   9.090  0.8776 -0.7424 -3.3110
  159DOPC   C2319149   6.071   2.205   9.130  0.0301  0.1015 -1.4717
  159DOPC   H3R19150   6.057   2.307   9.091 -1.3593  0.0974 -1.0327
  159DOPC   H3S19151   5.973   2.164   9.164 -0.1174  2.1088  0.8051
  159DOPC   C2419152   6.139   2.115   9.024  0.1170 -0.1647 -0.2035
  159DOPC   H4R19153   6.142   2.016   9.074 -0.7114 -0.1957 -0.2049
  159DOPC   H4S19154   6.243   2.152   9.011  0.3639 -0.3167  1.1661
  159DOPC   C2519155   6.062   2.107   8.887  0.7650 -0.2817 -0.0087
  159DOPC   H5R19156   6.038   2.208   8.847 -1.7495 -0.7684  0.0974
  159DOPC   H5S19157   5.962   2.060   8.902 -0.9405  2.8392 -0.8603
  159DOPC   C2619158   6.132   2.022   8.780  0.2952  0.3878 -0.3691
  159DOPC   H6R19159   6.149   1.925   8.832  1.8226  0.9231  0.2119
  159DOPC   H6S19160   6.233   2.068   8.770  0.6898  0.0220  1.5232
  159DOPC   C2719161   6.061   2.024   8.648 -0.4222 -0.6143  0.4357
  159DOPC   H7R19162   6.077   2.130   8.618 -0.2292 -0.4215  1.1967
  159DOPC   H7S19163   5.954   1.994   8.657 -0.1410 -1.4582  1.0823
  159DOPC   C2819164   6.122   1.924   8.546  0.3571  0.1044 -0.1439
  159DOPC   H8R19165   6.118   1.823   8.590  2.3559  0.0805  0.0490
  159DOPC   H8S19166   6.229   1.948   8.533  0.3799  0.4750  0.6629
  159DOPC   C2919167   6.044   1.907   8.418 -0.7904 -0.3147 -0.8023
  159DOPC   H9R19168   5.942   1.866   8.424 -1.4717  1.4632  2.5658
  159DOPC  C21019169   6.089   1.951   8.303 -0.4206 -0.5654  0.0768
  159DOPC  H10R19170   6.031   1.939   8.211 -0.5529  0.7292 -0.0259
  159DOPC  C21119171   6.225   2.017   8.282  0.2576 -0.3942  1.3347
  159DOPC  H11R19172   6.291   1.954   8.218  1.0288  1.2445  0.4628
  159DOPC  H11S19173   6.284   2.044   8.372  4.0477 -0.3998 -0.9369
  159DOPC  C21219174   6.197   2.155   8.205 -0.2146 -0.9526 -0.0512
  159DOPC  H12R19175   6.289   2.218   8.209 -0.8576  0.3959 -3.1979
  159DOPC  H12S19176   6.121   2.207   8.267 -0.6744  0.2714 -1.5591
  159DOPC  C21319177   6.143   2.155   8.058 -0.3860 -0.3563 -0.0609
  159DOPC  H13R19178   6.131   2.260   8.024  0.8896  0.0516  0.6846
  159DOPC  H13S19179   6.045   2.103   8.059  0.0222 -1.1723 -0.9691
  159DOPC  C21419180   6.249   2.083   7.969 -0.4243 -0.6200  0.5219
  159DOPC  H14R19181   6.245   1.973   7.984  0.7696 -0.6517  0.7227
  159DOPC  H14S19182   6.353   2.117   7.987 -1.6879  3.8883  0.5730
  159DOPC  C21519183   6.213   2.106   7.821  0.6076 -1.0056 -0.6100
  159DOPC  H15R19184   6.225   2.214   7.796  0.1690 -1.1634 -1.5560
  159DOPC  H15S19185   6.106   2.078   7.808 -0.7965  1.9031  3.0266
  159DOPC  C21619186   6.301   2.020   7.728 -0.1583  0.1452  0.3632
  159DOPC  H16R19187   6.287   1.910   7.740 -0.3155  0.1081 -0.1354
  159DOPC  H16S19188   6.404   2.053   7.754 -0.4998  2.0685 -0.5926
  159DOPC  C21719189   6.288   2.035   7.578 -0.2378 -0.2835 -0.0264
  159DOPC  H17R19190   6.202   1.975   7.540 -1.1305 -0.2798  1.8537
  159DOPC  H17S19191   6.374   1.980   7.535  1.6024  2.3210  0.1014
  159DOPC  C21819192   6.284   2.178   7.524  0.2537  0.0568 -1.3069
  159DOPC  H18R19193   6.371   2.239   7.558 -0.8568  1.5035 -0.9598
  159DOPC  H18S19194   6.190   2.219   7.567  0.7247  0.9815 -1.1241
  159DOPC  H18T19195   6.275   2.170   7.414 -4.0885  1.6679 -1.2681
  159DOPC   C3319196   5.676   1.969   8.970  0.3587  0.8082 -1.3420
  159DOPC   H3X19197   5.729   2.067   8.967 -0.3934  1.2076 -2.1237
  159DOPC   H3Y19198   5.570   1.995   8.989 -0.0020 -1.6603  0.3499
  159DOPC   C3419199   5.707   1.898   8.844 -0.0893  0.2578  0.1843
  159DOPC   H4X19200   5.810   1.856   8.849 -0.1893 -0.2523 -1.4294
  159DOPC   H4Y19201   5.720   1.970   8.760  0.2118 -0.3251 -0.2773
  159DOPC   C3519202   5.602   1.798   8.806 -0.1127 -0.5627  0.5779
  159DOPC   H5X19203   5.506   1.853   8.818  0.0758 -0.2331  0.5940
  159DOPC   H5Y19204   5.594   1.711   8.874 -1.6426 -0.3736  0.6933
  159DOPC   C3619205   5.623   1.745   8.663 -0.0319  0.3807  0.0052
  159DOPC   H6X19206   5.633   1.832   8.595  0.8408 -0.3448 -0.8437
  159DOPC   H6Y19207   5.719   1.688   8.652 -1.2741 -1.5555 -1.6959
  159DOPC   C3719208   5.518   1.640   8.610  0.3627 -0.1713  0.8376
  159DOPC   H7X19209   5.494   1.558   8.680 -0.6412 -0.2069  0.4742
  159DOPC   H7Y19210   5.423   1.697   8.600  0.2341 -0.6940 -1.4967
  159DOPC   C3819211   5.543   1.579   8.474 -0.0051  0.1582  0.2209
  159DOPC   H8X19212   5.453   1.514   8.464 -0.9587  1.2612  1.2379
  159DOPC   H8Y19213   5.634   1.518   8.488  0.2280  0.7092  1.2658
  159DOPC   C3919214   5.553   1.678   8.360  0.4486  0.3527  0.2825
  159DOPC   H9X19215   5.573   1.781   8.393 -3.7659  1.2396  0.6657
  159DOPC  C31019216   5.531   1.648   8.231 -0.9002  0.2789 -0.8912
  159DOPC  H10X19217   5.574   1.723   8.163  2.2402  0.2554  0.8685
  159DOPC  C31119218   5.502   1.508   8.174  0.5943 -0.1526  0.9194
  159DOPC  H11X19219   5.482   1.429   8.249 -2.1638  2.2072  2.8665
  159DOPC  H11Y19220   5.587   1.474   8.110 -1.2549 -1.1523 -1.1402
  159DOPC  C31219221   5.366   1.517   8.090 -0.2175  0.2037 -0.9715
  159DOPC  H12X19222   5.285   1.570   8.145 -1.1685 -0.0482 -2.0969
  159DOPC  H12Y19223   5.339   1.412   8.067  0.1888  0.0683 -0.8364
  159DOPC  C31319224   5.387   1.603   7.965 -0.0776 -0.6936  0.2830
  159DOPC  H13X19225   5.419   1.708   7.985 -0.1325 -0.2278 -1.7848
  159DOPC  H13Y19226   5.466   1.557   7.902  0.7494  2.2630 -1.0079
  159DOPC  C31419227   5.263   1.620   7.867 -0.0782 -0.6048  0.0287
  159DOPC  H14X19228   5.222   1.517   7.856 -0.4179 -0.3264 -1.6372
  159DOPC  H14Y19229   5.188   1.696   7.897  0.2658  1.3237 -3.4396
  159DOPC  C31519230   5.300   1.676   7.732  0.1356  0.5211 -0.3414
  159DOPC  H15X19231   5.360   1.594   7.687 -1.2149 -3.0969  3.7620
  159DOPC  H15Y19232   5.360   1.769   7.741  0.1306  0.3532  2.5014
  159DOPC  C31619233   5.179   1.701   7.649  0.2222  0.1589 -0.1949
  159DOPC  H16X19234   5.139   1.598   7.640  1.9518 -0.8843  2.7350
  159DOPC  H16Y19235   5.103   1.754   7.710  2.1033  1.1775  1.3823
  159DOPC  C31719236   5.212   1.768   7.513 -0.0280  0.7865 -0.3270
  159DOPC  H17X19237   5.247   1.870   7.541 -1.2113  0.6580  1.7738
  159DOPC  H17Y19238   5.295   1.711   7.467  0.5097 -0.4430  2.0127
  159DOPC  C31819239   5.097   1.795   7.415 -0.0622  0.1725  0.5160
  159DOPC  H18X19240   5.142   1.822   7.317  0.1484 -0.4022  0.4509
  159DOPC  H18Y19241   5.030   1.713   7.383 -0.8385  1.9721 -3.0283
  159DOPC  H18Z19242   5.032   1.878   7.450 -0.7469  0.5226 -1.4702
  160DOPC     N19243   1.560   6.834   9.890 -0.7013  0.2649  0.3125
  160DOPC   C1219244   1.475   6.719   9.843  0.9442 -0.1334 -0.2834
  160DOPC  H12A19245   1.394   6.755   9.781  0.3661 -1.1536 -0.1501
  160DOPC  H12B19246   1.429   6.671   9.929 -0.7933  1.6359 -0.1514
  160DOPC   C1319247   1.637   6.784  10.004 -0.8382 -0.4025 -0.2933
  160DOPC  H13A19248   1.572   6.776  10.090 -1.6557  0.5858 -0.7967
  160DOPC  H13B19249   1.663   6.682   9.980 -1.9100 -1.1575  1.5106
  160DOPC  H13C19250   1.717   6.852  10.031 -1.0582 -0.3788  0.3119
  160DOPC   C1419251   1.485   6.943   9.945  0.6657 -0.4032 -0.1281
  160DOPC  H14A19252   1.425   6.912  10.030 -2.2837 -2.0022 -2.5388
  160DOPC  H14B19253   1.548   7.025   9.974  2.2032 -1.2398 -0.9475
  160DOPC  H14C19254   1.421   6.989   9.871  2.2312 -0.1866 -1.3776
  160DOPC   C1519255   1.649   6.885   9.787  0.0790 -0.4473  0.0373
  160DOPC  H15A19256   1.594   6.892   9.695 -1.0486 -1.4075  0.6161
  160DOPC  H15B19257   1.731   6.819   9.767 -0.6731 -0.9679 -1.4496
  160DOPC  H15C19258   1.683   6.981   9.824 -0.1373 -1.2890  2.6635
  160DOPC   C1119259   1.544   6.597   9.777  0.0518  0.4777  0.1429
  160DOPC  H11A19260   1.472   6.522   9.737  2.0896 -0.9784 -1.0117
  160DOPC  H11B19261   1.585   6.642   9.685 -0.8754 -1.2963 -1.1973
  160DOPC     P19262   1.614   6.393   9.917  0.2593  0.7319 -0.2173
  160DOPC   O1319263   1.487   6.398   9.989 -0.2381  0.3336 -0.3438
  160DOPC   O1419264   1.734   6.366  10.002 -0.4415 -0.9119 -0.0928
  160DOPC   O1219265   1.645   6.533   9.857  0.8516 -0.4506  0.2446
  160DOPC   O1119266   1.605   6.305   9.786 -0.1536  0.2482  0.2962
  160DOPC    C119267   1.713   6.298   9.682  0.3934 -0.5570 -0.1287
  160DOPC    HA19268   1.773   6.204   9.680  1.1902 -0.0468 -1.1416
  160DOPC    HB19269   1.778   6.388   9.684 -1.4238  0.8478 -1.5183
  160DOPC    C219270   1.641   6.310   9.544  0.4741 -0.0162  0.9486
  160DOPC    HS19271   1.585   6.406   9.547  0.5638  0.0554  0.4859
  160DOPC   O2119272   1.546   6.197   9.525 -0.4371  0.4438 -0.0420
  160DOPC   C2119273   1.434   6.218   9.460 -0.1955 -0.0794  0.0928
  160DOPC   O2219274   1.385   6.324   9.428  0.1133 -0.0526 -0.5896
  160DOPC   C2219275   1.358   6.086   9.439 -0.5685  0.6646 -0.6666
  160DOPC   H2R19276   1.252   6.115   9.420 -0.4147  2.1412  0.4752
  160DOPC   H2S19277   1.369   6.019   9.527  2.4792  0.4516 -1.1351
  160DOPC    C319278   1.740   6.308   9.429 -0.2438 -0.0442  0.3387
  160DOPC    HX19279   1.779   6.204   9.429 -1.4108 -0.5148 -1.0023
  160DOPC    HY19280   1.833   6.368   9.441  0.4091  0.2796 -4.3684
  160DOPC   O3119281   1.665   6.336   9.308  0.1310  0.0330  0.3617
  160DOPC   C3119282   1.638   6.461   9.279  0.8383  0.0622 -0.2460
  160DOPC   O3219283   1.682   6.553   9.343 -0.1527  0.0202  0.4204
  160DOPC   C3219284   1.556   6.462   9.150  0.6761 -1.4179 -0.8123
  160DOPC   H2X19285   1.468   6.397   9.171  0.3555 -0.6151  0.4673
  160DOPC   H2Y19286   1.520   6.566   9.132  1.1031 -0.3654  3.2970
  160DOPC   C2319287   1.414   5.987   9.332  0.0604  0.0637  0.0869
  160DOPC   H3R19288   1.346   5.901   9.317  1.0958 -0.9725  1.1549
  160DOPC   H3S19289   1.503   5.931   9.367 -0.3680 -2.3294 -2.2725
  160DOPC   C2419290   1.448   6.053   9.193 -0.1706  0.8230  0.5925
  160DOPC   H4R19291   1.523   6.133   9.213  1.4329 -0.3998 -0.3188
  160DOPC   H4S19292   1.353   6.094   9.154  0.1196  1.7474  0.8112
  160DOPC   C2519293   1.521   5.947   9.105  0.2973 -0.6651  0.2296
  160DOPC   H5R19294   1.455   5.858   9.111  0.4257 -0.6881  1.4365
  160DOPC   H5S19295   1.614   5.901   9.142 -1.3052 -3.0444  1.5797
  160DOPC   C2619296   1.543   5.993   8.963  0.3595 -0.1676 -0.3414
  160DOPC   H6R19297   1.616   6.078   8.961  1.2126 -0.8734  0.0068
  160DOPC   H6S19298   1.449   6.025   8.913  0.2548  1.1561  0.6397
  160DOPC   C2719299   1.589   5.881   8.867  0.8444  0.7383 -0.0385
  160DOPC   H7R19300   1.503   5.814   8.846 -0.0010  1.7447  0.1530
  160DOPC   H7S19301   1.668   5.826   8.922 -1.3047 -0.1671  2.3583
  160DOPC   C2819302   1.654   5.947   8.751  0.3948 -0.1517  0.4006
  160DOPC   H8R19303   1.744   5.999   8.788 -0.3355  0.6873  1.0420
  160DOPC   H8S19304   1.591   6.031   8.716  0.9055 -0.3292 -1.0031
  160DOPC   C2919305   1.678   5.853   8.634 -0.5990  0.6212  0.6805
  160DOPC   H9R19306   1.594   5.785   8.614 -1.7902  1.6776  1.8541
  160DOPC  C21019307   1.796   5.832   8.566  0.3991  0.2785  0.5911
  160DOPC  H10R19308   1.801   5.770   8.475 -2.6558  1.3004 -0.3844
  160DOPC  C21119309   1.917   5.922   8.579 -0.4406  0.0154 -0.1880
  160DOPC  H11R19310   2.008   5.867   8.611  0.7119  2.5850  1.3657
  160DOPC  H11S19311   1.897   5.997   8.659  1.0695 -1.1211  1.3160
  160DOPC  C21219312   1.964   6.002   8.452 -0.3230  0.1298 -0.2075
  160DOPC  H12R19313   2.053   6.064   8.479 -0.6762  0.4560  0.2191
  160DOPC  H12S19314   1.883   6.072   8.424 -1.7817 -1.8626 -1.1804
  160DOPC  C21319315   2.007   5.903   8.341  0.1820  0.5428 -0.6039
  160DOPC  H13R19316   1.918   5.850   8.301  0.4527 -0.8227  0.5035
  160DOPC  H13S19317   2.079   5.827   8.377 -0.5618 -0.2872 -0.8373
  160DOPC  C21419318   2.082   5.984   8.241 -0.5965  0.1940  0.0237
  160DOPC  H14R19319   2.172   6.033   8.283 -0.7436  0.3038  0.2168
  160DOPC  H14S19320   2.013   6.052   8.186  0.1754  0.4378 -0.6578
  160DOPC  C21519321   2.113   5.903   8.117  0.4128 -0.8359  0.4789
  160DOPC  H15R19322   2.015   5.871   8.075  1.4315 -2.0833 -1.0419
  160DOPC  H15S19323   2.170   5.809   8.133 -0.8663 -1.4490  1.6801
  160DOPC  C21619324   2.163   5.976   7.997 -0.1885 -0.3451  0.0853
  160DOPC  H16R19325   2.266   6.015   8.006 -0.8466  2.0172 -1.4552
  160DOPC  H16S19326   2.098   6.060   7.963 -0.3208 -1.2223 -1.9992
  160DOPC  C21719327   2.168   5.891   7.868  0.5155 -0.4357 -0.5676
  160DOPC  H17R19328   2.137   5.938   7.773  0.7209 -0.4045 -0.6213
  160DOPC  H17S19329   2.109   5.800   7.891 -0.0078  0.1530  0.4835
  160DOPC  C21819330   2.309   5.849   7.841  0.4290  0.2659 -0.2497
  160DOPC  H18R19331   2.321   5.798   7.743 -0.2637  0.6946 -0.5592
  160DOPC  H18S19332   2.344   5.784   7.924  0.4031  1.3497  0.6344
  160DOPC  H18T19333   2.379   5.935   7.837 -0.2076  0.8321  0.4991
  160DOPC   C3319334   1.629   6.401   9.032 -0.0572 -0.2232  0.1162
  160DOPC   H3X19335   1.665   6.300   9.062  1.5824  0.2270 -0.2267
  160DOPC   H3Y19336   1.713   6.473   9.015 -1.8341  2.8473  3.0595
  160DOPC   C3419337   1.538   6.381   8.913  0.4851 -0.5535  0.5777
  160DOPC   H4X19338   1.472   6.470   8.900  1.5297  0.1079 -0.3720
  160DOPC   H4Y19339   1.478   6.290   8.933  1.0503 -0.4706  2.8928
  160DOPC   C3519340   1.620   6.354   8.777  0.0685 -0.3561 -0.0843
  160DOPC   H5X19341   1.686   6.267   8.796  1.2084  0.6794  0.8847
  160DOPC   H5Y19342   1.677   6.447   8.753 -0.9765  0.9964  2.2219
  160DOPC   C3619343   1.543   6.342   8.645  0.9324  0.0066  0.0219
  160DOPC   H6X19344   1.465   6.264   8.660 -0.2547  0.6974 -2.0039
  160DOPC   H6Y19345   1.492   6.436   8.612 -0.9282 -0.5988  1.0037
  160DOPC   C3719346   1.646   6.308   8.540 -1.2682  0.5747  0.6038
  160DOPC   H7X19347   1.735   6.372   8.556 -1.6911  0.8273  2.0707
  160DOPC   H7Y19348   1.681   6.204   8.560  1.1506  1.1249 -0.3824
  160DOPC   C3819349   1.606   6.327   8.399  0.4732 -0.5944  0.0015
  160DOPC   H8X19350   1.586   6.436   8.387 -0.2307 -0.4733  1.9508
  160DOPC   H8Y19351   1.504   6.283   8.390  0.2356 -0.7929  2.8611
  160DOPC   C3919352   1.701   6.295   8.291 -0.0615  0.0889  0.2085
  160DOPC   H9X19353   1.800   6.342   8.299  0.3124 -0.4011 -1.2250
  160DOPC  C31019354   1.683   6.210   8.194  0.2352 -0.3713  0.1933
  160DOPC  H10X19355   1.763   6.193   8.121 -2.4228 -2.0048 -2.5793
  160DOPC  C31119356   1.563   6.120   8.169  1.3605  0.4269 -0.2834
  160DOPC  H11X19357   1.498   6.145   8.082 -0.5360 -2.7192  0.0711
  160DOPC  H11Y19358   1.500   6.119   8.261  1.3039 -1.2809 -0.3091
  160DOPC  C31219359   1.606   5.975   8.148  0.4367  0.5717 -0.2161
  160DOPC  H12X19360   1.643   5.938   8.246 -2.2261  1.6744  1.3133
  160DOPC  H12Y19361   1.685   5.968   8.069  0.9308 -2.1033  0.4142
  160DOPC  C31319362   1.500   5.872   8.107  0.2366  0.4221 -0.0439
  160DOPC  H13X19363   1.537   5.768   8.107 -1.9426 -0.4118  0.5334
  160DOPC  H13Y19364   1.420   5.891   8.182  1.2737  0.6500  1.0294
  160DOPC  C31419365   1.449   5.899   7.963  0.5630  0.3353 -0.2886
  160DOPC  H14X19366   1.344   5.864   7.957 -0.2323  2.6421 -0.7411
  160DOPC  H14Y19367   1.439   6.009   7.947  0.2462  0.0105 -2.5706
  160DOPC  C31519368   1.548   5.851   7.860 -0.2799  0.5314 -0.4533
  160DOPC  H15X19369   1.553   5.740   7.863  1.2567  0.5930 -0.0308
  160DOPC  H15Y19370   1.651   5.884   7.883 -0.2687  0.2415 -0.0826
  160DOPC  C31619371   1.494   5.881   7.717 -0.2083  0.9252  0.7298
  160DOPC  H16X19372   1.401   5.824   7.695  0.1748  0.6683 -0.2961
  160DOPC  H16Y19373   1.474   5.990   7.709  2.2662  1.3457 -1.1487
  160DOPC  C31719374   1.603   5.837   7.617  0.0029  0.0038  0.8795
  160DOPC  H17X19375   1.704   5.867   7.652  1.1761 -0.9564 -1.4195
  160DOPC  H17Y19376   1.611   5.726   7.616  2.8199  0.1469 -0.2810
  160DOPC  C31819377   1.565   5.896   7.481 -0.5252  0.4592 -0.0337
  160DOPC  H18X19378   1.644   5.870   7.407  0.8918  1.6518  1.0054
  160DOPC  H18Y19379   1.468   5.860   7.441 -0.0697  1.4474 -2.1701
  160DOPC  H18Z19380   1.552   6.006   7.486  1.8397  0.7763  0.2280
  161DOPC     N19381   2.938   0.213  10.255 -0.0598  0.4425 -0.5735
  161DOPC   C1219382   3.010   0.208  10.123  0.4962  0.4335  0.2716
  161DOPC  H12A19383   3.010   0.109  10.080  0.6063  0.9844 -1.0528
  161DOPC  H12B19384   3.113   0.234  10.145  0.5888 -1.1386  1.9566
  161DOPC   C1319385   2.974   0.328  10.340  0.2351 -0.1133  0.3117
  161DOPC  H13A19386   3.076   0.325  10.374  0.0814 -1.1072  0.7087
  161DOPC  H13B19387   2.949   0.421  10.289 -0.0987 -0.8517 -0.9210
  161DOPC  H13C19388   2.913   0.325  10.429  0.3010 -2.2211  0.3393
  161DOPC   C1419389   2.976   0.091  10.345  0.3201  0.4068  0.1693
  161DOPC  H14A19390   3.073   0.100  10.391  0.4493 -1.5076  0.3895
  161DOPC  H14B19391   2.915   0.080  10.434  3.1358 -1.7616  2.0392
  161DOPC  H14C19392   2.974  -0.002  10.290 -1.3782 -0.2810  1.3122
  161DOPC   C1519393   2.788   0.213  10.238 -0.7440  0.5473  0.6646
  161DOPC  H15A19394   2.759   0.296  10.176 -0.3170  0.5215  0.4246
  161DOPC  H15B19395   2.733   0.211  10.330  0.9908  0.0043  1.7512
  161DOPC  H15C19396   2.764   0.134  10.169 -1.1765 -0.1494  1.5913
  161DOPC   C1119397   2.953   0.301  10.017 -0.0949  0.3523  0.9104
  161DOPC  H11A19398   3.013   0.293   9.924  1.1275  0.6019  1.6594
  161DOPC  H11B19399   2.848   0.277   9.989  0.5187  0.2297 -1.5382
  161DOPC     P19400   3.087   0.525  10.044  0.2125  0.2773 -0.1145
  161DOPC   O1319401   3.194   0.428  10.079 -0.7876 -1.0285  0.4530
  161DOPC   O1419402   3.074   0.636  10.140 -0.2298 -0.3588  0.4534
  161DOPC   O1219403   2.961   0.436  10.060  0.0363  0.6208 -0.4558
  161DOPC   O1119404   3.103   0.566   9.895 -0.0607  0.3810  0.2311
  161DOPC    C119405   2.996   0.593   9.810  0.0385  0.1458 -0.1419
  161DOPC    HA19406   2.999   0.703   9.795  0.3885  0.5829  2.5555
  161DOPC    HB19407   2.898   0.573   9.858 -0.1521  0.9443 -0.1916
  161DOPC    C219408   2.994   0.529   9.668  0.4811  0.2121 -0.5357
  161DOPC    HS19409   3.045   0.431   9.680  0.5047 -0.1022 -2.6974
  161DOPC   O2119410   3.063   0.615   9.584 -0.0775  0.1468 -0.3165
  161DOPC   C2119411   3.116   0.565   9.480 -1.1363 -0.2208  0.3456
  161DOPC   O2219412   3.144   0.445   9.465 -0.1954 -0.3549 -0.1888
  161DOPC   C2219413   3.131   0.670   9.373 -0.4951  0.4520 -0.0085
  161DOPC   H2R19414   3.235   0.675   9.333 -0.9195  3.2859 -0.9550
  161DOPC   H2S19415   3.110   0.770   9.415  0.2173  0.1901  1.0035
  161DOPC    C319416   2.851   0.506   9.623  0.5493  0.2732  0.4034
  161DOPC    HX19417   2.787   0.595   9.634 -0.9302 -0.6653 -0.2611
  161DOPC    HY19418   2.802   0.431   9.690 -0.8924  0.0299 -0.8622
  161DOPC   O3119419   2.839   0.463   9.485  0.1332 -0.1632  0.0262
  161DOPC   C3119420   2.801   0.339   9.456  0.7590 -0.1989 -0.2354
  161DOPC   O3219421   2.759   0.258   9.537 -0.3082 -0.2981  0.1241
  161DOPC   C3219422   2.794   0.305   9.304 -0.3714 -0.0003 -0.3685
  161DOPC   H2X19423   2.894   0.320   9.256 -0.2970 -3.3060 -1.5100
  161DOPC   H2Y19424   2.780   0.195   9.293 -0.8848  0.2239 -2.3821
  161DOPC   C2319425   3.037   0.644   9.250  0.6385 -0.6748 -0.1733
  161DOPC   H3R19426   2.936   0.609   9.278  1.2598 -1.4266  1.2117
  161DOPC   H3S19427   3.086   0.568   9.186  0.8645 -0.7431  0.0752
  161DOPC   C2419428   3.021   0.779   9.175  0.4338 -0.5604 -0.5285
  161DOPC   H4R19429   3.120   0.821   9.146  0.9433  1.4818  3.4308
  161DOPC   H4S19430   2.966   0.852   9.240 -1.0438  0.5806 -2.9221
  161DOPC   C2519431   2.932   0.747   9.046  0.0276 -0.4094 -0.3015
  161DOPC   H5R19432   2.832   0.708   9.076 -0.4351  0.8372 -0.1619
  161DOPC   H5S19433   2.991   0.671   8.990  0.9249 -0.1282  0.2411
  161DOPC   C2619434   2.916   0.871   8.955 -0.5804 -0.4791  0.3828
  161DOPC   H6R19435   3.012   0.889   8.902 -1.8789  1.9192 -1.3524
  161DOPC   H6S19436   2.901   0.954   9.027  0.3610  1.5526 -1.6389
  161DOPC   C2719437   2.793   0.882   8.867 -0.3018 -0.1251 -0.1900
  161DOPC   H7R19438   2.798   0.986   8.829 -0.7248  0.6588  1.7747
  161DOPC   H7S19439   2.706   0.867   8.934 -0.0191  1.4874  0.5784
  161DOPC   C2819440   2.794   0.777   8.755 -0.2756  0.0981 -1.1303
  161DOPC   H8R19441   2.703   0.793   8.693 -0.2446  0.4370 -1.0877
  161DOPC   H8S19442   2.784   0.678   8.805 -0.0733  0.1150 -1.0570
  161DOPC   C2919443   2.919   0.772   8.679 -0.0704  0.5105 -0.7022
  161DOPC   H9R19444   2.974   0.677   8.676  1.1202  1.2068 -2.3693
  161DOPC  C21019445   2.969   0.867   8.588  0.0323  0.1899  0.2597
  161DOPC  H10R19446   3.071   0.853   8.551  1.0549  0.7999  2.6568
  161DOPC  C21119447   2.892   0.981   8.535  0.0754  0.8280  0.2315
  161DOPC  H11R19448   2.950   1.071   8.508  0.3645  0.2158 -1.3125
  161DOPC  H11S19449   2.813   1.005   8.609 -1.0835 -3.5083  0.7158
  161DOPC  C21219450   2.811   0.934   8.407 -0.2579  0.3846 -0.4981
  161DOPC  H12R19451   2.740   1.014   8.381  0.2510  1.0122  0.0030
  161DOPC  H12S19452   2.742   0.853   8.439  1.1418 -1.1900 -1.2916
  161DOPC  C21319453   2.891   0.889   8.283 -0.0936  0.2118 -0.5134
  161DOPC  H13R19454   2.904   0.779   8.291 -0.4346 -0.0945 -3.2195
  161DOPC  H13S19455   2.997   0.919   8.298  0.0804 -0.1366 -1.0057
  161DOPC  C21419456   2.819   0.920   8.153  0.1348 -0.0340 -0.4668
  161DOPC  H14R19457   2.785   1.025   8.149 -1.3875 -0.4456  0.7032
  161DOPC  H14S19458   2.731   0.852   8.155 -0.2018  0.4083  0.0934
  161DOPC  C21519459   2.903   0.888   8.035 -0.0535  0.1265 -0.5264
  161DOPC  H15R19460   2.939   0.783   8.042  0.2366  0.2105 -0.7289
  161DOPC  H15S19461   2.989   0.958   8.033  0.0711  0.0818 -4.3604
  161DOPC  C21619462   2.833   0.899   7.899  0.1701 -0.0709 -0.2351
  161DOPC  H16R19463   2.808   1.007   7.884 -1.2051 -0.2652  0.5055
  161DOPC  H16S19464   2.742   0.838   7.915 -0.4177  0.4702 -1.3832
  161DOPC  C21719465   2.924   0.843   7.784  0.4733 -0.6239 -0.0391
  161DOPC  H17R19466   3.027   0.821   7.820  1.0354 -0.3562 -1.4456
  161DOPC  H17S19467   2.938   0.918   7.704  0.9010  0.3460  0.9152
  161DOPC  C21819468   2.856   0.721   7.716  0.1486 -0.1533 -0.6973
  161DOPC  H18R19469   2.747   0.719   7.697  0.6284 -1.3729 -3.9228
  161DOPC  H18S19470   2.877   0.633   7.780  0.1359  1.6866  2.0274
  161DOPC  H18T19471   2.898   0.691   7.618 -0.1893 -2.6213 -0.1384
  161DOPC   C3319472   2.684   0.382   9.226 -0.6394 -0.3302 -0.5661
  161DOPC   H3X19473   2.689   0.491   9.242 -2.1569 -0.4252  0.8316
  161DOPC   H3Y19474   2.588   0.353   9.273 -1.7074  2.7018 -0.7127
  161DOPC   C3419475   2.664   0.357   9.077 -0.2422 -0.0375  0.0752
  161DOPC   H4X19476   2.631   0.253   9.060  0.3267 -0.1042 -0.6827
  161DOPC   H4Y19477   2.759   0.366   9.019 -0.7764 -3.4736 -1.5741
  161DOPC   C3519478   2.551   0.435   9.017 -0.4850  0.2182  0.2566
  161DOPC   H5X19479   2.550   0.534   9.067 -1.6702 -1.0709  2.9852
  161DOPC   H5Y19480   2.452   0.390   9.038 -0.2885  0.2173  1.1814
  161DOPC   C3619481   2.567   0.459   8.868 -0.2274 -0.2398 -0.8383
  161DOPC   H6X19482   2.485   0.521   8.826  0.8901  0.7041 -1.6829
  161DOPC   H6Y19483   2.658   0.520   8.851  0.6505 -0.8849  1.3270
  161DOPC   C3719484   2.585   0.329   8.783 -0.9486  0.5861  0.6122
  161DOPC   H7X19485   2.676   0.287   8.830 -1.0153  1.6749  1.7645
  161DOPC   H7Y19486   2.500   0.264   8.815 -1.6211  1.7841  1.3091
  161DOPC   C3819487   2.610   0.356   8.633 -0.1286 -0.2470  0.0804
  161DOPC   H8X19488   2.639   0.259   8.587  0.8071 -0.9279  2.0072
  161DOPC   H8Y19489   2.687   0.434   8.618  0.4828 -1.4013 -3.7634
  161DOPC   C3919490   2.485   0.389   8.566 -0.4484  0.1455  0.4449
  161DOPC   H9X19491   2.393   0.363   8.621 -0.5550  0.7956  0.5909
  161DOPC  C31019492   2.461   0.456   8.455 -0.3422  0.4480  0.4669
  161DOPC  H10X19493   2.358   0.462   8.418 -0.1191  1.9331 -0.0050
  161DOPC  C31119494   2.571   0.511   8.364  0.6710 -0.3822 -0.2671
  161DOPC  H11X19495   2.672   0.487   8.404  1.5546  1.2430 -1.3837
  161DOPC  H11Y19496   2.565   0.622   8.369 -0.9546 -0.5112  2.6466
  161DOPC  C31219497   2.559   0.459   8.221  0.0278 -0.0529 -0.2215
  161DOPC  H12X19498   2.469   0.501   8.171  0.6409  0.4206 -0.9516
  161DOPC  H12Y19499   2.563   0.348   8.216  4.3493 -0.0072 -1.5908
  161DOPC  C31319500   2.683   0.497   8.134  0.7131 -0.6616  0.3593
  161DOPC  H13X19501   2.744   0.572   8.188  0.2764  0.4288 -0.6138
  161DOPC  H13Y19502   2.737   0.400   8.129  1.6688 -0.0804 -2.2255
  161DOPC  C31419503   2.659   0.547   7.993  0.3007 -0.2589 -1.0603
  161DOPC  H14X19504   2.616   0.650   7.991 -2.3406 -1.2387  0.3618
  161DOPC  H14Y19505   2.756   0.558   7.941  0.1242  1.2937 -1.1270
  161DOPC  C31519506   2.569   0.463   7.900  0.2659 -0.2085 -0.1527
  161DOPC  H15X19507   2.467   0.487   7.939 -0.3525  0.7524 -2.2158
  161DOPC  H15Y19508   2.600   0.357   7.912  1.1149 -0.0425 -0.7890
  161DOPC  C31619509   2.551   0.516   7.751  0.0797 -0.2463  0.0101
  161DOPC  H16X19510   2.525   0.623   7.758 -0.6356 -0.4704  0.9943
  161DOPC  H16Y19511   2.647   0.500   7.697  0.0395 -0.2425 -0.0625
  161DOPC  C31719512   2.445   0.447   7.672  0.1180 -0.2564  0.5718
  161DOPC  H17X19513   2.490   0.347   7.656 -2.7074 -1.6481  0.6962
  161DOPC  H17Y19514   2.347   0.452   7.723 -0.0298 -0.3423  0.3004
  161DOPC  C31819515   2.427   0.516   7.535 -0.1727  0.0119  0.5517
  161DOPC  H18X19516   2.340   0.471   7.482 -0.2747  0.9069 -0.0621
  161DOPC  H18Y19517   2.393   0.621   7.547  0.2483 -0.0837  3.3081
  161DOPC  H18Z19518   2.513   0.521   7.465 -0.0857  0.6467  0.6967
  162DOPC     N19519   0.754   5.609  10.050 -0.3304 -0.3484 -0.5222
  162DOPC   C1219520   0.874   5.517  10.027  0.1246 -0.0436  0.0671
  162DOPC  H12A19521   0.885   5.466  10.122 -1.0380  0.5918  0.5693
  162DOPC  H12B19522   0.965   5.571  10.007 -1.0464  1.1861 -2.2474
  162DOPC   C1319523   0.726   5.691   9.921  0.2273  0.2816 -0.0792
  162DOPC  H13A19524   0.796   5.772   9.910 -0.2964  0.6756 -0.5397
  162DOPC  H13B19525   0.734   5.624   9.837  1.8604 -0.5546  0.6902
  162DOPC  H13C19526   0.625   5.728   9.930  0.0014  0.1442 -1.7379
  162DOPC   C1419527   0.770   5.703  10.164 -0.5840  0.0649 -0.1192
  162DOPC  H14A19528   0.677   5.749  10.191 -0.8473 -0.0942 -0.7330
  162DOPC  H14B19529   0.820   5.659  10.249  3.8946 -0.8933 -2.8644
  162DOPC  H14C19530   0.824   5.788  10.124  0.9710 -1.1670 -0.7678
  162DOPC   C1519531   0.633   5.516  10.090 -0.2828  0.0631  0.9481
  162DOPC  H15A19532   0.613   5.448  10.009  4.1483 -0.8370  0.3352
  162DOPC  H15B19533   0.544   5.575  10.103 -0.8284 -0.1127 -1.5187
  162DOPC  H15C19534   0.644   5.464  10.184 -1.1569  0.1051  1.0855
  162DOPC   C1119535   0.852   5.404   9.920  0.5934  0.6019  0.0324
  162DOPC  H11A19536   0.815   5.446   9.824  2.0230  1.8687 -0.0035
  162DOPC  H11B19537   0.948   5.374   9.872 -0.6911 -1.5365 -1.3550
  162DOPC     P19538   0.838   5.205  10.073  0.1030  0.1642 -0.6276
  162DOPC   O1319539   0.750   5.091  10.101  0.1499  0.2417  0.6433
  162DOPC   O1419540   0.899   5.274  10.188 -0.4842 -0.6447  0.3927
  162DOPC   O1219541   0.771   5.298   9.970  0.4524 -0.0016  0.7065
  162DOPC   O1119542   0.956   5.145   9.985  0.2288 -0.1763  0.2541
  162DOPC    C119543   0.918   5.036   9.898  0.4504 -0.6534  0.7108
  162DOPC    HA19544   0.840   4.967   9.934  0.0214 -0.5333  0.0346
  162DOPC    HB19545   1.008   4.971   9.891  0.4947 -0.6625  1.3622
  162DOPC    C219546   0.887   5.074   9.753 -0.0164  0.1766  0.5529
  162DOPC    HS19547   0.811   5.154   9.756 -0.2945 -0.1153  1.6077
  162DOPC   O2119548   0.833   4.961   9.694 -0.3787  0.2740  0.6768
  162DOPC   C2119549   0.703   4.926   9.708  0.1093 -0.4467 -0.0553
  162DOPC   O2219550   0.619   4.990   9.772 -0.1139 -0.0957 -0.0928
  162DOPC   C2219551   0.664   4.794   9.633 -0.5124 -0.2003  0.0717
  162DOPC   H2R19552   0.620   4.727   9.710 -0.3278 -0.5620 -0.1284
  162DOPC   H2S19553   0.758   4.752   9.589 -0.7170  0.6428 -1.2202
  162DOPC    C319554   1.017   5.113   9.669 -0.1468 -0.1219  0.4155
  162DOPC    HX19555   1.081   5.023   9.680  0.5687  0.5870  2.6878
  162DOPC    HY19556   1.069   5.197   9.720  1.3429  0.7142 -2.3042
  162DOPC   O3119557   1.003   5.140   9.531  0.6034  0.5080 -0.1135
  162DOPC   C3119558   0.968   5.263   9.503  0.2830 -0.4641  0.1920
  162DOPC   O3219559   0.951   5.355   9.573 -0.5856  0.2166  0.1139
  162DOPC   C3219560   0.979   5.276   9.350  0.3679  0.5161  0.6171
  162DOPC   H2X19561   1.072   5.329   9.319  0.7804 -0.6905 -0.2977
  162DOPC   H2Y19562   0.983   5.175   9.305 -3.7884  0.5891 -0.3303
  162DOPC   C2319563   0.546   4.811   9.536 -0.0612 -1.1601 -0.2669
  162DOPC   H3R19564   0.465   4.871   9.583 -0.1181 -0.5014 -1.1938
  162DOPC   H3S19565   0.506   4.712   9.507 -0.4222 -1.0400 -0.1795
  162DOPC   C2419566   0.599   4.870   9.409  0.2013  0.0077 -0.1216
  162DOPC   H4R19567   0.544   4.824   9.325  0.6261 -0.5900 -0.0858
  162DOPC   H4S19568   0.704   4.833   9.399  0.1642 -0.5497  1.2571
  162DOPC   C2519569   0.593   5.028   9.394 -0.1170  0.0834  0.0748
  162DOPC   H5R19570   0.681   5.068   9.449 -0.8373 -0.0652  1.3530
  162DOPC   H5S19571   0.497   5.059   9.440  0.2115 -1.2762  1.8039
  162DOPC   C2619572   0.583   5.059   9.247  0.0914 -0.9707  1.0088
  162DOPC   H6R19573   0.577   5.170   9.241 -2.2309 -0.8012  4.1384
  162DOPC   H6S19574   0.488   5.017   9.208  0.7113 -1.1414 -0.3640
  162DOPC   C2719575   0.699   5.001   9.170 -0.5402  0.7281 -0.1014
  162DOPC   H7R19576   0.703   4.890   9.180 -0.3305  0.7258 -0.2026
  162DOPC   H7S19577   0.788   5.046   9.220 -0.9678  0.7185  0.6896
  162DOPC   C2819578   0.693   5.033   9.024 -0.5605 -0.5438  0.0145
  162DOPC   H8R19579   0.595   5.000   8.982 -0.0530 -3.5259  0.9152
  162DOPC   H8S19580   0.773   4.974   8.975 -0.7769 -0.3362 -0.5962
  162DOPC   C2919581   0.697   5.180   8.994  0.2598  0.0375 -0.4814
  162DOPC   H9R19582   0.627   5.235   9.058 -3.1221 -1.3593 -2.7021
  162DOPC  C21019583   0.782   5.245   8.919 -0.4207 -0.5976 -0.6731
  162DOPC  H10R19584   0.772   5.355   8.927  2.9884 -0.3234  2.4958
  162DOPC  C21119585   0.903   5.188   8.846  0.2446 -0.2007 -0.1534
  162DOPC  H11R19586   0.954   5.122   8.919 -0.8164 -1.3582 -0.4190
  162DOPC  H11S19587   0.969   5.274   8.822  0.1029 -0.5243 -1.8596
  162DOPC  C21219588   0.870   5.118   8.715 -0.3503  0.5554 -1.0870
  162DOPC  H12R19589   0.802   5.183   8.656 -0.8374 -0.3283 -1.5177
  162DOPC  H12S19590   0.813   5.023   8.726  3.0639 -1.3679  3.2642
  162DOPC  C21319591   0.998   5.081   8.639 -0.1125 -0.1812  0.5308
  162DOPC  H13R19592   1.058   5.007   8.697  0.1726  0.7911  1.4974
  162DOPC  H13S19593   1.064   5.170   8.643 -0.6659  0.2704 -0.1391
  162DOPC  C21419594   0.972   5.058   8.485  0.0117 -0.1357  0.1153
  162DOPC  H14R19595   0.904   4.972   8.470 -0.0362 -0.3406  1.4145
  162DOPC  H14S19596   1.070   5.035   8.437 -0.7976 -2.4154 -0.5214
  162DOPC  C21519597   0.910   5.181   8.412 -0.1293  0.4268 -0.4044
  162DOPC  H15R19598   0.968   5.271   8.443 -0.4542  1.0463 -1.5470
  162DOPC  H15S19599   0.799   5.184   8.419 -0.3226  1.1747 -2.7858
  162DOPC  C21619600   0.931   5.180   8.260 -0.1833 -0.5951 -0.4685
  162DOPC  H16R19601   0.892   5.090   8.210 -0.9536 -1.5966  1.7885
  162DOPC  H16S19602   1.041   5.185   8.243 -0.1850  0.5544 -0.2228
  162DOPC  C21719603   0.855   5.302   8.192  0.2587  0.2483  0.3917
  162DOPC  H17R19604   0.909   5.397   8.215  1.1384  0.1424 -1.1308
  162DOPC  H17S19605   0.751   5.317   8.229 -0.3813  2.3079 -1.9219
  162DOPC  C21819606   0.836   5.290   8.038  0.2067 -0.4475  0.3557
  162DOPC  H18R19607   0.931   5.270   7.983  1.2009 -0.6116  2.0618
  162DOPC  H18S19608   0.797   5.386   7.998 -2.0058 -1.1185  0.7489
  162DOPC  H18T19609   0.761   5.215   8.007  0.0052 -0.0743 -0.0735
  162DOPC   C3319610   0.858   5.348   9.294 -0.1807  0.0149 -0.5455
  162DOPC   H3X19611   0.758   5.306   9.316  0.1769 -0.6533 -0.1634
  162DOPC   H3Y19612   0.867   5.344   9.183  0.4980 -0.9773 -0.4643
  162DOPC   C3419613   0.850   5.501   9.319 -0.5195  0.5441  0.5167
  162DOPC   H4X19614   0.837   5.516   9.429 -1.5923 -0.3864  0.5326
  162DOPC   H4Y19615   0.760   5.545   9.270 -0.6396  0.7717  0.9332
  162DOPC   C3519616   0.965   5.596   9.268 -0.1129 -0.1468 -0.0096
  162DOPC   H5X19617   0.994   5.580   9.162  3.3806  0.1413  0.7906
  162DOPC   H5Y19618   1.062   5.567   9.314  0.0462 -0.8290 -0.7592
  162DOPC   C3619619   0.933   5.749   9.283  0.0365  0.1672  0.4935
  162DOPC   H6X19620   0.833   5.766   9.237  0.1742  0.3671  0.2636
  162DOPC   H6Y19621   0.912   5.757   9.392  2.8769  5.0381  0.9873
  162DOPC   C3719622   1.048   5.856   9.253  0.5425  0.6793  0.0332
  162DOPC   H7X19623   0.994   5.953   9.260 -0.7107 -0.0470  0.8942
  162DOPC   H7Y19624   1.116   5.856   9.342 -2.3168 -2.0283  2.4674
  162DOPC   C3819625   1.112   5.848   9.113  0.3030  0.4813  0.1232
  162DOPC   H8X19626   1.179   5.760   9.113  2.0766  1.7603  1.4007
  162DOPC   H8Y19627   1.183   5.934   9.105  1.3581 -0.1521  2.0800
  162DOPC   C3919628   1.016   5.835   9.005  0.0551 -0.1368  0.4290
  162DOPC   H9X19629   0.954   5.745   9.009 -0.5256  0.2128 -0.2722
  162DOPC  C31019630   1.026   5.908   8.889  0.1457  0.3680 -0.0529
  162DOPC  H10X19631   0.954   5.886   8.810 -0.6548 -0.0435  0.7728
  162DOPC  C31119632   1.131   6.013   8.852  0.3832 -0.0575 -0.4415
  162DOPC  H11X19633   1.196   6.032   8.940 -1.3536  0.5948  0.7508
  162DOPC  H11Y19634   1.085   6.112   8.835 -0.7485  0.1626  3.1190
  162DOPC  C31219635   1.225   5.993   8.730 -0.1064 -0.1545 -0.3775
  162DOPC  H12X19636   1.282   5.897   8.728  2.9237  1.5340 -1.1465
  162DOPC  H12Y19637   1.313   6.060   8.732  0.5749 -1.0141  1.5793
  162DOPC  C31319638   1.154   6.002   8.590 -0.4259  0.0359 -0.3181
  162DOPC  H13X19639   1.048   5.972   8.594 -0.9541  1.7945 -0.0619
  162DOPC  H13Y19640   1.156   6.110   8.565  2.3723  0.1588  0.0412
  162DOPC  C31419641   1.228   5.916   8.487 -0.7264  0.0661 -0.5324
  162DOPC  H14X19642   1.193   5.953   8.388 -0.1726  0.1361 -0.7010
  162DOPC  H14Y19643   1.336   5.927   8.507 -0.8205 -0.6552  0.4284
  162DOPC  C31519644   1.198   5.768   8.493  0.3267  0.4808 -0.1415
  162DOPC  H15X19645   1.089   5.748   8.485  0.4965 -0.4843 -0.2004
  162DOPC  H15Y19646   1.229   5.725   8.591 -1.4525 -2.2640 -0.6532
  162DOPC  C31619647   1.259   5.688   8.375  0.3450 -0.0691 -0.0775
  162DOPC  H16X19648   1.224   5.737   8.282 -0.0429 -0.2075 -0.0081
  162DOPC  H16Y19649   1.370   5.686   8.382  0.3393 -0.2603 -0.0203
  162DOPC  C31719650   1.200   5.538   8.382 -0.7631 -0.0876  0.3326
  162DOPC  H17X19651   1.228   5.492   8.479 -0.1662 -0.0468  0.1869
  162DOPC  H17Y19652   1.090   5.551   8.384 -0.4380  3.3016  1.7842
  162DOPC  C31819653   1.246   5.449   8.265 -0.1901 -0.0039  0.2351
  162DOPC  H18X19654   1.187   5.355   8.278  0.7698 -0.7961 -0.8468
  162DOPC  H18Y19655   1.228   5.476   8.158 -0.6644  0.9574  0.5489
  162DOPC  H18Z19656   1.356   5.437   8.277 -0.2882 -2.3642 -0.6647
  163DOPC     N19657   6.261   2.260   9.840  0.8135  0.0216  0.9121
  163DOPC   C1219658   6.252   2.276   9.690 -0.0271 -0.3081 -0.1858
  163DOPC  H12A19659   6.198   2.197   9.640 -0.9214  0.5733 -0.6411
  163DOPC  H12B19660   6.355   2.271   9.658 -0.3126  0.5832 -1.2860
  163DOPC   C1319661   6.350   2.367   9.893 -0.1085 -0.5499 -0.2889
  163DOPC  H13A19662   6.345   2.373  10.001 -1.4300 -0.5872 -0.3252
  163DOPC  H13B19663   6.454   2.352   9.871  0.2713 -3.4689  2.6576
  163DOPC  H13C19664   6.317   2.458   9.846  0.6868 -0.2362 -0.2558
  163DOPC   C1419665   6.305   2.122   9.864 -0.3094  0.3807 -0.2975
  163DOPC  H14A19666   6.318   2.091   9.966  0.2745  0.8907 -0.2123
  163DOPC  H14B19667   6.231   2.056   9.822 -0.9656  0.2252  1.0495
  163DOPC  H14C19668   6.401   2.106   9.818 -0.3784 -1.1025  0.0458
  163DOPC   C1519669   6.124   2.270   9.899 -0.2239 -0.8102  0.0150
  163DOPC  H15A19670   6.094   2.369   9.869  0.1035  0.1288  2.6156
  163DOPC  H15B19671   6.113   2.273  10.006 -2.0954 -0.9112 -0.1327
  163DOPC  H15C19672   6.052   2.195   9.869 -3.0200  1.5790  0.2732
  163DOPC   C1119673   6.176   2.393   9.627  0.1125 -0.9180  0.1738
  163DOPC  H11A19674   6.170   2.385   9.517  0.5660 -0.1760  0.0866
  163DOPC  H11B19675   6.067   2.396   9.650  0.1555  0.2785  0.2906
  163DOPC     P19676   6.362   2.572   9.572 -0.1356  0.2755  0.0782
  163DOPC   O1319677   6.469   2.466   9.588 -0.4695  0.2219 -0.3533
  163DOPC   O1419678   6.390   2.702   9.631 -0.0813 -0.0676  0.0227
  163DOPC   O1219679   6.232   2.521   9.657  0.4022  0.2475  0.2153
  163DOPC   O1119680   6.299   2.575   9.429  0.1970 -0.1693  0.1156
  163DOPC    C119681   6.197   2.686   9.406 -0.2185  0.4790 -0.3869
  163DOPC    HA19682   6.240   2.786   9.430  3.3098 -0.2354 -3.0275
  163DOPC    HB19683   6.097   2.663   9.451  0.6254 -0.5986  1.0303
  163DOPC    C219684   6.172   2.704   9.253  0.2341 -0.0366 -0.2292
  163DOPC    HS19685   6.270   2.734   9.209  0.1362  0.1955 -0.2886
  163DOPC   O2119686   6.070   2.810   9.246 -0.3018 -0.0254  0.0330
  163DOPC   C2119687   6.050   2.868   9.128 -0.3792 -0.1586  0.1017
  163DOPC   O2219688   6.129   2.876   9.039  0.0991  0.1882 -0.1852
  163DOPC   C2219689   5.904   2.924   9.118  0.8799 -1.0320 -0.9066
  163DOPC   H2R19690   5.889   2.979   9.213  1.5753 -1.5657 -0.4796
  163DOPC   H2S19691   5.827   2.845   9.126  0.2821 -0.4183 -0.4822
  163DOPC    C319692   6.111   2.578   9.183  0.1437 -0.4513  0.0020
  163DOPC    HX19693   6.003   2.582   9.208  0.4036 -0.1507  1.1320
  163DOPC    HY19694   6.166   2.495   9.233  1.5505  2.4815  3.9190
  163DOPC   O3119695   6.121   2.588   9.038  0.8190 -0.5283 -0.3330
  163DOPC   C3119696   6.242   2.562   8.995  0.2263 -0.2632 -0.3536
  163DOPC   O3219697   6.334   2.516   9.061 -0.0091  0.7473  0.0878
  163DOPC   C3219698   6.250   2.606   8.848 -0.2099 -0.0954 -0.4858
  163DOPC   H2X19699   6.176   2.689   8.837 -1.2444 -1.1491 -1.8428
  163DOPC   H2Y19700   6.347   2.656   8.826  0.6116 -1.1058  0.7356
  163DOPC   C2319701   5.863   3.009   8.990 -0.1498  0.2251 -0.3821
  163DOPC   H3R19702   5.923   3.103   8.993 -0.5456  0.6039 -2.5969
  163DOPC   H3S19703   5.755   3.027   9.006 -0.3766 -2.7322  2.1873
  163DOPC   C2419704   5.893   2.938   8.856  1.1256 -0.0789 -0.7351
  163DOPC   H4R19705   6.003   2.944   8.840  1.3498  1.6445  1.0518
  163DOPC   H4S19706   5.859   3.011   8.779 -0.7593 -0.5884 -0.4410
  163DOPC   C2519707   5.827   2.803   8.845 -0.1590  0.5868  0.0243
  163DOPC   H5R19708   5.732   2.816   8.901  0.7109  0.7996  1.4954
  163DOPC   H5S19709   5.887   2.728   8.900 -2.6666 -2.2583 -0.8120
  163DOPC   C2619710   5.819   2.750   8.696  0.0071 -0.1908 -0.5674
  163DOPC   H6R19711   5.794   2.642   8.689 -0.2560 -0.3400  1.9140
  163DOPC   H6S19712   5.914   2.775   8.644  1.3732  2.3498  2.7653
  163DOPC   C2719713   5.701   2.814   8.616 -0.2114  0.2070  0.0377
  163DOPC   H7R19714   5.674   2.920   8.639 -0.8947  0.2954 -1.0737
  163DOPC   H7S19715   5.619   2.745   8.645  1.2167 -1.8929 -0.6786
  163DOPC   C2819716   5.743   2.818   8.472  0.4982 -0.6124  1.1496
  163DOPC   H8R19717   5.793   2.725   8.435  1.8704  1.0625 -1.5232
  163DOPC   H8S19718   5.821   2.894   8.453  1.3658 -1.6233  0.5195
  163DOPC   C2919719   5.616   2.837   8.381  0.0887 -0.1738 -0.0753
  163DOPC   H9R19720   5.554   2.918   8.423 -0.5339 -0.3979 -0.5441
  163DOPC  C21019721   5.585   2.773   8.265 -0.3629 -0.1822 -0.2476
  163DOPC  H10R19722   5.498   2.803   8.205  0.5380 -2.5328 -2.9717
  163DOPC  C21119723   5.670   2.667   8.182 -0.5543 -0.0370 -0.1003
  163DOPC  H11R19724   5.735   2.604   8.247 -0.6447 -0.7373 -0.6749
  163DOPC  H11S19725   5.738   2.727   8.118 -1.1256  0.7428  0.0106
  163DOPC  C21219726   5.598   2.562   8.103  0.1555 -0.1167  0.2292
  163DOPC  H12R19727   5.513   2.608   8.049  0.4379  0.4123  0.2205
  163DOPC  H12S19728   5.564   2.480   8.170 -1.5805 -0.2947 -0.8171
  163DOPC  C21319729   5.692   2.507   7.989 -0.0999 -0.4533 -0.0588
  163DOPC  H13R19730   5.772   2.445   8.036 -0.1918 -1.6961 -1.4735
  163DOPC  H13S19731   5.727   2.604   7.948  0.3059  0.3283  2.0089
  163DOPC  C21419732   5.614   2.418   7.894  0.9625  0.4439  0.3075
  163DOPC  H14R19733   5.555   2.491   7.835  1.5025  1.0722  0.5374
  163DOPC  H14S19734   5.556   2.333   7.937  1.7804 -0.2315  0.1085
  163DOPC  C21519735   5.710   2.349   7.795  0.5177  0.3172  0.2595
  163DOPC  H15R19736   5.649   2.301   7.715  2.4599 -2.3097  0.2375
  163DOPC  H15S19737   5.767   2.269   7.846 -0.8766 -1.3137 -0.6421
  163DOPC  C21619738   5.813   2.446   7.738 -0.3205  0.3561  0.3255
  163DOPC  H16R19739   5.874   2.486   7.822  0.0143  2.0885 -0.6836
  163DOPC  H16S19740   5.772   2.536   7.687 -0.6144 -0.8547 -1.6819
  163DOPC  C21719741   5.909   2.379   7.632  1.1084 -0.3117  0.2609
  163DOPC  H17R19742   5.836   2.340   7.558  1.8884 -0.4983 -0.4162
  163DOPC  H17S19743   5.969   2.302   7.685  1.5304 -1.7176 -2.1260
  163DOPC  C21819744   6.003   2.471   7.562  0.1978 -0.2620 -0.2640
  163DOPC  H18R19745   6.053   2.542   7.632  0.0010  0.2907 -0.6781
  163DOPC  H18S19746   5.948   2.537   7.492  0.5914  0.7279  0.3298
  163DOPC  H18T19747   6.078   2.407   7.512 -0.3670 -0.7194 -0.5379
  163DOPC   C3319748   6.208   2.491   8.755  0.5830 -0.1273  0.1745
  163DOPC   H3X19749   6.101   2.464   8.768  0.5535  0.3963  1.1130
  163DOPC   H3Y19750   6.266   2.398   8.774 -0.0611 -1.0708 -2.1980
  163DOPC   C3419751   6.232   2.523   8.607  0.2436 -0.9315 -0.4921
  163DOPC   H4X19752   6.342   2.536   8.598 -0.1162  2.0358 -1.8997
  163DOPC   H4Y19753   6.191   2.623   8.581 -0.5178 -0.6722  1.5135
  163DOPC   C3519754   6.187   2.415   8.510  0.4472  0.1999 -0.7542
  163DOPC   H5X19755   6.202   2.315   8.557  0.3716  0.3880 -0.3273
  163DOPC   H5Y19756   6.250   2.432   8.420 -0.1217  2.7044 -0.7522
  163DOPC   C3619757   6.039   2.424   8.458  0.0419  0.2462  0.0934
  163DOPC   H6X19758   6.024   2.323   8.414  3.1459 -0.4819  0.4771
  163DOPC   H6Y19759   5.986   2.434   8.555  1.9811 -1.4222  1.4086
  163DOPC   C3719760   6.003   2.525   8.354  0.3563 -0.6513 -0.4257
  163DOPC   H7X19761   5.898   2.557   8.365  0.2543 -1.2444  0.5302
  163DOPC   H7Y19762   6.067   2.611   8.383 -0.2809 -0.9287  2.0504
  163DOPC   C3819763   6.033   2.476   8.210 -0.5186  0.0779 -0.8146
  163DOPC   H8X19764   5.959   2.399   8.181 -2.1158  1.0092  0.5685
  163DOPC   H8Y19765   6.133   2.428   8.216  0.5366  2.1775 -0.5896
  163DOPC   C3919766   6.028   2.588   8.115  0.0680 -0.5067  0.2281
  163DOPC   H9X19767   5.947   2.659   8.137 -1.0037 -0.6288 -2.8226
  163DOPC  C31019768   6.115   2.619   8.019  0.2871  0.3876 -0.3396
  163DOPC  H10X19769   6.099   2.706   7.953 -0.5282  1.1325  0.8081
  163DOPC  C31119770   6.235   2.534   7.975  0.7486 -0.5738 -0.6537
  163DOPC  H11X19771   6.228   2.516   7.866  1.6675  1.8570 -1.1732
  163DOPC  H11Y19772   6.247   2.434   8.022 -1.1033 -1.0595 -1.1459
  163DOPC  C31219773   6.354   2.633   7.998 -0.0723 -0.5708 -0.1223
  163DOPC  H12X19774   6.339   2.734   7.955 -0.3224 -1.3660 -1.9798
  163DOPC  H12Y19775   6.437   2.585   7.942 -0.9994  0.5456 -2.5876
  163DOPC  C31319776   6.409   2.660   8.141  0.9131 -0.5241 -0.0941
  163DOPC  H13X19777   6.336   2.723   8.197  1.8842  0.8177 -0.3030
  163DOPC  H13Y19778   6.423   2.564   8.196 -2.3998 -0.7164  0.6589
  163DOPC  C31419779   6.545   2.738   8.154 -0.3943  0.3019 -0.1488
  163DOPC  H14X19780   6.631   2.669   8.138  0.0399  0.4353  1.4664
  163DOPC  H14Y19781   6.551   2.818   8.077 -2.2788 -0.4796 -1.1756
  163DOPC  C31519782   6.551   2.798   8.293 -0.2882 -0.3424  0.2052
  163DOPC  H15X19783   6.454   2.851   8.306 -0.0673  0.6638 -1.9206
  163DOPC  H15Y19784   6.638   2.864   8.311 -0.3128 -0.0874 -0.5666
  163DOPC  C31619785   6.571   2.698   8.406 -0.4490  0.0173  0.3168
  163DOPC  H16X19786   6.481   2.636   8.427 -1.0668  1.6048  2.8376
  163DOPC  H16Y19787   6.656   2.632   8.380 -0.0100  0.7927 -0.2760
  163DOPC  C31719788   6.604   2.755   8.540 -0.4420 -0.3932  0.2321
  163DOPC  H17X19789   6.624   2.675   8.615 -0.0584  1.1064  1.7854
  163DOPC  H17Y19790   6.695   2.818   8.539 -1.6645  1.4809  1.1419
  163DOPC  C31819791   6.492   2.835   8.598  0.8611 -0.0151  0.3666
  163DOPC  H18X19792   6.505   2.940   8.567  0.2633  0.1690  0.7204
  163DOPC  H18Y19793   6.394   2.793   8.564 -0.3478  2.0861  1.0723
  163DOPC  H18Z19794   6.492   2.839   8.709 -2.0565 -0.0915  0.4477
  164DOPC     N19795   0.354   0.705  10.164 -0.5241  0.1055 -0.5711
  164DOPC   C1219796   0.252   0.658  10.062 -0.3466  0.1384 -0.6085
  164DOPC  H12A19797   0.195   0.737  10.016 -0.4611 -0.0718 -0.8346
  164DOPC  H12B19798   0.172   0.607  10.113 -1.0169  0.7194 -1.0571
  164DOPC   C1319799   0.299   0.808  10.261 -0.5660 -0.3618  0.7899
  164DOPC  H13A19800   0.373   0.839  10.334  0.2116  0.1411 -0.2011
  164DOPC  H13B19801   0.263   0.894  10.208  1.7354 -0.0303 -0.3504
  164DOPC  H13C19802   0.213   0.772  10.315  0.2717 -1.3076  1.5364
  164DOPC   C1419803   0.464   0.771  10.090 -0.8263  0.9085  0.5423
  164DOPC  H14A19804   0.442   0.873  10.062 -1.5155  1.1419  1.8224
  164DOPC  H14B19805   0.556   0.781  10.146 -0.4397 -0.3551  0.1598
  164DOPC  H14C19806   0.490   0.725   9.996 -0.2784 -1.7762  1.9152
  164DOPC   C1519807   0.416   0.600  10.252  0.3630  0.5371  0.3771
  164DOPC  H15A19808   0.506   0.641  10.294  0.5719  0.1570  0.3073
  164DOPC  H15B19809   0.433   0.512  10.190 -3.7062  0.2659 -0.6443
  164DOPC  H15C19810   0.350   0.579  10.335  0.8763  0.1118  0.6795
  164DOPC   C1119811   0.296   0.575   9.941  0.5237  0.1291  0.4096
  164DOPC  H11A19812   0.204   0.545   9.885 -1.0455  2.4924  1.5189
  164DOPC  H11B19813   0.353   0.636   9.868 -0.2656  1.1741  0.6284
  164DOPC     P19814   0.294   0.325  10.032 -0.2165  0.3580  0.2109
  164DOPC   O1319815   0.171   0.353  10.113  0.2012  0.1111 -0.2833
  164DOPC   O1419816   0.403   0.236  10.086 -0.9351  0.0504 -0.2561
  164DOPC   O1219817   0.368   0.463   9.981  0.4263  0.1745 -0.1620
  164DOPC   O1119818   0.252   0.267   9.888 -0.2764  0.0717  0.0067
  164DOPC    C119819   0.351   0.194   9.809 -0.2541 -0.5178  0.4913
  164DOPC    HA19820   0.310   0.097   9.773 -0.0099 -1.0523  1.6096
  164DOPC    HB19821   0.440   0.158   9.866  0.2284  0.4319  0.3623
  164DOPC    C219822   0.399   0.283   9.694 -0.4055  0.0708  0.0517
  164DOPC    HS19823   0.437   0.383   9.725  0.3158 -0.3832  0.6337
  164DOPC   O2119824   0.296   0.284   9.595 -0.0633 -0.2128 -0.3787
  164DOPC   C2119825   0.270   0.401   9.540  0.2377  0.2759 -0.1571
  164DOPC   O2219826   0.334   0.505   9.555 -0.5243  0.1882 -0.0296
  164DOPC   C2219827   0.146   0.381   9.452  0.1563  0.7501 -0.1647
  164DOPC   H2R19828   0.098   0.475   9.419  0.7181  0.7063 -1.1449
  164DOPC   H2S19829   0.073   0.320   9.509 -1.5629  1.5953 -1.3981
  164DOPC    C319830   0.522   0.216   9.629  0.6688  0.0812  0.1956
  164DOPC    HX19831   0.510   0.106   9.636 -0.7593  0.1724 -0.4027
  164DOPC    HY19832   0.601   0.248   9.700  0.9417  0.0800 -0.1012
  164DOPC   O3119833   0.544   0.264   9.494  0.2448 -0.2267 -0.7271
  164DOPC   C3119834   0.645   0.350   9.471  0.2547  0.2551 -0.1078
  164DOPC   O3219835   0.721   0.394   9.554  0.3674  0.4636 -0.5147
  164DOPC   C3219836   0.664   0.376   9.321  0.7659  0.3165 -0.5347
  164DOPC   H2X19837   0.595   0.310   9.265  0.3027 -0.8590  1.3353
  164DOPC   H2Y19838   0.627   0.480   9.313  1.2618  0.6181  0.7666
  164DOPC   C2319839   0.196   0.305   9.322  0.1610  0.2615 -0.1426
  164DOPC   H3R19840   0.109   0.251   9.278  0.3097  0.1865 -0.3443
  164DOPC   H3S19841   0.272   0.229   9.346  1.7723  1.1027 -2.2960
  164DOPC   C2419842   0.256   0.393   9.208  0.5821  0.6698 -0.4798
  164DOPC   H4R19843   0.340   0.455   9.248 -0.6440  0.8311  2.0467
  164DOPC   H4S19844   0.176   0.461   9.173 -0.3434  0.5941  1.3399
  164DOPC   C2519845   0.298   0.310   9.094  0.0261 -0.2084  0.9471
  164DOPC   H5R19846   0.216   0.247   9.054  1.1602 -2.1028  1.4494
  164DOPC   H5S19847   0.376   0.243   9.137  0.9313  0.3994  0.2887
  164DOPC   C2619848   0.357   0.395   8.984  0.8889  0.0834  0.1569
  164DOPC   H6R19849   0.434   0.462   9.027  0.8424  0.6608 -0.6334
  164DOPC   H6S19850   0.279   0.462   8.942  1.5614  0.1269 -1.0508
  164DOPC   C2719851   0.419   0.310   8.876  0.5295  0.2148 -0.2305
  164DOPC   H7R19852   0.343   0.244   8.830  2.2354 -0.8840 -1.5725
  164DOPC   H7S19853   0.501   0.250   8.921  1.7343  0.0294 -2.5397
  164DOPC   C2819854   0.493   0.395   8.772 -0.0572 -0.0828 -0.1453
  164DOPC   H8R19855   0.565   0.326   8.723 -0.8682 -1.3614  0.3982
  164DOPC   H8S19856   0.549   0.478   8.819  1.1861  0.9912 -3.2892
  164DOPC   C2919857   0.400   0.448   8.669  0.6684 -0.2427 -0.3522
  164DOPC   H9R19858   0.309   0.486   8.719  0.6132 -0.2394 -0.4568
  164DOPC  C21019859   0.418   0.471   8.539 -0.5102 -0.0069 -0.3620
  164DOPC  H10R19860   0.333   0.502   8.476  0.6589 -1.2504 -2.6840
  164DOPC  C21119861   0.541   0.432   8.460 -0.2865 -0.3096  0.1570
  164DOPC  H11R19862   0.610   0.363   8.513  0.5549 -0.5216 -1.1759
  164DOPC  H11S19863   0.603   0.520   8.430  1.7242 -1.5747  0.4417
  164DOPC  C21219864   0.510   0.372   8.323  0.6490 -0.6737  0.4875
  164DOPC  H12R19865   0.459   0.274   8.331 -0.2361 -0.3361 -0.7723
  164DOPC  H12S19866   0.610   0.347   8.282  0.8119 -1.7088  1.4528
  164DOPC  C21319867   0.446   0.460   8.210 -0.1552 -0.5848  0.7844
  164DOPC  H13R19868   0.492   0.561   8.204 -1.3600 -0.0982 -1.5825
  164DOPC  H13S19869   0.341   0.490   8.228  0.2763  2.1821 -0.6445
  164DOPC  C21419870   0.446   0.391   8.078 -0.6993 -0.1282 -0.3128
  164DOPC  H14R19871   0.375   0.306   8.088 -1.3750  0.5950  1.4171
  164DOPC  H14S19872   0.542   0.348   8.043 -1.0430  0.3177 -1.8636
  164DOPC  C21519873   0.421   0.493   7.967  0.1560  0.2290  0.3148
  164DOPC  H15R19874   0.510   0.559   7.966 -0.0998  0.5871  0.7459
  164DOPC  H15S19875   0.331   0.552   7.994 -0.0838 -0.8001  1.9164
  164DOPC  C21619876   0.406   0.427   7.835  0.5872  0.1597 -0.1190
  164DOPC  H16R19877   0.312   0.368   7.821  1.5193 -0.8932 -2.5576
  164DOPC  H16S19878   0.487   0.353   7.822 -0.4476 -1.0213 -0.0799
  164DOPC  C21719879   0.421   0.519   7.714  0.2098 -0.4972  0.0270
  164DOPC  H17R19880   0.504   0.592   7.727  0.8360 -0.9577 -1.2517
  164DOPC  H17S19881   0.335   0.589   7.720  2.3914  2.3682  0.2637
  164DOPC  C21819882   0.438   0.448   7.578  0.1461  0.6736  1.2274
  164DOPC  H18R19883   0.450   0.509   7.486  1.6636 -1.3138  0.0122
  164DOPC  H18S19884   0.344   0.390   7.564  1.5653 -1.8645  1.5142
  164DOPC  H18T19885   0.525   0.379   7.572 -0.6338 -0.1860 -1.7155
  164DOPC   C3319886   0.808   0.366   9.261 -0.6842 -0.3121  0.3891
  164DOPC   H3X19887   0.857   0.269   9.281 -1.9821 -1.5478 -1.9906
  164DOPC   H3Y19888   0.865   0.450   9.307  0.5041 -0.0409 -1.4493
  164DOPC   C3419889   0.823   0.393   9.111 -0.1991  0.7269 -0.0091
  164DOPC   H4X19890   0.779   0.494   9.094 -0.3260  0.6958  0.1315
  164DOPC   H4Y19891   0.768   0.316   9.052 -0.4218  0.2112  0.8562
  164DOPC   C3519892   0.967   0.389   9.064 -0.9259  0.0569 -0.1635
  164DOPC   H5X19893   1.012   0.287   9.065 -0.5483  0.1362  3.7595
  164DOPC   H5Y19894   1.025   0.456   9.131 -0.7289 -1.5551  1.3430
  164DOPC   C3619895   0.980   0.459   8.926 -0.5765  0.3490 -0.1112
  164DOPC   H6X19896   0.924   0.553   8.942 -1.6419 -0.3669  0.5022
  164DOPC   H6Y19897   1.084   0.490   8.901 -0.8269  1.8397  0.5751
  164DOPC   C3719898   0.931   0.375   8.814 -0.4168  0.1395  0.1338
  164DOPC   H7X19899   1.006   0.302   8.775  1.4155  2.4394 -0.8956
  164DOPC   H7Y19900   0.843   0.318   8.850  0.7754 -1.0085  1.3827
  164DOPC   C3819901   0.886   0.455   8.692 -0.4251  0.3219  0.5684
  164DOPC   H8X19902   0.813   0.534   8.720  0.3297  1.0707  0.4446
  164DOPC   H8Y19903   0.833   0.389   8.619  0.2924  4.3673 -4.1654
  164DOPC   C3919904   0.999   0.532   8.631 -0.4452 -0.5763 -0.3621
  164DOPC   H9X19905   1.032   0.613   8.698 -1.2905 -0.1235 -0.4874
  164DOPC  C31019906   1.063   0.513   8.515  0.7543 -0.5959 -0.0401
  164DOPC  H10X19907   1.138   0.582   8.474  2.0691 -1.6885  0.4399
  164DOPC  C31119908   1.019   0.416   8.404 -0.7208 -0.6649  0.0021
  164DOPC  H11X19909   0.966   0.332   8.455  0.9674 -0.6130  1.9926
  164DOPC  H11Y19910   1.108   0.370   8.356  1.1635  2.7615 -0.1355
  164DOPC  C31219911   0.944   0.492   8.293  0.3965 -0.0468  0.1638
  164DOPC  H12X19912   1.011   0.575   8.262  0.0539 -0.8482 -3.0547
  164DOPC  H12Y19913   0.860   0.542   8.347  1.1988  2.7604 -0.9927
  164DOPC  C31319914   0.907   0.392   8.182 -0.0868 -0.2350 -0.2015
  164DOPC  H13X19915   0.996   0.354   8.129 -0.4575 -0.7076 -0.4932
  164DOPC  H13Y19916   0.858   0.308   8.235  1.5692  0.7258  3.1812
  164DOPC  C31419917   0.812   0.454   8.076  0.6010  0.4077 -0.5872
  164DOPC  H14X19918   0.732   0.509   8.129  3.0133  2.6250  0.9932
  164DOPC  H14Y19919   0.761   0.364   8.037  0.8239 -0.2022  0.4873
  164DOPC  C31519920   0.878   0.543   7.980  0.0121 -0.7121  0.3039
  164DOPC  H15X19921   0.979   0.512   7.947  0.1600  0.7996 -0.7956
  164DOPC  H15Y19922   0.870   0.650   8.009 -0.8506 -0.8640  0.6436
  164DOPC  C31619923   0.799   0.533   7.844  0.0729 -0.2130  0.0521
  164DOPC  H16X19924   0.765   0.428   7.837 -1.6477  0.2354  1.2326
  164DOPC  H16Y19925   0.711   0.600   7.847 -0.1488 -0.3608 -2.1015
  164DOPC  C31719926   0.881   0.587   7.723 -0.2728 -0.0330  0.1115
  164DOPC  H17X19927   0.909   0.691   7.750  0.3968 -0.4259  0.9780
  164DOPC  H17Y19928   0.971   0.528   7.694 -0.9540 -0.3238 -1.5649
  164DOPC  C31819929   0.800   0.592   7.591 -0.3399 -0.3975  0.2417
  164DOPC  H18X19930   0.707   0.652   7.600  1.3225  2.1264  1.7283
  164DOPC  H18Y19931   0.854   0.628   7.501 -0.4219 -1.4072 -0.2304
  164DOPC  H18Z19932   0.768   0.488   7.566 -0.5601 -0.4361  0.6760
  165DOPC     N19933   4.809   1.065   9.999  0.4239 -0.7094 -0.3279
  165DOPC   C1219934   4.902   1.166   9.945 -0.6501 -0.0940 -0.0420
  165DOPC  H12A19935   5.000   1.164   9.990  0.7760  1.0755 -2.8319
  165DOPC  H12B19936   4.861   1.263   9.968  0.5702  0.3710  0.2409
  165DOPC   C1319937   4.864   0.924   9.982  0.1509 -0.5833 -0.1402
  165DOPC  H13A19938   4.878   0.902   9.877 -0.0470 -0.2628 -0.2370
  165DOPC  H13B19939   4.961   0.915  10.030 -0.2273  0.0953  0.7761
  165DOPC  H13C19940   4.806   0.837  10.010  2.6466 -2.0239  0.8685
  165DOPC   C1419941   4.682   1.078   9.925  0.0497 -0.3952  0.1711
  165DOPC  H14A19942   4.616   1.002   9.965 -0.9773  0.0033 -0.7022
  165DOPC  H14B19943   4.659   1.182   9.941  2.2818  0.3013 -0.7356
  165DOPC  H14C19944   4.689   1.064   9.818 -1.0742 -2.3154  0.2972
  165DOPC   C1519945   4.787   1.091  10.142 -0.0895  0.0589  0.4519
  165DOPC  H15A19946   4.880   1.089  10.196  0.6275  0.3235 -0.7375
  165DOPC  H15B19947   4.714   1.024  10.185 -0.2999  0.4973  0.7839
  165DOPC  H15C19948   4.739   1.185  10.165 -2.0228 -0.7284 -0.1025
  165DOPC   C1119949   4.930   1.171   9.790  0.2504 -0.3820  0.4693
  165DOPC  H11A19950   4.835   1.199   9.741  0.3849  0.3219  0.6110
  165DOPC  H11B19951   4.991   1.257   9.755 -1.4210  0.9305  0.7223
  165DOPC     P19952   5.115   0.993   9.753  0.5560 -0.1112  0.1942
  165DOPC   O1319953   5.106   0.848   9.773 -0.0538  0.4521  0.8618
  165DOPC   O1419954   5.183   1.071   9.862  0.6267  0.4061  0.2144
  165DOPC   O1219955   4.969   1.047   9.731  0.3345  0.3834 -0.4190
  165DOPC   O1119956   5.179   1.027   9.611  0.5212  0.2798  0.1864
  165DOPC    C119957   5.200   1.167   9.569 -0.4617  0.1136 -0.3076
  165DOPC    HA19958   5.230   1.231   9.654 -3.0130 -0.1663  0.9030
  165DOPC    HB19959   5.103   1.207   9.531 -1.2587 -0.7023  0.8106
  165DOPC    C219960   5.313   1.188   9.465  0.7125 -0.1676 -0.4236
  165DOPC    HS19961   5.311   1.296   9.441  1.3847 -0.1492 -0.4078
  165DOPC   O2119962   5.279   1.116   9.343 -0.3503  0.5020 -0.0698
  165DOPC   C2119963   5.174   1.158   9.278  0.1812 -0.5259 -0.3407
  165DOPC   O2219964   5.120   1.265   9.295 -0.7100  0.7476 -0.1322
  165DOPC   C2219965   5.111   1.048   9.188 -0.0672 -0.1398 -0.1731
  165DOPC   H2R19966   5.006   1.043   9.224  0.6705  2.0387  2.5627
  165DOPC   H2S19967   5.163   0.953   9.214 -1.5311 -0.9359 -0.0238
  165DOPC    C319968   5.456   1.152   9.516  0.2712 -0.1803 -0.1993
  165DOPC    HX19969   5.439   1.048   9.551 -0.9951  0.0487 -0.0861
  165DOPC    HY19970   5.483   1.211   9.607 -0.0651  0.1480 -0.3081
  165DOPC   O3119971   5.558   1.151   9.418 -0.5681  0.2966  0.0957
  165DOPC   C3119972   5.582   1.270   9.363 -0.0677  0.4384 -0.3185
  165DOPC   O3219973   5.539   1.379   9.395 -0.0336  0.1312 -0.4938
  165DOPC   C3219974   5.674   1.235   9.237  0.4662  0.6336 -0.2878
  165DOPC   H2X19975   5.770   1.241   9.293  0.8846  0.9471 -1.0290
  165DOPC   H2Y19976   5.665   1.128   9.209 -0.2846  0.8220 -0.7779
  165DOPC   C2319977   5.122   1.090   9.037  0.5936 -0.0801  0.3779
  165DOPC   H3R19978   5.226   1.118   9.008  0.6527  0.3768  1.0191
  165DOPC   H3S19979   5.060   1.180   9.015 -1.5330 -1.8532 -1.3231
  165DOPC   C2419980   5.084   0.971   8.950 -0.4779  0.1379 -0.1368
  165DOPC   H4R19981   4.981   0.931   8.965 -0.6908 -0.4824 -2.7265
  165DOPC   H4S19982   5.150   0.886   8.974 -1.4717  0.0025  2.3660
  165DOPC   C2519983   5.094   1.006   8.799  0.1031 -0.3255 -0.0752
  165DOPC   H5R19984   5.186   1.064   8.780 -0.1467 -0.2363 -1.0408
  165DOPC   H5S19985   5.008   1.075   8.782  0.0883 -0.4496 -0.5044
  165DOPC   C2619986   5.090   0.894   8.701  0.3075  0.2678 -0.5794
  165DOPC   H6R19987   4.999   0.834   8.720  0.8717 -0.5945 -0.5336
  165DOPC   H6S19988   5.166   0.816   8.724 -0.8345 -0.9244 -0.7254
  165DOPC   C2719989   5.124   0.931   8.556 -0.4456 -0.9780  0.9628
  165DOPC   H7R19990   5.231   0.960   8.547  0.3761 -4.0597 -0.2001
  165DOPC   H7S19991   5.057   1.012   8.520  0.5130 -0.4888  0.2158
  165DOPC   C2819992   5.116   0.812   8.457 -0.2599  0.0158  0.3148
  165DOPC   H8R19993   5.149   0.722   8.513 -1.2397  0.8665  2.3703
  165DOPC   H8S19994   5.188   0.828   8.374  0.2673  2.2758  1.1342
  165DOPC   C2919995   4.973   0.773   8.421 -0.2776  0.0583  0.2103
  165DOPC   H9R19996   4.915   0.727   8.502  0.4405 -1.1999  0.0561
  165DOPC  C21019997   4.921   0.783   8.294 -0.1149 -0.0211 -0.7113
  165DOPC  H10R19998   4.819   0.748   8.271  0.2115 -0.0170 -2.2555
  165DOPC  C21119999   4.995   0.833   8.172  0.3736  0.9946 -0.3051
  165DOPC  H11R20000   5.105   0.816   8.164  0.1106 -0.9622 -0.2257
  165DOPC  H11S20001   4.979   0.943   8.167  1.1312  1.2590  1.8756
  165DOPC  C21220002   4.940   0.764   8.049  0.0287  0.2600  0.6297
  165DOPC  H12R20003   4.834   0.792   8.030 -0.0841  2.7837  3.9909
  165DOPC  H12S20004   4.928   0.655   8.065 -1.4212  0.4815  1.2343
  165DOPC  C21320005   5.023   0.792   7.924 -0.1486  0.3319  0.8182
  165DOPC  H13R20006   4.987   0.749   7.828  0.7442  2.5390 -0.6114
  165DOPC  H13S20007   5.126   0.754   7.942  0.9056  1.1196 -2.6690
  165DOPC  C21420008   5.039   0.945   7.895 -0.0446 -0.0863  0.6323
  165DOPC  H14R20009   5.085   1.004   7.977  2.2684 -1.8250  0.7254
  165DOPC  H14S20010   4.942   0.984   7.858 -0.1606  0.7976  1.8115
  165DOPC  C21520011   5.130   0.966   7.776 -0.0636  0.6681  0.4076
  165DOPC  H15R20012   5.107   0.908   7.683 -2.3788 -2.0980  2.5153
  165DOPC  H15S20013   5.231   0.933   7.809 -1.4118 -3.3757  1.1217
  165DOPC  C21620014   5.152   1.121   7.751 -0.5166  1.3752  0.2107
  165DOPC  H16R20015   5.173   1.173   7.847 -1.7747  1.2437  0.5770
  165DOPC  H16S20016   5.056   1.167   7.719 -0.5112  0.5335 -1.1148
  165DOPC  C21720017   5.267   1.139   7.645  0.2272  0.0205  0.3069
  165DOPC  H17R20018   5.236   1.107   7.543 -0.1451 -1.6669  0.9240
  165DOPC  H17S20019   5.347   1.069   7.675 -0.6104  0.0014  2.6830
  165DOPC  C21820020   5.301   1.287   7.638 -0.1298  0.4584 -0.3044
  165DOPC  H18R20021   5.219   1.339   7.585 -0.7098  0.3572  0.4739
  165DOPC  H18S20022   5.381   1.303   7.563  0.5944  0.3613  0.4351
  165DOPC  H18T20023   5.324   1.325   7.740  1.4065  0.7539 -0.7458
  165DOPC   C3320024   5.648   1.327   9.116 -0.0404 -0.8905  0.8301
  165DOPC   H3X20025   5.637   1.428   9.162 -0.1708 -1.0722  1.2059
  165DOPC   H3Y20026   5.548   1.307   9.073  0.7725  1.7588 -2.7713
  165DOPC   C3420027   5.753   1.346   9.012 -0.3668 -0.0797 -0.6029
  165DOPC   H4X20028   5.758   1.251   8.955 -3.1404 -1.5952  1.4188
  165DOPC   H4Y20029   5.843   1.338   9.077 -1.0214  1.8149  0.6179
  165DOPC   C3520030   5.748   1.472   8.936  0.1364  0.4368  0.3884
  165DOPC   H5X20031   5.772   1.559   9.001  3.2053  1.5829 -2.0339
  165DOPC   H5Y20032   5.650   1.463   8.886  0.7167 -0.3843 -0.6406
  165DOPC   C3620033   5.859   1.475   8.828  0.4573 -0.1167 -0.4031
  165DOPC   H6X20034   5.855   1.572   8.774  1.7434  0.9169  1.3113
  165DOPC   H6Y20035   5.960   1.464   8.872  0.0761 -3.6848 -0.1361
  165DOPC   C3720036   5.865   1.368   8.712  0.4731  0.0311 -0.2604
  165DOPC   H7X20037   5.787   1.379   8.633  0.9079  2.8982 -0.3854
  165DOPC   H7Y20038   5.856   1.266   8.755 -0.7453  0.6551  1.0142
  165DOPC   C3820039   5.996   1.382   8.633  0.4329  0.4531 -0.1437
  165DOPC   H8X20040   6.019   1.288   8.578  0.0986 -0.7935  1.7529
  165DOPC   H8Y20041   6.076   1.392   8.710 -0.6059 -1.3454  1.2470
  165DOPC   C3920042   6.004   1.498   8.539 -0.2036  0.7144 -0.1954
  165DOPC   H9X20043   5.909   1.542   8.506  0.4246  0.5650 -2.3437
  165DOPC  C31020044   6.117   1.531   8.478 -0.9158  0.4226 -0.1047
  165DOPC  H10X20045   6.119   1.617   8.410 -1.9401  0.5811  0.0417
  165DOPC  C31120046   6.254   1.477   8.499 -0.8109  0.4009 -0.2143
  165DOPC  H11X20047   6.303   1.432   8.410 -1.2095 -1.0790  0.2744
  165DOPC  H11Y20048   6.252   1.394   8.573 -1.9937 -1.7418 -2.5056
  165DOPC  C31220049   6.355   1.590   8.542 -0.7578  0.4456 -0.3125
  165DOPC  H12X20050   6.342   1.680   8.478  0.7278  1.2639  0.4814
  165DOPC  H12Y20051   6.462   1.560   8.548 -0.2639  2.3262  1.6124
  165DOPC  C31320052   6.329   1.633   8.688 -0.6106 -0.5997  0.2563
  165DOPC  H13X20053   6.393   1.720   8.714 -0.4686 -1.1633  1.9372
  165DOPC  H13Y20054   6.226   1.673   8.697 -0.1769  0.9941 -1.3071
  165DOPC  C31420055   6.360   1.520   8.791 -0.0762  0.0901  0.0965
  165DOPC  H14X20056   6.283   1.441   8.774 -0.2221  0.3402 -0.4329
  165DOPC  H14Y20057   6.459   1.471   8.780  1.7712  3.0590  2.0759
  165DOPC  C31520058   6.354   1.575   8.939 -0.1621 -0.1335  0.9076
  165DOPC  H15X20059   6.423   1.661   8.950  2.1433 -1.9016  1.0088
  165DOPC  H15Y20060   6.397   1.499   9.007  1.6460 -0.5700 -0.6398
  165DOPC  C31620061   6.215   1.590   8.996 -0.9229 -0.2992  0.4435
  165DOPC  H16X20062   6.153   1.634   8.915 -1.6232  1.3514  1.8207
  165DOPC  H16Y20063   6.185   1.486   9.023  1.0070 -0.8075  0.7704
  165DOPC  C31720064   6.202   1.688   9.117  0.5065  0.0511  0.3572
  165DOPC  H17X20065   6.264   1.659   9.204 -1.3014  0.6959  1.9208
  165DOPC  H17Y20066   6.224   1.792   9.086  0.1137  0.1383  0.3628
  165DOPC  C31820067   6.059   1.677   9.174 -0.3088  0.5580  0.3044
  165DOPC  H18X20068   6.053   1.729   9.272 -0.0581  1.2887 -0.0556
  165DOPC  H18Y20069   5.985   1.726   9.108  0.5918  2.4171  0.5971
  165DOPC  H18Z20070   6.038   1.568   9.176  4.1751 -0.5230  0.1708
  166DOPC     N20071   6.810   2.782   9.480 -0.3651  0.4399 -0.6463
  166DOPC   C1220072   6.950   2.797   9.549  0.5814  0.6211 -0.1572
  166DOPC  H12A20073   6.933   2.838   9.647 -1.9503  0.7341 -0.5765
  166DOPC  H12B20074   7.007   2.875   9.502  0.7272  0.5707 -0.0627
  166DOPC   C1320075   6.724   2.693   9.563 -0.3026  0.2942  0.1404
  166DOPC  H13A20076   6.784   2.604   9.571  2.0644  1.8777  1.1118
  166DOPC  H13B20077   6.713   2.728   9.664  0.0930 -0.3815  0.4236
  166DOPC  H13C20078   6.635   2.656   9.515 -0.1016  0.9213 -0.7445
  166DOPC   C1420079   6.834   2.723   9.347  1.6148 -0.2456 -0.7723
  166DOPC  H14A20080   6.757   2.753   9.278  0.0520 -3.1090 -0.4297
  166DOPC  H14B20081   6.929   2.757   9.306  1.1232  1.8388 -0.3106
  166DOPC  H14C20082   6.839   2.616   9.361 -0.6945 -0.1033  2.0073
  166DOPC   C1520083   6.743   2.913   9.470 -0.2036  0.0494  0.0570
  166DOPC  H15A20084   6.646   2.904   9.424 -0.2807 -0.5300  0.3211
  166DOPC  H15B20085   6.798   2.988   9.416 -0.8347  1.0054  0.7066
  166DOPC  H15C20086   6.704   2.947   9.565 -1.8006 -1.4353 -0.0254
  166DOPC   C1120087   7.035   2.664   9.544  0.1277  0.5497 -0.1247
  166DOPC  H11A20088   7.105   2.668   9.630 -0.0580 -2.4177  0.2570
  166DOPC  H11B20089   6.977   2.572   9.564 -0.2094  0.8313  0.2009
  166DOPC     P20090   7.181   2.515   9.387 -0.2257  0.1089 -0.1453
  166DOPC   O1320091   7.232   2.446   9.510 -0.6158  0.2373 -0.3850
  166DOPC   O1420092   7.273   2.537   9.277 -0.2797 -0.2321 -0.2168
  166DOPC   O1220093   7.111   2.654   9.425 -0.8014 -0.2855  0.0282
  166DOPC   O1120094   7.063   2.434   9.334  0.0860 -0.3434 -0.1970
  166DOPC    C120095   7.004   2.319   9.378  0.3320 -0.1570  0.1922
  166DOPC    HA20096   6.935   2.342   9.462  0.6254  1.2655  0.0629
  166DOPC    HB20097   7.075   2.240   9.412  0.4365  0.4047  1.3151
  166DOPC    C220098   6.923   2.250   9.253  0.6981 -0.5719 -1.2533
  166DOPC    HS20099   7.017   2.221   9.201  2.0072  0.9538  0.1118
  166DOPC   O2120100   6.840   2.352   9.192  0.5182  0.6927  0.7624
  166DOPC   C2120101   6.900   2.410   9.093 -0.1053 -0.6340 -0.3479
  166DOPC   O2220102   7.008   2.373   9.049 -0.2895  0.3606 -0.0046
  166DOPC   C2220103   6.826   2.527   9.039 -0.3890 -0.2384 -0.5280
  166DOPC   H2R20104   6.892   2.614   9.057 -0.3971 -0.4343  0.5021
  166DOPC   H2S20105   6.739   2.542   9.107 -0.1075  0.3924 -0.3027
  166DOPC    C320106   6.833   2.133   9.286 -0.4015 -0.2227  0.3499
  166DOPC    HX20107   6.768   2.164   9.371  1.2888  0.9192  1.2985
  166DOPC    HY20108   6.904   2.057   9.326  1.3853  0.7779 -0.7936
  166DOPC   O3120109   6.777   2.094   9.162  0.6018  0.5297 -0.9610
  166DOPC   C3120110   6.645   2.108   9.149 -0.1385  0.2940 -0.7079
  166DOPC   O3220111   6.571   2.156   9.236  0.1244 -0.0699 -0.2063
  166DOPC   C3220112   6.591   2.059   9.014  0.2630  0.1938 -0.3457
  166DOPC   H2X20113   6.480   2.071   9.020 -0.2140 -1.7179 -3.3489
  166DOPC   H2Y20114   6.646   2.118   8.937  2.8580 -0.7971  0.6696
  166DOPC   C2320115   6.765   2.515   8.902  0.7372  1.2472 -0.0430
  166DOPC   H3R20116   6.848   2.487   8.834  0.7178 -0.6144  0.6604
  166DOPC   H3S20117   6.714   2.605   8.861 -2.2916 -0.2147  0.2697
  166DOPC   C2420118   6.670   2.389   8.891 -0.6453 -0.2889 -0.2408
  166DOPC   H4R20119   6.592   2.372   8.968  0.5398  0.9360  1.3041
  166DOPC   H4S20120   6.736   2.300   8.898  0.2122 -0.2878 -4.7276
  166DOPC   C2520121   6.608   2.389   8.749  0.1298  0.0826 -0.7877
  166DOPC   H5R20122   6.693   2.391   8.677  1.5502  0.0148  0.8402
  166DOPC   H5S20123   6.551   2.482   8.724  0.0522 -0.6377 -3.7081
  166DOPC   C2620124   6.526   2.260   8.712  0.3933 -0.1880 -0.0032
  166DOPC   H6R20125   6.442   2.254   8.784 -0.1107  0.4812 -0.5129
  166DOPC   H6S20126   6.592   2.174   8.736  1.8553  0.2778 -2.0057
  166DOPC   C2720127   6.475   2.244   8.569 -0.1517 -0.4675  0.3472
  166DOPC   H7R20128   6.431   2.343   8.542  1.7288  0.5889  0.9582
  166DOPC   H7S20129   6.387   2.176   8.578  0.1790 -0.9737 -0.1842
  166DOPC   C2820130   6.570   2.198   8.451 -0.0512 -0.7222  0.3427
  166DOPC   H8R20131   6.497   2.153   8.380  0.5807 -2.9537  1.0179
  166DOPC   H8S20132   6.640   2.125   8.496  0.3810 -0.1235  0.6410
  166DOPC   C2920133   6.641   2.314   8.392  0.3520 -0.3916 -0.3568
  166DOPC   H9R20134   6.647   2.402   8.458  0.8690 -1.2788  0.7981
  166DOPC  C21020135   6.682   2.321   8.260 -0.7252 -0.2624  0.0228
  166DOPC  H10R20136   6.706   2.419   8.218  0.4385 -0.8694 -0.7861
  166DOPC  C21120137   6.673   2.206   8.166  0.1889  0.7986 -0.2749
  166DOPC  H11R20138   6.582   2.142   8.176  1.9483 -1.5331  2.1541
  166DOPC  H11S20139   6.750   2.132   8.198 -0.3939  0.7674  1.1391
  166DOPC  C21220140   6.702   2.242   8.018 -0.4464 -0.4041 -0.1664
  166DOPC  H12R20141   6.609   2.279   7.969 -1.2194 -0.5418  1.1640
  166DOPC  H12S20142   6.731   2.152   7.959  0.9583  0.0154 -0.1590
  166DOPC  C21320143   6.799   2.361   7.992  0.6185 -0.2490  0.8808
  166DOPC  H13R20144   6.896   2.340   8.041  0.9538 -0.6956  0.0337
  166DOPC  H13S20145   6.759   2.460   8.021 -0.1230 -0.1723 -0.3592
  166DOPC  C21420146   6.814   2.383   7.834  0.7761  0.2570 -0.5677
  166DOPC  H14R20147   6.717   2.396   7.781  0.1670 -0.5211  0.3077
  166DOPC  H14S20148   6.864   2.300   7.779 -0.5070 -0.0557 -1.2938
  166DOPC  C21520149   6.898   2.511   7.806 -0.6093 -0.0831  0.0187
  166DOPC  H15R20150   7.000   2.494   7.847  0.0663  2.0980 -0.6200
  166DOPC  H15S20151   6.860   2.589   7.875 -0.5500 -0.2319  0.2214
  166DOPC  C21620152   6.902   2.557   7.662 -0.1378  0.9922  0.0441
  166DOPC  H16R20153   6.932   2.663   7.655 -0.9584  1.1845 -0.6909
  166DOPC  H16S20154   6.800   2.538   7.623  0.3240 -0.0175 -0.7366
  166DOPC  C21720155   6.994   2.472   7.571  0.2024 -0.2003  0.7241
  166DOPC  H17R20156   6.970   2.364   7.584  0.1711  0.0864  3.4540
  166DOPC  H17S20157   7.099   2.479   7.606  0.3412  0.1253  0.2595
  166DOPC  C21820158   6.975   2.518   7.425 -0.0176 -0.2178  0.3361
  166DOPC  H18R20159   7.031   2.454   7.353  1.3314  0.4026  0.7992
  166DOPC  H18S20160   7.026   2.616   7.426 -0.7355  0.1594  0.3784
  166DOPC  H18T20161   6.873   2.536   7.384  0.4016  3.3580  0.5655
  166DOPC   C3320162   6.617   1.911   8.988 -0.1677  0.1442 -0.2435
  166DOPC   H3X20163   6.552   1.850   9.054 -0.3163 -1.8412 -2.1174
  166DOPC   H3Y20164   6.726   1.889   9.001  0.0206 -1.9576 -3.8607
  166DOPC   C3420165   6.592   1.862   8.846 -0.0058  0.1748 -0.0070
  166DOPC   H4X20166   6.508   1.915   8.797  1.0730  0.7400 -1.3109
  166DOPC   H4Y20167   6.571   1.753   8.848 -1.3123  0.3621  3.3780
  166DOPC   C3520168   6.703   1.870   8.742  0.3369  0.0915 -0.1787
  166DOPC   H5X20169   6.793   1.809   8.763 -0.4714 -1.9409 -2.1418
  166DOPC   H5Y20170   6.748   1.971   8.730  0.1913  0.2151  0.2801
  166DOPC   C3620171   6.644   1.827   8.607  0.0681  0.1472 -0.0509
  166DOPC   H6X20172   6.614   1.720   8.611 -0.7075  0.3296 -0.6453
  166DOPC   H6Y20173   6.553   1.886   8.580  0.4514  0.9626  0.3940
  166DOPC   C3720174   6.743   1.843   8.494  0.0598 -0.1392 -0.2402
  166DOPC   H7X20175   6.755   1.953   8.479  0.9337 -0.5851 -3.5035
  166DOPC   H7Y20176   6.840   1.800   8.528 -1.5230 -2.7959  1.2565
  166DOPC   C3820177   6.704   1.787   8.355  0.0874  0.1371 -0.0975
  166DOPC   H8X20178   6.707   1.677   8.368 -2.4016  0.1741  1.2768
  166DOPC   H8Y20179   6.790   1.809   8.287  0.6694 -1.4535  0.0996
  166DOPC   C3920180   6.577   1.825   8.291 -0.0435  0.4086 -0.4967
  166DOPC   H9X20181   6.502   1.853   8.367  0.1165 -0.3225 -0.0564
  166DOPC  C31020182   6.545   1.810   8.162 -0.5278  1.2483  0.2632
  166DOPC  H10X20183   6.442   1.832   8.131 -1.3099 -2.6795 -0.5194
  166DOPC  C31120184   6.627   1.750   8.049 -0.2938 -0.3451 -0.0520
  166DOPC  H11X20185   6.568   1.678   7.988 -1.1856  0.0512  0.3192
  166DOPC  H11Y20186   6.713   1.699   8.098 -0.2615 -0.3529 -0.1170
  166DOPC  C31220187   6.674   1.849   7.936  1.1383 -0.7759 -1.0288
  166DOPC  H12X20188   6.752   1.917   7.978  1.8318 -1.9521 -0.3433
  166DOPC  H12Y20189   6.590   1.913   7.903  0.6040  0.5749  2.4236
  166DOPC  C31320190   6.729   1.778   7.817 -0.0852 -0.3358  0.5467
  166DOPC  H13X20191   6.813   1.715   7.853  1.2424  0.0098 -1.7376
  166DOPC  H13Y20192   6.663   1.699   7.774  0.8568 -1.3480  0.9025
  166DOPC  C31420193   6.773   1.874   7.701  0.1108  0.1255  0.1938
  166DOPC  H14X20194   6.681   1.920   7.658  1.6654  1.8750 -1.4614
  166DOPC  H14Y20195   6.849   1.941   7.747  1.2874 -0.3468 -0.9979
  166DOPC  C31520196   6.849   1.803   7.586  0.0665  0.0604  0.0427
  166DOPC  H15X20197   6.848   1.864   7.494  0.8732  0.1862  0.1094
  166DOPC  H15Y20198   6.789   1.711   7.569  2.0787 -1.2196 -0.4102
  166DOPC  C31620199   6.994   1.762   7.628  0.0258 -0.4025  0.1219
  166DOPC  H16X20200   7.053   1.853   7.651 -1.7514  0.9902 -0.6271
  166DOPC  H16Y20201   6.992   1.690   7.713 -1.2542  0.5695  0.9538
  166DOPC  C31720202   7.074   1.700   7.508 -0.4225  0.4569 -0.0385
  166DOPC  H17X20203   7.063   1.764   7.418  4.3196  1.3681 -0.2298
  166DOPC  H17Y20204   7.178   1.696   7.545 -1.0463 -3.0900  1.7984
  166DOPC  C31820205   7.043   1.551   7.482  0.8150 -0.4220  1.2882
  166DOPC  H18X20206   7.066   1.522   7.377 -1.7454 -2.4824  1.1920
  166DOPC  H18Y20207   7.096   1.476   7.545  0.5437 -2.4611 -0.7866
  166DOPC  H18Z20208   6.933   1.539   7.489  0.6699  0.6014  0.8820
  167DOPC     N20209   5.834   0.990  10.025 -0.5307  0.2924  0.0916
  167DOPC   C1220210   5.954   1.013   9.927  0.3740  0.1003 -0.2911
  167DOPC  H12A20211   5.993   1.110   9.957 -1.2806 -0.0611  2.8410
  167DOPC  H12B20212   5.912   1.019   9.828 -0.6296 -0.4974  0.0777
  167DOPC   C1320213   5.743   0.881   9.967 -0.1577 -0.8904  0.2453
  167DOPC  H13A20214   5.746   0.872   9.860  0.3384  0.9798  0.0751
  167DOPC  H13B20215   5.773   0.782  10.000 -1.1769 -1.6219 -0.9165
  167DOPC  H13C20216   5.643   0.901  10.002 -0.6857  1.5230 -2.3671
  167DOPC   C1420217   5.754   1.116  10.037 -0.1143 -0.3255 -0.2546
  167DOPC  H14A20218   5.810   1.207  10.055 -1.4721  0.1066  2.0518
  167DOPC  H14B20219   5.717   1.135   9.937 -1.2895  1.6071  0.5079
  167DOPC  H14C20220   5.679   1.100  10.112  0.6944 -0.5950  0.5130
  167DOPC   C1520221   5.878   0.942  10.160  0.4988  0.2587 -0.4490
  167DOPC  H15A20222   5.922   1.024  10.215  0.6009 -0.2990  0.3068
  167DOPC  H15B20223   5.964   0.879  10.141  0.5825  0.7714 -1.8798
  167DOPC  H15C20224   5.803   0.899  10.224  0.4950 -0.3365 -0.8432
  167DOPC   C1120225   6.071   0.909   9.924  0.1222  0.1170 -0.1382
  167DOPC  H11A20226   6.159   0.952   9.871 -0.8095  1.9326 -0.2959
  167DOPC  H11B20227   6.111   0.888  10.025  2.0715  0.8094 -0.7275
  167DOPC     P20228   6.038   0.748   9.718 -0.1492 -0.0039 -0.0230
  167DOPC   O1320229   5.942   0.645   9.698  0.3069  0.5543 -0.0932
  167DOPC   O1420230   6.173   0.726   9.673 -0.5226  0.2068 -0.3000
  167DOPC   O1220231   6.038   0.783   9.866 -0.3332 -0.3699  0.1707
  167DOPC   O1120232   5.995   0.884   9.654  0.1173  0.3374 -0.4194
  167DOPC    C120233   6.019   0.910   9.510  0.1210 -0.0884 -0.2660
  167DOPC    HA20234   6.119   0.879   9.472  0.7084  1.5749 -0.1556
  167DOPC    HB20235   6.020   1.021   9.499  2.0748 -0.1989 -1.6420
  167DOPC    C220236   5.903   0.845   9.423 -0.2725  0.1856 -0.1188
  167DOPC    HS20237   5.892   0.745   9.470 -0.8584  0.4347  0.2881
  167DOPC   O2120238   5.950   0.847   9.289 -0.0039  0.0695 -0.0966
  167DOPC   C2120239   5.901   0.761   9.197 -0.1404  0.0988 -0.2934
  167DOPC   O2220240   5.836   0.661   9.219 -0.0465  0.1959 -0.7325
  167DOPC   C2220241   5.940   0.810   9.057 -0.1468  0.4644  0.2263
  167DOPC   H2R20242   6.051   0.808   9.053 -0.1566 -2.2831 -0.8159
  167DOPC   H2S20243   5.897   0.912   9.043 -0.2766  0.1041 -2.6575
  167DOPC    C320244   5.769   0.928   9.437 -0.1364 -0.4532  0.2215
  167DOPC    HX20245   5.797   1.026   9.393 -1.6849 -1.9775 -4.7963
  167DOPC    HY20246   5.739   0.937   9.544  2.1587  3.8810  0.7082
  167DOPC   O3120247   5.656   0.890   9.354  0.3795 -0.3554  0.0533
  167DOPC   C3120248   5.597   0.785   9.396  0.0920  0.5254  0.4770
  167DOPC   O3220249   5.610   0.729   9.502  0.0365  0.3202 -0.5459
  167DOPC   C3220250   5.498   0.736   9.282  0.1742 -0.5196  0.0021
  167DOPC   H2X20251   5.548   0.658   9.221 -1.5906 -1.3737 -0.4349
  167DOPC   H2Y20252   5.413   0.695   9.341 -0.9467  0.2244 -1.0346
  167DOPC   C2320253   5.909   0.716   8.945  0.1020 -0.4411  0.1234
  167DOPC   H3R20254   5.800   0.693   8.935 -0.6398  2.5119  0.5125
  167DOPC   H3S20255   5.957   0.620   8.975  3.1288  0.2031 -2.1849
  167DOPC   C2420256   5.977   0.742   8.810  0.8455 -0.3824 -0.0994
  167DOPC   H4R20257   6.014   0.655   8.751 -0.5880 -1.0990  0.0256
  167DOPC   H4S20258   6.065   0.804   8.838  0.2854  1.2677 -1.8459
  167DOPC   C2520259   5.889   0.836   8.717 -0.0639  0.6155 -0.3822
  167DOPC   H5R20260   5.862   0.929   8.771  1.3732 -0.1588  1.7805
  167DOPC   H5S20261   5.791   0.793   8.687  0.5778 -0.4961 -0.9611
  167DOPC   C2620262   5.982   0.876   8.599  0.3806  0.0193 -0.7325
  167DOPC   H6R20263   5.992   0.780   8.543  1.0375 -1.5940  1.9621
  167DOPC   H6S20264   6.077   0.908   8.645  1.3844 -3.4220 -0.0838
  167DOPC   C2720265   5.931   1.000   8.520 -0.1453  0.2062 -0.2422
  167DOPC   H7R20266   6.031   1.036   8.485  0.2020 -0.5461 -0.0296
  167DOPC   H7S20267   5.890   1.072   8.594  2.1628 -0.7097  2.0702
  167DOPC   C2820268   5.860   0.970   8.386 -1.0203 -0.1365 -0.5914
  167DOPC   H8R20269   5.774   0.900   8.395 -1.0572 -0.1175 -0.7932
  167DOPC   H8S20270   5.929   0.912   8.321 -1.5442 -0.8035 -0.5690
  167DOPC   C2920271   5.811   1.097   8.334 -0.1236 -0.6342 -0.2930
  167DOPC   H9R20272   5.722   1.134   8.388 -1.7285 -0.6491 -2.7517
  167DOPC  C21020273   5.850   1.161   8.223 -0.1756 -0.5165 -0.7381
  167DOPC  H10R20274   5.788   1.247   8.193 -1.6866 -1.8102 -1.4466
  167DOPC  C21120275   5.951   1.121   8.125  0.0128  0.6571  0.0163
  167DOPC  H11R20276   5.908   1.122   8.023  1.1137  0.0184 -0.4725
  167DOPC  H11S20277   5.998   1.021   8.134 -0.1487  0.3005 -2.3563
  167DOPC  C21220278   6.068   1.225   8.118 -0.1035 -0.1457  0.3059
  167DOPC  H12R20279   6.117   1.235   8.217 -1.0220  0.5949  0.6890
  167DOPC  H12S20280   6.146   1.195   8.044 -0.1611 -3.3252  1.3717
  167DOPC  C21320281   6.023   1.366   8.083  0.3507  0.1666  0.0034
  167DOPC  H13R20282   5.952   1.403   8.161  1.5683  0.4529  1.0131
  167DOPC  H13S20283   5.967   1.362   7.987 -0.0925  2.9701  0.0564
  167DOPC  C21420284   6.144   1.455   8.060  0.8164 -0.8669 -0.4764
  167DOPC  H14R20285   6.194   1.425   7.966  1.9362  2.2627 -0.9864
  167DOPC  H14S20286   6.220   1.444   8.140  1.1027 -1.2716 -0.8061
  167DOPC  C21520287   6.105   1.602   8.038 -1.3473 -0.2298 -0.5769
  167DOPC  H15R20288   6.200   1.646   7.999 -0.9256 -1.2833 -0.7609
  167DOPC  H15S20289   6.084   1.649   8.136  1.5887  1.5372 -0.6559
  167DOPC  C21620290   5.990   1.624   7.939  0.2937  0.4832 -0.6054
  167DOPC  H16R20291   5.979   1.734   7.928 -1.4386  0.5580  1.3458
  167DOPC  H16S20292   5.893   1.579   7.971  0.9409 -0.4545  0.1012
  167DOPC  C21720293   6.027   1.572   7.797  0.0695 -0.0439  0.2771
  167DOPC  H17R20294   5.940   1.596   7.733  0.6920  1.1061 -0.1565
  167DOPC  H17S20295   6.050   1.463   7.797 -0.0345 -0.1045 -1.9830
  167DOPC  C21820296   6.156   1.650   7.744  0.1541  0.4560 -0.5167
  167DOPC  H18R20297   6.167   1.630   7.635 -1.2999  0.8505 -0.7576
  167DOPC  H18S20298   6.248   1.601   7.783  0.4608  0.6036 -1.0419
  167DOPC  H18T20299   6.158   1.760   7.758 -0.8704  0.5798 -1.2300
  167DOPC   C3320300   5.449   0.856   9.203 -0.1474  0.6962 -0.1638
  167DOPC   H3X20301   5.435   0.946   9.267 -1.0598  0.1799  0.3853
  167DOPC   H3Y20302   5.346   0.824   9.176 -0.7511  3.1410 -0.9860
  167DOPC   C3420303   5.530   0.883   9.077 -0.7765  0.3286 -0.1029
  167DOPC   H4X20304   5.544   0.791   9.016  0.9930  0.3684  0.2114
  167DOPC   H4Y20305   5.627   0.921   9.113  0.6437 -2.3519 -0.7986
  167DOPC   C3520306   5.467   0.992   8.979  0.7807 -0.6523  0.1469
  167DOPC   H5X20307   5.475   1.088   9.035  2.4716 -1.5395  1.5253
  167DOPC   H5Y20308   5.361   0.963   8.969  0.6133 -0.1201  0.3476
  167DOPC   C3620309   5.545   1.007   8.851 -0.3968  0.0754  0.6255
  167DOPC   H6X20310   5.654   1.010   8.873 -0.0423  1.0762 -1.0659
  167DOPC   H6Y20311   5.525   0.920   8.785 -0.8258 -1.5246  2.7523
  167DOPC   C3720312   5.516   1.137   8.763  0.1726 -0.2515  0.2152
  167DOPC   H7X20313   5.406   1.145   8.753 -0.1303  0.7155  3.3169
  167DOPC   H7Y20314   5.551   1.226   8.819  0.1400  0.2787 -0.5887
  167DOPC   C3820315   5.577   1.143   8.621 -0.3331  0.0210 -0.0513
  167DOPC   H8X20316   5.560   1.038   8.588 -0.4248 -0.5779  1.8088
  167DOPC   H8Y20317   5.685   1.166   8.631  0.2544 -2.0698 -0.8898
  167DOPC   C3920318   5.505   1.233   8.526  0.3102  0.6853  0.2301
  167DOPC   H9X20319   5.501   1.335   8.567  1.5506  0.2447  1.5453
  167DOPC  C31020320   5.424   1.212   8.422  0.3305 -0.3966  1.0090
  167DOPC  H10X20321   5.398   1.303   8.367  0.7210  1.7790  4.1608
  167DOPC  C31120322   5.402   1.085   8.343 -0.3640 -0.0036  0.1133
  167DOPC  H11X20323   5.307   1.034   8.368 -0.9249  1.1140  0.3275
  167DOPC  H11Y20324   5.488   1.014   8.345 -1.1151 -0.9869 -0.9396
  167DOPC  C31220325   5.402   1.128   8.195 -0.1082  0.3821 -0.3505
  167DOPC  H12X20326   5.503   1.168   8.168 -0.5244  0.0720 -2.5886
  167DOPC  H12Y20327   5.332   1.212   8.175 -1.1303 -0.5698 -0.8815
  167DOPC  C31320328   5.363   1.026   8.096  0.0197 -0.2544 -0.4604
  167DOPC  H13X20329   5.282   0.959   8.133  0.3414 -1.0857 -1.2244
  167DOPC  H13Y20330   5.330   1.077   8.004  1.6504  0.3091 -0.7587
  167DOPC  C31420331   5.481   0.939   8.057  0.2249  0.3628  0.4093
  167DOPC  H14X20332   5.518   0.970   7.957 -0.7009 -1.2711 -0.4841
  167DOPC  H14Y20333   5.565   0.941   8.131  0.7301 -3.2061  0.1319
  167DOPC  C31520334   5.440   0.793   8.056 -0.8795  0.2361  0.7827
  167DOPC  H15X20335   5.358   0.777   7.983  0.5493  0.1570 -0.8693
  167DOPC  H15Y20336   5.386   0.753   8.144 -0.7699  0.0535  0.7680
  167DOPC  C31620337   5.549   0.692   8.018 -0.1178 -0.1167  0.4563
  167DOPC  H16X20338   5.630   0.684   8.093  1.5289 -1.6244 -1.3799
  167DOPC  H16Y20339   5.504   0.592   8.000  2.7234 -1.5893  0.9719
  167DOPC  C31720340   5.619   0.720   7.876  0.1795  0.3095 -0.8020
  167DOPC  H17X20341   5.661   0.821   7.897 -1.7754  0.9506  0.3005
  167DOPC  H17Y20342   5.700   0.645   7.873 -0.2124 -0.2091  0.5206
  167DOPC  C31820343   5.523   0.739   7.757  0.5735  0.8873 -0.4213
  167DOPC  H18X20344   5.455   0.652   7.757  2.6503 -0.9291  2.3692
  167DOPC  H18Y20345   5.461   0.829   7.774 -0.1014  0.3393  0.0318
  167DOPC  H18Z20346   5.569   0.743   7.656 -1.3659  2.9977 -1.2897
  168DOPC     N20347   1.172   0.996   9.606 -0.6232  0.2963 -0.2346
  168DOPC   C1220348   1.307   0.917   9.594  0.1043 -0.1765 -0.4414
  168DOPC  H12A20349   1.305   0.840   9.669 -0.0971  0.0566 -0.2056
  168DOPC  H12B20350   1.379   0.992   9.623 -1.5390  1.4900 -0.4503
  168DOPC   C1320351   1.174   1.074   9.740 -0.1061 -0.3732  0.2281
  168DOPC  H13A20352   1.089   1.140   9.740 -0.1630 -0.4444  0.5084
  168DOPC  H13B20353   1.164   1.013   9.829  0.6363  0.3892  0.8542
  168DOPC  H13C20354   1.266   1.126   9.763  0.5164 -0.9417 -0.8974
  168DOPC   C1420355   1.052   0.919   9.589 -0.4114 -0.0657 -0.4023
  168DOPC  H14A20356   0.967   0.975   9.625 -0.1929 -0.2828  0.4639
  168DOPC  H14B20357   1.031   0.885   9.488 -0.8218  0.8265 -0.6279
  168DOPC  H14C20358   1.049   0.824   9.639  0.0117 -0.8314 -1.7911
  168DOPC   C1520359   1.168   1.110   9.501  0.2473 -0.2264 -0.1120
  168DOPC  H15A20360   1.165   1.071   9.401  0.8609 -1.2128  0.2456
  168DOPC  H15B20361   1.254   1.175   9.513  0.7411 -1.2967  3.3734
  168DOPC  H15C20362   1.077   1.166   9.520  1.8353  2.5125 -0.0327
  168DOPC   C1120363   1.338   0.849   9.457 -0.0191 -0.0437  0.1926
  168DOPC  H11A20364   1.242   0.812   9.414 -0.8956  0.6571  1.4667
  168DOPC  H11B20365   1.375   0.930   9.390  0.9025 -1.5391 -1.1642
  168DOPC     P20366   1.390   0.616   9.542  0.1491 -0.0423  0.4165
  168DOPC   O1320367   1.270   0.566   9.475  0.0674  0.0779  0.0351
  168DOPC   O1420368   1.386   0.633   9.687 -0.1780 -0.2774  0.3064
  168DOPC   O1220369   1.437   0.749   9.468  0.0432 -0.4791 -0.3145
  168DOPC   O1120370   1.513   0.515   9.517  0.4396 -0.0276 -0.2965
  168DOPC    C120371   1.585   0.527   9.392 -0.8539  0.0599 -0.5628
  168DOPC    HA20372   1.667   0.453   9.395  1.4052  2.4252  2.8564
  168DOPC    HB20373   1.627   0.629   9.385  0.2508 -0.3007  0.6444
  168DOPC    C220374   1.500   0.504   9.264  0.1158 -0.4765  0.0612
  168DOPC    HS20375   1.433   0.592   9.257  0.2220 -0.1638  2.2947
  168DOPC   O2120376   1.428   0.382   9.281  0.4669 -0.7325  0.4278
  168DOPC   C2120377   1.309   0.383   9.224  0.3290  0.4475 -0.3346
  168DOPC   O2220378   1.263   0.469   9.151 -0.3498  0.3248  0.1654
  168DOPC   C2220379   1.236   0.257   9.280  0.3738 -0.0835  0.1565
  168DOPC   H2R20380   1.134   0.262   9.237  1.5530  0.2202 -2.8521
  168DOPC   H2S20381   1.227   0.245   9.391  0.2082 -0.9500  0.0563
  168DOPC    C320382   1.592   0.505   9.141  0.2297 -0.3138  0.3408
  168DOPC    HX20383   1.649   0.410   9.138  0.3114 -0.2447 -1.7782
  168DOPC    HY20384   1.657   0.593   9.161  2.3756 -1.4766 -1.1804
  168DOPC   O3120385   1.529   0.534   9.011  0.1954  0.2180  0.4012
  168DOPC   C3120386   1.524   0.439   8.919  0.0505  0.7637  0.6875
  168DOPC   O3220387   1.583   0.333   8.930  0.1896 -0.1185  0.4612
  168DOPC   C3220388   1.451   0.478   8.791  0.9064  0.4281 -0.7018
  168DOPC   H2X20389   1.368   0.407   8.765 -0.0497  1.2763 -0.0328
  168DOPC   H2Y20390   1.407   0.580   8.798 -0.5646 -0.2758  1.3258
  168DOPC   C2320391   1.291   0.121   9.228 -0.6065 -0.4129 -0.0984
  168DOPC   H3R20392   1.210   0.044   9.222  0.1732 -1.2958  0.3980
  168DOPC   H3S20393   1.354   0.068   9.303  0.0056 -2.6597 -2.0650
  168DOPC   C2420394   1.358   0.126   9.089 -0.7545 -0.2580 -0.6579
  168DOPC   H4R20395   1.451   0.185   9.097  0.2013 -1.8338  0.4757
  168DOPC   H4S20396   1.292   0.173   9.012  1.1442 -0.0732 -2.2323
  168DOPC   C2520397   1.399  -0.018   9.044 -0.2443  0.5577  0.1939
  168DOPC   H5R20398   1.307  -0.079   9.058  0.3221 -0.2529  0.4448
  168DOPC   H5S20399   1.482  -0.045   9.113  0.1740  3.8324  1.1623
  168DOPC   C2620400   1.448  -0.033   8.900  0.0317 -0.7250 -0.1306
  168DOPC   H6R20401   1.508  -0.126   8.886  1.4211  0.0708  0.3117
  168DOPC   H6S20402   1.508   0.056   8.870 -0.6646 -0.1224  0.2459
  168DOPC   C2720403   1.331  -0.038   8.798 -0.4104  0.1268 -0.2075
  168DOPC   H7R20404   1.265   0.051   8.801 -1.6508 -0.7667 -0.1297
  168DOPC   H7S20405   1.276  -0.123   8.844 -0.5658  1.2866  1.9302
  168DOPC   C2820406   1.372  -0.080   8.658 -0.2949 -0.2202 -0.2694
  168DOPC   H8R20407   1.269  -0.100   8.621 -1.0864  0.4356  1.4664
  168DOPC   H8S20408   1.430  -0.174   8.667 -0.2082 -0.0600  1.0330
  168DOPC   C2920409   1.450   0.039   8.595  0.6336  0.2407  0.3861
  168DOPC   H9R20410   1.527   0.087   8.657  0.4651  0.5408  0.3630
  168DOPC  C21020411   1.425   0.083   8.475  0.0575 -0.5017  0.8046
  168DOPC  H10R20412   1.495   0.159   8.439 -2.1568  1.2181 -0.0874
  168DOPC  C21120413   1.330   0.037   8.367  0.0792 -0.5577 -0.6396
  168DOPC  H11R20414   1.290   0.130   8.322 -0.2361  0.3209  1.3348
  168DOPC  H11S20415   1.252  -0.031   8.407 -0.0477  0.7774  1.4974
  168DOPC  C21220416   1.410  -0.063   8.271  0.3428  0.0590 -0.2954
  168DOPC  H12R20417   1.437  -0.154   8.329 -0.3658 -0.4080 -0.6903
  168DOPC  H12S20418   1.494  -0.006   8.226  1.3610 -0.6633  0.6415
  168DOPC  C21320419   1.321  -0.110   8.153  0.2861 -0.3690  0.9579
  168DOPC  H13R20420   1.276  -0.029   8.092 -0.9606 -3.5161 -2.7292
  168DOPC  H13S20421   1.235  -0.169   8.193 -1.3576  0.4486 -1.2110
  168DOPC  C21420422   1.395  -0.206   8.054  0.3678 -0.4621 -0.5001
  168DOPC  H14R20423   1.423  -0.298   8.109 -1.7405  1.2201  3.8177
  168DOPC  H14S20424   1.487  -0.161   8.012 -0.8689 -0.9254 -4.0906
  168DOPC  C21520425   1.313  -0.251   7.936  0.1355 -0.3618  0.2533
  168DOPC  H15R20426   1.283  -0.162   7.878  1.3037  0.8309  1.4035
  168DOPC  H15S20427   1.210  -0.281   7.967 -0.1529  2.1701  2.0798
  168DOPC  C21620428   1.396  -0.339   7.848 -0.5105  0.6641 -0.6020
  168DOPC  H16R20429   1.495  -0.294   7.827 -0.1068  0.1684  0.1932
  168DOPC  H16S20430   1.352  -0.354   7.747  0.8535 -3.3692 -0.7713
  168DOPC  C21720431   1.431  -0.481   7.899 -0.2501  0.3377  0.3479
  168DOPC  H17R20432   1.337  -0.539   7.908 -0.1418  0.0048 -0.5680
  168DOPC  H17S20433   1.478  -0.465   7.998 -2.2473  0.5885  1.2905
  168DOPC  C21820434   1.524  -0.558   7.810  0.2625 -0.3818 -0.1858
  168DOPC  H18R20435   1.614  -0.501   7.778 -0.4631  1.0017  0.1564
  168DOPC  H18S20436   1.476  -0.583   7.713  1.2763  0.8676 -1.0478
  168DOPC  H18T20437   1.559  -0.652   7.858  1.1061 -0.2546 -0.5319
  168DOPC   C3320438   1.538   0.473   8.665 -0.2947 -0.5079  0.2840
  168DOPC   H3X20439   1.585   0.372   8.662 -1.0465 -0.9446  1.9680
  168DOPC   H3Y20440   1.620   0.548   8.663 -1.0147  0.3060  0.7390
  168DOPC   C3420441   1.444   0.492   8.542  0.0487  0.1265  0.3802
  168DOPC   H4X20442   1.394   0.592   8.537  1.1805  0.6562 -1.5767
  168DOPC   H4Y20443   1.360   0.422   8.558 -1.7430  2.1626  0.4280
  168DOPC   C3520444   1.509   0.455   8.411 -0.5005 -0.0107  0.6663
  168DOPC   H5X20445   1.570   0.365   8.431 -0.2332  0.1594  0.6279
  168DOPC   H5Y20446   1.584   0.528   8.374 -1.9420 -0.2128 -3.0834
  168DOPC   C3620447   1.418   0.419   8.291 -0.0396  0.2630 -0.0260
  168DOPC   H6X20448   1.484   0.377   8.212 -1.9208 -1.9524 -0.5356
  168DOPC   H6Y20449   1.347   0.336   8.314 -0.1102 -0.0152 -1.1580
  168DOPC   C3720450   1.356   0.547   8.231 -0.3379  0.1646  0.4775
  168DOPC   H7X20451   1.280   0.568   8.309 -0.7148 -0.4655  0.2946
  168DOPC   H7Y20452   1.439   0.620   8.236 -0.6136  0.5370 -0.1793
  168DOPC   C3820453   1.282   0.528   8.099 -0.4378  1.0166  0.6542
  168DOPC   H8X20454   1.233   0.624   8.070 -1.7071  0.0308 -0.5818
  168DOPC   H8Y20455   1.199   0.455   8.104  1.1436 -1.0985 -1.7589
  168DOPC   C3920456   1.380   0.494   7.988  0.8989 -0.4351  0.3263
  168DOPC   H9X20457   1.458   0.570   7.976 -0.5771  1.3512  1.4600
  168DOPC  C31020458   1.373   0.378   7.915  0.2493 -0.5325 -0.6674
  168DOPC  H10X20459   1.448   0.367   7.834  2.0606 -1.2851  1.0303
  168DOPC  C31120460   1.280   0.259   7.932  0.1840 -0.0490 -0.5679
  168DOPC  H11X20461   1.221   0.258   8.026 -0.4636  1.3883 -0.9268
  168DOPC  H11Y20462   1.348   0.171   7.935  1.0687  0.6340 -0.1987
  168DOPC  C31220463   1.191   0.251   7.804 -0.1737 -0.2049  0.1505
  168DOPC  H12X20464   1.143   0.348   7.781 -0.6949  0.2149  2.7717
  168DOPC  H12Y20465   1.107   0.185   7.834  0.9539 -1.1668  1.3108
  168DOPC  C31320466   1.249   0.185   7.676 -0.5126 -0.0974 -0.3844
  168DOPC  H13X20467   1.344   0.232   7.642 -0.9494 -0.1090 -1.6600
  168DOPC  H13Y20468   1.291   0.085   7.705  1.4539  0.4279 -1.2571
  168DOPC  C31420469   1.155   0.152   7.560  0.1702 -1.0343 -0.4767
  168DOPC  H14X20470   1.219   0.141   7.470 -0.8252  1.1681 -1.5372
  168DOPC  H14Y20471   1.091   0.063   7.578  1.3552 -1.6931  0.6863
  168DOPC  C31520472   1.054   0.263   7.526 -0.0648 -0.9460  0.6074
  168DOPC  H15X20473   1.126   0.343   7.500 -0.7334 -0.5314 -0.0062
  168DOPC  H15Y20474   0.998   0.290   7.618 -2.4155 -2.4865 -0.2770
  168DOPC  C31620475   0.964   0.238   7.402 -0.3609 -0.1676  0.1087
  168DOPC  H16X20476   0.905   0.145   7.420 -2.0540  0.6980 -0.7993
  168DOPC  H16Y20477   0.892   0.322   7.394 -0.9252 -0.7645 -1.4284
  168DOPC  C31720478   1.028   0.228   7.260 -0.1138 -0.5527  0.2228
  168DOPC  H17X20479   1.108   0.306   7.260 -0.1647 -0.4771 -0.8262
  168DOPC  H17Y20480   1.089   0.135   7.262  1.9883  0.7798  2.0305
  168DOPC  C31820481   0.932   0.233   7.141  0.5409 -1.0176 -0.5820
  168DOPC  H18X20482   0.852   0.305   7.169 -0.1158 -1.4279 -1.3574
  168DOPC  H18Y20483   0.981   0.281   7.054 -0.0719  2.0780  0.6356
  168DOPC  H18Z20484   0.884   0.135   7.117 -2.3602 -0.2649  1.5801
  169DOPC     N20485   6.693   1.249  10.338 -0.9380 -0.4695  0.6320
  169DOPC   C1220486   6.549   1.292  10.311  0.7780  0.4674 -0.3267
  169DOPC  H12A20487   6.521   1.374  10.375  1.2484  0.4032 -0.0307
  169DOPC  H12B20488   6.489   1.210  10.348  3.4285 -0.2499  2.8060
  169DOPC   C1320489   6.732   1.259  10.478 -0.3649 -0.3051 -0.5828
  169DOPC  H13A20490   6.838   1.243  10.488 -0.6866 -1.3274  2.2472
  169DOPC  H13B20491   6.709   1.359  10.513 -1.1401 -0.7491  0.2147
  169DOPC  H13C20492   6.694   1.186  10.549  0.2999 -0.7220 -0.6496
  169DOPC   C1420493   6.795   1.342  10.271  0.3094 -0.4239 -0.2315
  169DOPC  H14A20494   6.769   1.344  10.166 -0.1712  0.0475 -0.1111
  169DOPC  H14B20495   6.778   1.442  10.309 -0.4093 -0.7900  0.4533
  169DOPC  H14C20496   6.897   1.315  10.291  0.1425 -1.0410 -0.2083
  169DOPC   C1520497   6.726   1.113  10.282 -0.1703 -0.4111  0.3920
  169DOPC  H15A20498   6.685   1.100  10.183  0.2752 -3.2758  0.4871
  169DOPC  H15B20499   6.677   1.033  10.337 -0.0872 -1.3776 -0.9077
  169DOPC  H15C20500   6.833   1.107  10.276  0.2010  2.5320  1.9663
  169DOPC   C1120501   6.510   1.331  10.165  0.1306 -0.2747  0.0047
  169DOPC  H11A20502   6.403   1.357  10.153  0.5884  0.7349 -2.6203
  169DOPC  H11B20503   6.557   1.431  10.147 -0.3590  0.0560  0.5134
  169DOPC     P20504   6.509   1.252   9.926  0.0388 -0.8649  0.2069
  169DOPC   O1320505   6.551   1.387   9.875 -0.0820  0.4537 -0.5697
  169DOPC   O1420506   6.366   1.226   9.923 -0.3686  0.2947 -0.0453
  169DOPC   O1220507   6.548   1.233  10.069 -0.3870 -0.1559  0.5982
  169DOPC   O1120508   6.585   1.139   9.848 -0.1090 -0.1153  0.3583
  169DOPC    C120509   6.724   1.115   9.859 -0.3092 -0.3167 -0.6721
  169DOPC    HA20510   6.739   1.005   9.846 -1.5492 -0.7871  1.4651
  169DOPC    HB20511   6.775   1.148   9.951  0.5304 -1.2144 -0.7998
  169DOPC    C220512   6.809   1.192   9.749  0.0146  0.3779 -0.0779
  169DOPC    HS20513   6.767   1.294   9.749 -0.5666  0.2072  2.1824
  169DOPC   O2120514   6.792   1.134   9.621  0.4713  0.4533  0.0781
  169DOPC   C2120515   6.833   1.212   9.515  0.3326  0.0597  0.5932
  169DOPC   O2220516   6.885   1.317   9.523  0.4438 -0.5797 -0.2148
  169DOPC   C2220517   6.803   1.147   9.387 -0.1239  0.5914  0.0468
  169DOPC   H2R20518   6.787   1.226   9.310 -0.8695  1.0638  0.6686
  169DOPC   H2S20519   6.722   1.072   9.397  0.8843 -0.3958  1.1756
  169DOPC    C320520   6.963   1.203   9.780  0.2547  0.4619 -0.2546
  169DOPC    HX20521   6.968   1.253   9.879  2.0621 -0.6937  0.2768
  169DOPC    HY20522   7.015   1.274   9.712  0.8147  0.7432  0.4464
  169DOPC   O3120523   7.021   1.077   9.796  0.3464 -0.0614  0.1787
  169DOPC   C3120524   7.097   1.038   9.696  0.0376  0.5056 -0.6283
  169DOPC   O3220525   7.125   1.100   9.596  0.3270 -0.3164  0.0485
  169DOPC   C3220526   7.145   0.898   9.729  0.0480  0.0217 -0.4088
  169DOPC   H2X20527   7.251   0.895   9.696 -0.1608  0.6818 -1.1712
  169DOPC   H2Y20528   7.142   0.870   9.837 -0.5925 -0.2197 -0.4839
  169DOPC   C2320529   6.925   1.061   9.352  0.2607  0.3289  0.0463
  169DOPC   H3R20530   6.949   0.985   9.430 -0.1875  0.7580  0.6061
  169DOPC   H3S20531   7.017   1.123   9.345  0.7816  0.0695  3.1805
  169DOPC   C2420532   6.899   0.982   9.220  0.3640 -0.9220  0.2240
  169DOPC   H4R20533   6.880   1.056   9.139 -1.5605 -1.2758  0.3048
  169DOPC   H4S20534   6.801   0.931   9.228  0.1050 -0.3916  0.5444
  169DOPC   C2520535   7.022   0.895   9.177  0.3486  0.5365  0.5422
  169DOPC   H5R20536   7.050   0.813   9.247  1.3878 -0.1604 -0.6609
  169DOPC   H5S20537   7.111   0.960   9.167 -0.4684  1.7278  0.7872
  169DOPC   C2620538   6.990   0.814   9.047  0.0037 -0.1038 -0.1577
  169DOPC   H6R20539   6.891   0.769   9.073  0.0697  0.1173  0.4785
  169DOPC   H6S20540   7.072   0.739   9.042 -1.4528 -1.9850  2.0419
  169DOPC   C2720541   6.966   0.903   8.920 -0.1209  0.1259 -0.6310
  169DOPC   H7R20542   7.056   0.960   8.891 -0.3939  0.6878 -0.4055
  169DOPC   H7S20543   6.882   0.972   8.944 -0.4170 -1.0386  2.1671
  169DOPC   C2820544   6.908   0.824   8.799 -0.3551 -0.1600  0.0964
  169DOPC   H8R20545   6.850   0.899   8.741 -1.2320  0.2871  1.4788
  169DOPC   H8S20546   6.832   0.753   8.839  1.0907 -1.3451  0.8357
  169DOPC   C2920547   7.013   0.753   8.718  0.2291  0.1339  0.1040
  169DOPC   H9R20548   7.104   0.724   8.773  0.2513  3.4511  2.0395
  169DOPC  C21020549   7.008   0.735   8.584  0.8437 -0.6923  0.0379
  169DOPC  H10R20550   7.097   0.690   8.538  3.2355  2.0814  1.5692
  169DOPC  C21120551   6.895   0.785   8.494  0.7399  0.5811  0.5525
  169DOPC  H11R20552   6.824   0.859   8.539 -0.8798 -0.5012 -0.1126
  169DOPC  H11S20553   6.834   0.694   8.474  1.6753 -0.5175  2.3840
  169DOPC  C21220554   6.934   0.842   8.357  0.8737 -0.0214  0.9120
  169DOPC  H12R20555   7.018   0.777   8.326 -0.2707 -1.4957  0.7980
  169DOPC  H12S20556   6.959   0.951   8.352  0.0763  0.1613  0.7376
  169DOPC  C21320557   6.813   0.831   8.260  0.0261 -0.0698 -0.2714
  169DOPC  H13R20558   6.750   0.913   8.301  1.1850  1.2392 -1.0182
  169DOPC  H13S20559   6.761   0.734   8.274 -1.1721  0.8045  1.8964
  169DOPC  C21420560   6.853   0.875   8.119 -0.1751 -0.1889 -0.2871
  169DOPC  H14R20561   6.924   0.792   8.095  1.7141  0.7748  1.6549
  169DOPC  H14S20562   6.927   0.957   8.126  0.3537 -0.6539 -0.3134
  169DOPC  C21520563   6.734   0.902   8.024 -0.6631  0.0299 -0.5724
  169DOPC  H15R20564   6.673   0.982   8.071  0.4162 -0.2475  1.4115
  169DOPC  H15S20565   6.665   0.815   8.022 -1.9450  1.0270 -1.4819
  169DOPC  C21620566   6.782   0.931   7.883 -0.2254  0.3895 -0.0442
  169DOPC  H16R20567   6.835   0.837   7.855 -1.7623 -0.2368 -0.9607
  169DOPC  H16S20568   6.843   1.023   7.873  0.3240 -0.0559 -0.8779
  169DOPC  C21720569   6.669   0.948   7.784  0.4148 -0.1959 -0.1774
  169DOPC  H17R20570   6.713   0.948   7.682 -0.5505 -0.3984 -0.5995
  169DOPC  H17S20571   6.619   1.044   7.806 -2.0486 -1.6003  0.7550
  169DOPC  C21820572   6.567   0.832   7.781 -0.5184 -1.0730  0.7132
  169DOPC  H18R20573   6.515   0.825   7.878 -1.6870  2.3573  0.4837
  169DOPC  H18S20574   6.617   0.736   7.753 -2.7676 -1.4381 -2.7274
  169DOPC  H18T20575   6.488   0.840   7.703  0.8840  2.3405 -0.5364
  169DOPC   C3320576   7.058   0.789   9.657 -0.6661  0.0088 -0.9281
  169DOPC   H3X20577   7.104   0.688   9.658  0.1358  0.3497  1.2466
  169DOPC   H3Y20578   7.048   0.806   9.548  0.1425  0.5951 -0.9199
  169DOPC   C3420579   6.921   0.772   9.720  0.5889 -0.2231  0.0338
  169DOPC   H4X20580   6.856   0.861   9.705  0.4397 -0.1373  1.1314
  169DOPC   H4Y20581   6.938   0.771   9.829 -1.2360 -2.1001  0.3615
  169DOPC   C3520582   6.847   0.645   9.681 -0.2238  0.6320 -0.0227
  169DOPC   H5X20583   6.778   0.611   9.761 -0.1990 -1.9744 -1.0087
  169DOPC   H5Y20584   6.909   0.553   9.676 -0.7197  0.1853  1.4530
  169DOPC   C3620585   6.766   0.658   9.554 -0.0059 -0.6857 -0.1464
  169DOPC   H6X20586   6.836   0.682   9.471  0.2353  1.1089  0.5273
  169DOPC   H6Y20587   6.720   0.559   9.537 -0.3189 -0.7050  0.7659
  169DOPC   C3720588   6.650   0.754   9.548  1.1063  0.6827  0.0149
  169DOPC   H7X20589   6.568   0.715   9.612  0.1646  0.8294 -1.0717
  169DOPC   H7Y20590   6.679   0.855   9.583 -0.1106  0.3420  2.1614
  169DOPC   C3820591   6.591   0.764   9.403  0.0527 -0.2700  0.0042
  169DOPC   H8X20592   6.676   0.791   9.337  0.1116 -0.7947 -0.1403
  169DOPC   H8Y20593   6.520   0.849   9.398 -0.1699 -0.3822  0.9741
  169DOPC   C3920594   6.533   0.631   9.366  1.0124  0.1202  0.0708
  169DOPC   H9X20595   6.435   0.611   9.411  1.7640  1.0447  2.2623
  169DOPC  C31020596   6.578   0.547   9.269  0.5372 -0.0114  0.1604
  169DOPC  H10X20597   6.521   0.456   9.246  0.7462 -0.1506  0.1974
  169DOPC  C31120598   6.697   0.583   9.185 -0.2627  0.3190  0.2434
  169DOPC  H11X20599   6.785   0.575   9.253 -0.4618  0.3053  0.5002
  169DOPC  H11Y20600   6.699   0.690   9.155 -0.9062  0.9200  2.1584
  169DOPC  C31220601   6.710   0.489   9.070  0.6593 -0.2351 -0.4970
  169DOPC  H12X20602   6.688   0.383   9.095  1.3196 -0.0118  1.2113
  169DOPC  H12Y20603   6.818   0.496   9.042  0.8247 -2.2229 -0.4668
  169DOPC  C31320604   6.626   0.535   8.948  0.2125 -0.5313 -0.6560
  169DOPC  H13X20605   6.523   0.497   8.962  0.1657  0.6784  3.3976
  169DOPC  H13Y20606   6.622   0.646   8.952 -1.1677 -0.5056  4.4015
  169DOPC  C31420607   6.672   0.482   8.815 -0.1051  0.1985  0.4314
  169DOPC  H14X20608   6.591   0.489   8.739  0.4480 -1.6470 -0.3692
  169DOPC  H14Y20609   6.751   0.552   8.781  0.8199 -1.2876 -0.5941
  169DOPC  C31520610   6.726   0.339   8.824  0.2790  0.0549  0.1561
  169DOPC  H15X20611   6.677   0.288   8.910  0.2792  4.4028  3.0202
  169DOPC  H15Y20612   6.831   0.347   8.859 -0.8392  2.3266  3.4149
  169DOPC  C31620613   6.707   0.254   8.693 -0.7513  0.0628  0.2990
  169DOPC  H16X20614   6.766   0.165   8.722 -0.7496  0.6406  2.1874
  169DOPC  H16Y20615   6.601   0.222   8.679 -0.1850 -1.5877 -0.4337
  169DOPC  C31720616   6.750   0.327   8.557  0.2180 -0.6157 -0.0398
  169DOPC  H17X20617   6.739   0.253   8.475  0.7908  0.4727 -1.1301
  169DOPC  H17Y20618   6.669   0.398   8.531  0.8722 -0.0481 -0.5694
  169DOPC  C31820619   6.890   0.394   8.562 -0.0129  0.0593 -0.0600
  169DOPC  H18X20620   6.898   0.472   8.641  1.9125  0.6417 -0.7730
  169DOPC  H18Y20621   6.967   0.315   8.577  0.2506  0.1902 -0.6767
  169DOPC  H18Z20622   6.920   0.440   8.466 -3.1313 -0.1092 -1.2239
  170DOPC     N20623   5.706   6.509  10.226  0.9638  0.2145  0.4146
  170DOPC   C1220624   5.657   6.579  10.094  0.0896 -0.1002  0.1940
  170DOPC  H12A20625   5.703   6.526  10.012  1.0012 -2.4505  2.0976
  170DOPC  H12B20626   5.683   6.684  10.089  0.1460 -0.1509 -0.9157
  170DOPC   C1320627   5.675   6.368  10.212  0.3537 -0.2374  0.1732
  170DOPC  H13A20628   5.695   6.317  10.305  0.9148  0.5512  0.4944
  170DOPC  H13B20629   5.570   6.362  10.186  0.4740  0.5118 -0.5348
  170DOPC  H13C20630   5.729   6.316  10.134 -0.3748 -0.7757  0.0170
  170DOPC   C1420631   5.633   6.572  10.339 -0.1829 -0.4821 -0.4553
  170DOPC  H14A20632   5.675   6.544  10.435 -1.7784 -1.2548  0.0673
  170DOPC  H14B20633   5.636   6.680  10.340 -1.4261 -0.4367 -0.3581
  170DOPC  H14C20634   5.528   6.547  10.339 -0.4784  0.7155 -1.3848
  170DOPC   C1520635   5.852   6.537  10.246 -0.3771 -0.3426  0.2287
  170DOPC  H15A20636   5.916   6.474  10.185  0.0509  1.9467 -1.8113
  170DOPC  H15B20637   5.885   6.510  10.345 -0.2473 -1.9486 -0.2231
  170DOPC  H15C20638   5.878   6.641  10.232 -0.7023 -0.4650 -1.4412
  170DOPC   C1120639   5.510   6.574  10.058  0.7611 -0.0898  0.4893
  170DOPC  H11A20640   5.504   6.603   9.951  0.1400 -0.1435  0.5070
  170DOPC  H11B20641   5.477   6.468  10.052  1.5232 -0.2955 -0.2882
  170DOPC     P20642   5.445   6.812  10.130 -0.2313 -0.0947 -0.6493
  170DOPC   O1320643   5.580   6.852  10.180  0.3890 -0.6888  0.0746
  170DOPC   O1420644   5.329   6.864  10.201  0.1584 -0.4523 -0.6708
  170DOPC   O1220645   5.428   6.653  10.144  0.2667 -0.7375  0.1202
  170DOPC   O1120646   5.428   6.837   9.974  0.1788 -0.7270  0.2479
  170DOPC    C120647   5.531   6.881   9.888  0.8613  0.0551 -0.4083
  170DOPC    HA20648   5.610   6.805   9.875  1.7356  1.0135 -0.8296
  170DOPC    HB20649   5.570   6.974   9.935 -1.9388  0.6942  0.8830
  170DOPC    C220650   5.476   6.929   9.744 -0.1641  0.3762 -0.0279
  170DOPC    HS20651   5.391   6.997   9.770  0.0472  0.7739 -0.3714
  170DOPC   O2120652   5.433   6.813   9.679 -0.3173 -0.0267  0.1323
  170DOPC   C2120653   5.323   6.828   9.611 -0.0584 -0.0262  0.3401
  170DOPC   O2220654   5.265   6.936   9.599 -0.6500  0.1333  0.0197
  170DOPC   C2220655   5.284   6.686   9.552 -0.3492 -0.7733  0.4828
  170DOPC   H2R20656   5.248   6.620   9.633  0.9054  1.4880  3.0141
  170DOPC   H2S20657   5.381   6.649   9.511 -0.6991 -0.6285 -0.5147
  170DOPC    C320658   5.583   7.013   9.663 -0.3213 -0.2227 -0.1417
  170DOPC    HX20659   5.687   6.975   9.669  0.1073  1.1048  2.1421
  170DOPC    HY20660   5.589   7.117   9.703 -1.9832  0.3808 -1.3474
  170DOPC   O3120661   5.541   7.008   9.527 -0.5881 -0.4733  0.4161
  170DOPC   C3120662   5.464   7.106   9.482  0.7189 -0.1374  0.1345
  170DOPC   O3220663   5.429   7.207   9.544  0.0895 -0.0287 -0.0239
  170DOPC   C3220664   5.424   7.086   9.339  0.3891 -1.0127 -0.0760
  170DOPC   H2X20665   5.480   7.000   9.297  1.0416 -0.7964  0.3359
  170DOPC   H2Y20666   5.316   7.060   9.347 -0.0802  0.0912 -1.9925
  170DOPC   C2320667   5.186   6.695   9.437  0.1267  0.0593 -0.0405
  170DOPC   H3R20668   5.192   6.790   9.380  0.1379  0.5907  0.8384
  170DOPC   H3S20669   5.087   6.709   9.484 -0.0098  2.6396 -0.9444
  170DOPC   C2420670   5.195   6.579   9.335  0.6855  0.4370  0.2206
  170DOPC   H4R20671   5.120   6.502   9.362 -0.4466  0.7300 -1.8751
  170DOPC   H4S20672   5.297   6.536   9.339  0.9652  1.1669  1.7597
  170DOPC   C2520673   5.183   6.634   9.184  0.1588 -0.3778 -0.3364
  170DOPC   H5R20674   5.256   6.712   9.154  0.9368 -1.4108 -1.1958
  170DOPC   H5S20675   5.084   6.685   9.190 -0.9624 -2.5594  1.8652
  170DOPC   C2620676   5.159   6.522   9.080 -0.6449  0.3239  0.3209
  170DOPC   H6R20677   5.068   6.469   9.115  0.5005 -0.8164  1.7472
  170DOPC   H6S20678   5.250   6.458   9.084 -0.0092  1.2511  2.7747
  170DOPC   C2720679   5.138   6.576   8.938 -0.8178 -0.1723  0.5977
  170DOPC   H7R20680   5.225   6.646   8.929 -2.8294  2.5002  0.6606
  170DOPC   H7S20681   5.049   6.640   8.952 -1.9978 -1.4896 -0.6045
  170DOPC   C2820682   5.137   6.463   8.829  0.4078 -0.1079  0.2927
  170DOPC   H8R20683   5.047   6.400   8.842  1.9780 -2.5608 -0.1560
  170DOPC   H8S20684   5.225   6.395   8.842 -1.1502 -1.8912  2.1861
  170DOPC   C2920685   5.144   6.526   8.691  0.1882  0.0207 -0.2208
  170DOPC   H9R20686   5.098   6.626   8.694  2.5666  1.1806  0.1032
  170DOPC  C21020687   5.231   6.503   8.588  0.3523 -0.0970  0.0389
  170DOPC  H10R20688   5.208   6.551   8.493  1.7333  0.4816 -0.0267
  170DOPC  C21120689   5.331   6.390   8.572  1.0875  0.2813 -0.1969
  170DOPC  H11R20690   5.357   6.330   8.662 -0.4722 -1.8188 -1.0822
  170DOPC  H11S20691   5.426   6.434   8.534  0.6065  0.2874 -1.4314
  170DOPC  C21220692   5.285   6.296   8.453 -0.0712 -0.2040 -0.6454
  170DOPC  H12R20693   5.178   6.266   8.459  0.0011 -0.2664  0.7437
  170DOPC  H12S20694   5.333   6.197   8.468 -0.5575 -0.1158  1.9590
  170DOPC  C21320695   5.321   6.347   8.315 -0.5115 -0.9221  0.1173
  170DOPC  H13R20696   5.430   6.339   8.292 -0.3676  0.1308  0.4000
  170DOPC  H13S20697   5.310   6.457   8.319  2.2832 -0.4366 -2.0066
  170DOPC  C21420698   5.237   6.294   8.195 -0.4482  1.0290 -0.2454
  170DOPC  H14R20699   5.138   6.283   8.243  1.0452 -1.7905  2.5773
  170DOPC  H14S20700   5.273   6.194   8.160  0.1732  2.1146 -2.9900
  170DOPC  C21520701   5.218   6.390   8.072 -0.1494 -0.0223 -0.5598
  170DOPC  H15R20702   5.168   6.484   8.104  3.0475  2.1801 -1.6226
  170DOPC  H15S20703   5.162   6.324   8.002  1.8590 -1.8162 -0.5863
  170DOPC  C21620704   5.351   6.437   8.015 -0.5212 -0.1873  0.4447
  170DOPC  H16R20705   5.409   6.350   7.976 -0.8862 -0.3165  0.1900
  170DOPC  H16S20706   5.411   6.490   8.092  0.9743 -1.9448  0.5841
  170DOPC  C21720707   5.332   6.538   7.898  0.2352  0.1784  0.2138
  170DOPC  H17R20708   5.246   6.605   7.922  0.7392  0.3331  1.7212
  170DOPC  H17S20709   5.301   6.482   7.808  0.2594 -0.3472  0.5303
  170DOPC  C21820710   5.455   6.618   7.877  0.4369 -0.0474 -0.4787
  170DOPC  H18R20711   5.540   6.548   7.862  1.0191  0.8810 -1.6920
  170DOPC  H18S20712   5.487   6.675   7.967  2.6786 -1.5935 -0.2138
  170DOPC  H18T20713   5.451   6.679   7.784  2.5185 -0.0837 -0.6352
  170DOPC   C3320714   5.452   7.216   9.251 -0.6556  0.3827  0.1531
  170DOPC   H3X20715   5.559   7.244   9.263 -1.0835  1.7239  1.0752
  170DOPC   H3Y20716   5.388   7.297   9.291 -2.0745 -0.1953 -0.8685
  170DOPC   C3420717   5.425   7.193   9.097 -0.0882 -0.2512 -0.7002
  170DOPC   H4X20718   5.320   7.162   9.080  0.6571 -2.0367 -2.3739
  170DOPC   H4Y20719   5.495   7.117   9.059 -0.8451 -1.7491  0.7754
  170DOPC   C3520720   5.445   7.326   9.031  0.0311 -0.1865 -0.2386
  170DOPC   H5X20721   5.554   7.348   9.039 -0.0933  0.9151 -1.3526
  170DOPC   H5Y20722   5.389   7.406   9.083  1.8588  1.7462 -1.1225
  170DOPC   C3620723   5.412   7.327   8.880 -0.7655 -0.0915 -0.6169
  170DOPC   H6X20724   5.473   7.249   8.830 -0.6712  1.8770 -3.9337
  170DOPC   H6Y20725   5.303   7.317   8.867 -0.3668 -3.5762 -2.4003
  170DOPC   C3720726   5.451   7.459   8.813 -0.4182 -0.4949 -0.1830
  170DOPC   H7X20727   5.399   7.539   8.870 -3.6884 -1.5112 -1.4978
  170DOPC   H7Y20728   5.560   7.482   8.813 -0.6642  0.7821  0.0750
  170DOPC   C3820729   5.413   7.448   8.663  0.2413  0.4802 -0.4180
  170DOPC   H8X20730   5.306   7.428   8.639  0.4432 -0.3466 -0.6636
  170DOPC   H8Y20731   5.454   7.348   8.637 -0.9406  0.0393 -0.6603
  170DOPC   C3920732   5.468   7.551   8.571  0.1115 -0.0263 -0.4159
  170DOPC   H9X20733   5.431   7.652   8.594 -1.3097 -0.9222  1.5357
  170DOPC  C31020734   5.563   7.541   8.476 -0.0408 -0.0376 -0.4380
  170DOPC  H10X20735   5.606   7.635   8.438  0.2291 -0.2685 -0.7110
  170DOPC  C31120736   5.631   7.415   8.432  0.0723 -0.5026 -0.0026
  170DOPC  H11X20737   5.647   7.391   8.325  2.1759 -0.7724  0.3303
  170DOPC  H11Y20738   5.566   7.335   8.475 -0.0201  0.3871  1.5829
  170DOPC  C31220739   5.770   7.389   8.500 -0.2908 -0.3903  0.6058
  170DOPC  H12X20740   5.769   7.430   8.603 -1.1702  1.1021  0.0534
  170DOPC  H12Y20741   5.850   7.456   8.461 -2.0188  0.6026 -1.4851
  170DOPC  C31320742   5.815   7.245   8.505 -0.2364  0.2912  0.8003
  170DOPC  H13X20743   5.782   7.203   8.407 -0.6203  2.1104  0.1091
  170DOPC  H13Y20744   5.925   7.228   8.505 -0.3110 -0.3395 -0.6419
  170DOPC  C31420745   5.751   7.171   8.621  0.1410 -0.0920  0.4089
  170DOPC  H14X20746   5.641   7.187   8.624  0.1877  0.1432  2.1836
  170DOPC  H14Y20747   5.783   7.065   8.621 -2.6830 -1.1589 -3.5572
  170DOPC  C31520748   5.802   7.220   8.761  0.2615 -0.4618 -0.5985
  170DOPC  H15X20749   5.763   7.321   8.785 -0.5668 -0.7993 -0.5132
  170DOPC  H15Y20750   5.912   7.236   8.749  0.1937  1.1151  0.5826
  170DOPC  C31620751   5.754   7.117   8.867 -0.1308 -0.9142 -0.5130
  170DOPC  H16X20752   5.643   7.112   8.857 -0.3027  0.8174  0.1938
  170DOPC  H16Y20753   5.803   7.028   8.822 -0.5960 -0.5712 -1.7407
  170DOPC  C31720754   5.795   7.155   9.009 -0.1948  0.9986 -0.4544
  170DOPC  H17X20755   5.905   7.172   9.006  0.7794 -3.1200  2.3967
  170DOPC  H17Y20756   5.749   7.249   9.045  0.0971  0.5073  1.3220
  170DOPC  C31820757   5.783   7.037   9.104 -0.2825  0.1600 -0.1545
  170DOPC  H18X20758   5.755   7.068   9.207  1.1239  3.0814 -0.5415
  170DOPC  H18Y20759   5.701   6.975   9.063 -1.0081  1.4405 -0.6722
  170DOPC  H18Z20760   5.876   6.978   9.122 -1.6735 -1.8624  0.8496
  171DOPC     N20761   3.284   2.974   5.258  0.1009  0.1905 -0.1888
  171DOPC   C1220762   3.372   3.053   5.351 -0.4878  0.1146  0.6971
  171DOPC  H12A20763   3.309   3.112   5.416  0.9011  3.6609 -0.9102
  171DOPC  H12B20764   3.430   3.128   5.299 -2.5334  1.7841  0.6757
  171DOPC   C1320765   3.230   2.853   5.332 -0.2548 -0.3908  0.5815
  171DOPC  H13A20766   3.313   2.806   5.382  0.5262  0.9639  0.6141
  171DOPC  H13B20767   3.166   2.886   5.412 -1.8884  0.2673 -0.9421
  171DOPC  H13C20768   3.170   2.790   5.268 -0.4604 -2.5599  2.7673
  171DOPC   C1420769   3.353   2.932   5.129  0.4923  0.0102 -0.3922
  171DOPC  H14A20770   3.401   3.016   5.081  2.2213 -0.7440 -0.0514
  171DOPC  H14B20771   3.427   2.856   5.147 -1.0522 -1.6732 -0.8342
  171DOPC  H14C20772   3.283   2.883   5.062  0.9972  0.0037 -0.9257
  171DOPC   C1520773   3.154   3.049   5.217 -0.1129 -0.7427 -0.0872
  171DOPC  H15A20774   3.176   3.136   5.157 -1.0423 -0.9004 -0.6615
  171DOPC  H15B20775   3.095   3.077   5.304  0.5845 -2.6088  1.0346
  171DOPC  H15C20776   3.087   2.986   5.162 -0.0500  0.2943 -1.3971
  171DOPC   C1120777   3.474   2.970   5.425 -0.0968 -0.2227  0.5307
  171DOPC  H11A20778   3.523   3.042   5.495 -0.6363  1.7008 -0.9873
  171DOPC  H11B20779   3.430   2.884   5.480 -0.3174 -0.6187 -0.2645
  171DOPC     P20780   3.627   2.779   5.331 -0.1577  0.1545 -0.5330
  171DOPC   O1320781   3.706   2.754   5.209  0.7230 -0.3860  0.5904
  171DOPC   O1420782   3.516   2.689   5.355  0.1736 -0.3376  0.3556
  171DOPC   O1220783   3.574   2.930   5.329 -0.1362 -0.3761  0.5303
  171DOPC   O1120784   3.742   2.791   5.446  0.2187 -0.3702  0.0563
  171DOPC    C120785   3.710   2.790   5.583 -0.1392  0.4978  0.4051
  171DOPC    HA20786   3.642   2.705   5.605  1.3084 -0.3994  1.6733
  171DOPC    HB20787   3.657   2.880   5.619  0.5580  0.6648  1.0479
  171DOPC    C220788   3.845   2.785   5.669  0.8417  0.2636 -0.2872
  171DOPC    HS20789   3.880   2.888   5.648  1.1881 -0.0839 -1.4805
  171DOPC   O2120790   3.936   2.690   5.605 -0.5215 -0.1287 -0.4264
  171DOPC   C2120791   4.073   2.724   5.629  0.3096  0.7049 -0.0452
  171DOPC   O2220792   4.100   2.822   5.696 -0.6109 -0.4712 -0.6264
  171DOPC   C2220793   4.169   2.636   5.557  0.0828 -0.6242 -0.5126
  171DOPC   H2R20794   4.268   2.678   5.583 -0.9110  1.3881  0.2522
  171DOPC   H2S20795   4.168   2.655   5.447 -0.7664  0.8789 -0.2826
  171DOPC    C320796   3.823   2.758   5.824 -0.5141 -0.0742 -0.4551
  171DOPC    HX20797   3.754   2.838   5.861 -0.4484  0.5720 -1.6850
  171DOPC    HY20798   3.923   2.764   5.872 -1.4162  0.9994  1.4359
  171DOPC   O3120799   3.750   2.636   5.838  0.6564  0.2161 -0.1656
  171DOPC   C3120800   3.773   2.558   5.946 -0.5144 -0.6029  0.1680
  171DOPC   O3220801   3.838   2.594   6.045  0.4034  0.4383  0.2686
  171DOPC   C3220802   3.688   2.432   5.936 -0.1796 -0.4316  0.2620
  171DOPC   H2X20803   3.584   2.455   5.902  1.1357  0.1908 -3.8365
  171DOPC   H2Y20804   3.737   2.373   5.857  0.0757 -1.0990  0.9116
  171DOPC   C2320805   4.165   2.489   5.602  0.3314  0.4628  0.0558
  171DOPC   H3R20806   4.230   2.430   5.534  0.6053  0.8512 -0.0247
  171DOPC   H3S20807   4.061   2.452   5.612 -0.4263  2.8475  2.2526
  171DOPC   C2420808   4.207   2.486   5.751 -0.1985  0.3137 -0.3264
  171DOPC   H4R20809   4.170   2.573   5.808  0.6920  1.6819 -1.7445
  171DOPC   H4S20810   4.318   2.491   5.742 -0.1662 -1.2889 -1.2882
  171DOPC   C2520811   4.159   2.356   5.811 -0.1863  0.2834 -0.4238
  171DOPC   H5R20812   4.218   2.269   5.776  0.4209 -0.2339  1.7605
  171DOPC   H5S20813   4.055   2.323   5.788  0.1603 -0.9295 -0.2833
  171DOPC   C2620814   4.184   2.355   5.960 -0.1927  0.5526  0.6143
  171DOPC   H6R20815   4.116   2.429   6.009  1.4230  1.3952  1.6967
  171DOPC   H6S20816   4.286   2.394   5.978 -0.4785  1.3775  0.5328
  171DOPC   C2720817   4.153   2.219   6.031 -0.9267 -0.8673  0.8569
  171DOPC   H7R20818   4.207   2.137   5.978  2.3657  2.0483 -0.6267
  171DOPC   H7S20819   4.042   2.203   6.030 -1.3589  1.6721 -1.2842
  171DOPC   C2820820   4.204   2.231   6.177  0.3589  0.1217 -0.1403
  171DOPC   H8R20821   4.149   2.317   6.220  0.0243 -0.5573  0.8391
  171DOPC   H8S20822   4.314   2.245   6.178 -0.0154  4.4522 -0.7384
  171DOPC   C2920823   4.179   2.107   6.263  0.2028 -0.3001  0.7282
  171DOPC   H9R20824   4.171   2.009   6.215 -0.1501 -0.1745  0.5335
  171DOPC  C21020825   4.140   2.110   6.393 -0.1983  0.5093 -0.0842
  171DOPC  H10R20826   4.125   2.014   6.445 -0.4472 -0.6168 -2.1291
  171DOPC  C21120827   4.118   2.227   6.484  0.5111  0.1864 -0.6862
  171DOPC  H11R20828   4.010   2.256   6.483 -0.4132 -2.6637  1.7545
  171DOPC  H11S20829   4.184   2.311   6.453  0.4656 -0.3640 -2.3561
  171DOPC  C21220830   4.159   2.181   6.624  0.2741 -0.3553 -0.3387
  171DOPC  H12R20831   4.264   2.147   6.629  0.3073 -0.1367  2.6967
  171DOPC  H12S20832   4.081   2.110   6.660 -2.0600  0.5282 -3.2747
  171DOPC  C21320833   4.164   2.304   6.719 -0.0104 -0.2055 -0.2260
  171DOPC  H13R20834   4.074   2.369   6.714  0.1825  0.1998  1.1411
  171DOPC  H13S20835   4.255   2.364   6.697  0.7080  0.0604  3.0263
  171DOPC  C21420836   4.177   2.252   6.864  0.5241  0.8864 -0.0962
  171DOPC  H14R20837   4.266   2.187   6.877 -0.7383 -0.5848  1.6346
  171DOPC  H14S20838   4.088   2.197   6.901  0.9334  2.0742  2.8629
  171DOPC  C21520839   4.194   2.365   6.968  0.7072 -1.1788 -0.0471
  171DOPC  H15R20840   4.099   2.420   6.955  1.2723  0.1731  1.1890
  171DOPC  H15S20841   4.275   2.438   6.946  0.3697 -1.1346 -1.1599
  171DOPC  C21620842   4.216   2.324   7.113  0.1425  0.3374 -0.2464
  171DOPC  H16R20843   4.149   2.249   7.161  1.3896  0.3277  1.5843
  171DOPC  H16S20844   4.194   2.414   7.174 -0.0482  0.9898 -1.2521
  171DOPC  C21720845   4.355   2.298   7.159 -1.0212  0.2462 -0.4524
  171DOPC  H17R20846   4.373   2.343   7.259 -0.9955 -0.3078 -0.2090
  171DOPC  H17S20847   4.428   2.343   7.088  0.2483 -2.4663 -0.9719
  171DOPC  C21820848   4.394   2.157   7.186  0.2646 -0.2433 -0.4161
  171DOPC  H18R20849   4.394   2.095   7.094  1.6524 -0.3653 -0.3613
  171DOPC  H18S20850   4.320   2.117   7.258  0.4210  0.0857 -0.0689
  171DOPC  H18T20851   4.498   2.160   7.225  0.6674 -0.4895 -1.4337
  171DOPC   C3320852   3.681   2.341   6.063  0.1124  0.0026  0.4375
  171DOPC   H3X20853   3.786   2.333   6.096  0.9617  0.2561 -2.0008
  171DOPC   H3Y20854   3.661   2.236   6.034  0.1508  0.7665 -2.6296
  171DOPC   C3420855   3.588   2.394   6.172 -0.0314 -0.2385  0.5805
  171DOPC   H4X20856   3.482   2.398   6.139  0.2526  2.6222 -0.2736
  171DOPC   H4Y20857   3.604   2.501   6.196 -0.4130 -0.6608  2.9438
  171DOPC   C3520858   3.593   2.305   6.301  0.0164  0.3826  0.2769
  171DOPC   H5X20859   3.700   2.306   6.328 -0.2883  1.1987  1.4928
  171DOPC   H5Y20860   3.563   2.202   6.269  2.1193 -1.0153  2.4567
  171DOPC   C3620861   3.502   2.349   6.421 -0.1401 -0.6682 -0.6590
  171DOPC   H6X20862   3.533   2.447   6.462 -1.3163 -0.0664 -1.1644
  171DOPC   H6Y20863   3.395   2.359   6.392 -0.6255 -2.6738  0.2512
  171DOPC   C3720864   3.508   2.262   6.546  0.5940 -0.1130 -0.4132
  171DOPC   H7X20865   3.417   2.290   6.602 -0.1030  1.6113 -2.2837
  171DOPC   H7Y20866   3.501   2.158   6.507  1.7833 -0.7092  0.8754
  171DOPC   C3820867   3.636   2.259   6.643 -0.5053  0.3150 -1.1520
  171DOPC   H8X20868   3.656   2.368   6.642 -1.4384  0.4939 -1.6910
  171DOPC   H8Y20869   3.723   2.206   6.598 -0.5050 -1.2161  0.5578
  171DOPC   C3920870   3.610   2.205   6.783 -0.3147  0.3777  0.6011
  171DOPC   H9X20871   3.610   2.096   6.797  0.7467  0.3400  0.3509
  171DOPC  C31020872   3.602   2.284   6.888 -0.3877 -0.0522  0.4272
  171DOPC  H10X20873   3.582   2.240   6.987  0.0082  1.8324  1.3976
  171DOPC  C31120874   3.604   2.439   6.884 -0.1828  0.2213  0.7688
  171DOPC  H11X20875   3.529   2.491   6.947  0.9847  3.0855 -0.0642
  171DOPC  H11Y20876   3.590   2.471   6.779  0.7501 -1.0361  0.2384
  171DOPC  C31220877   3.742   2.501   6.912 -0.4326  0.7514 -0.4547
  171DOPC  H12X20878   3.722   2.610   6.897 -1.7813  0.4502 -0.9867
  171DOPC  H12Y20879   3.817   2.459   6.842  0.2894 -0.7143  1.1345
  171DOPC  C31320880   3.781   2.486   7.059  0.2063 -0.5948  0.1325
  171DOPC  H13X20881   3.684   2.488   7.114 -0.5507  1.0480 -1.1732
  171DOPC  H13Y20882   3.819   2.382   7.066  1.4081 -0.0495  3.3171
  171DOPC  C31420883   3.887   2.584   7.109  0.1622  0.2070  0.1498
  171DOPC  H14X20884   3.973   2.595   7.040 -0.0359  2.2148  0.1708
  171DOPC  H14Y20885   3.842   2.685   7.098 -1.7702 -0.6689 -0.4717
  171DOPC  C31520886   3.930   2.552   7.247 -0.5019 -0.4706 -0.7792
  171DOPC  H15X20887   3.952   2.446   7.272  0.7821  0.4148  2.3782
  171DOPC  H15Y20888   3.856   2.588   7.322  0.8837  0.1686  0.3319
  171DOPC  C31620889   4.062   2.637   7.277  0.2578 -0.1286 -0.7435
  171DOPC  H16X20890   4.118   2.579   7.353 -3.9352 -1.8427  1.4001
  171DOPC  H16Y20891   4.118   2.646   7.181  1.5858 -1.0803 -0.0894
  171DOPC  C31720892   4.023   2.782   7.334  0.4103  0.5543  0.1513
  171DOPC  H17X20893   3.968   2.822   7.246  0.4338 -0.8745 -0.5567
  171DOPC  H17Y20894   3.954   2.771   7.419  1.6562 -0.1293  1.1172
  171DOPC  C31820895   4.148   2.861   7.351 -0.4589  0.4667 -0.4097
  171DOPC  H18X20896   4.210   2.852   7.259  0.1426  1.4676 -0.1197
  171DOPC  H18Y20897   4.131   2.970   7.366  1.2180  0.6920  0.0800
  171DOPC  H18Z20898   4.205   2.822   7.438  2.3612  0.2604 -2.2180
  172DOPC     N20899   3.225   3.953   5.292  0.0652  0.2333 -0.2573
  172DOPC   C1220900   3.240   3.958   5.443 -0.8364  0.0116 -0.4684
  172DOPC  H12A20901   3.256   4.061   5.471 -0.8213 -0.2370  0.4717
  172DOPC  H12B20902   3.334   3.907   5.460 -0.9081  0.2081  0.5706
  172DOPC   C1320903   3.099   4.020   5.239  0.8135 -0.9009 -0.0828
  172DOPC  H13A20904   3.118   4.126   5.229 -0.8662 -0.6288 -0.7282
  172DOPC  H13B20905   3.060   3.993   5.142  1.1986  1.3621 -0.9444
  172DOPC  H13C20906   3.030   4.015   5.322 -0.1853  0.0044 -0.8323
  172DOPC   C1420907   3.225   3.812   5.243 -0.4013 -0.0512 -0.0041
  172DOPC  H14A20908   3.312   3.756   5.272 -1.2842 -1.1669  0.5882
  172DOPC  H14B20909   3.146   3.749   5.282 -0.0465  0.0836  0.9575
  172DOPC  H14C20910   3.223   3.807   5.135 -1.0438 -0.2808  0.0108
  172DOPC   C1520911   3.342   4.011   5.235 -0.4137  0.7258  0.5843
  172DOPC  H15A20912   3.351   4.009   5.127 -2.7440  4.5799  0.1372
  172DOPC  H15B20913   3.437   3.969   5.264  0.3901  0.9112 -1.5567
  172DOPC  H15C20914   3.343   4.119   5.238  3.3928  0.8289  1.7530
  172DOPC   C1120915   3.137   3.883   5.528 -0.5276 -0.0012  1.0145
  172DOPC  H11A20916   3.134   3.776   5.500 -0.5980  0.0620  0.7806
  172DOPC  H11B20917   3.166   3.895   5.635  0.4487  2.6192  0.5323
  172DOPC     P20918   2.874   3.904   5.576 -0.2559  0.2686 -0.1026
  172DOPC   O1320919   2.825   3.786   5.496 -0.0591  0.0849  0.5280
  172DOPC   O1420920   2.782   4.023   5.584 -0.1173  0.6872  0.2471
  172DOPC   O1220921   3.010   3.954   5.520 -0.3418  0.0721  0.0817
  172DOPC   O1120922   2.905   3.850   5.723 -0.4432 -0.8806 -0.1931
  172DOPC    C120923   2.931   3.949   5.822 -0.2506  0.0712  0.9352
  172DOPC    HA20924   2.834   3.981   5.865 -0.6001 -1.8050  1.6313
  172DOPC    HB20925   2.992   4.033   5.781  1.7424 -1.5685  0.3522
  172DOPC    C220926   3.016   3.876   5.938  0.2027  0.0536 -0.2566
  172DOPC    HS20927   3.115   3.843   5.900 -0.3620 -0.0236 -1.7222
  172DOPC   O2120928   2.935   3.767   5.988 -0.1500 -0.0441  0.2159
  172DOPC   C2120929   2.995   3.648   5.979  0.6504  0.0588  0.1383
  172DOPC   O2220930   3.099   3.636   5.917 -0.2317  0.2939 -0.3290
  172DOPC   C2220931   2.914   3.544   6.056 -0.3862  0.6698  0.3099
  172DOPC   H2R20932   2.892   3.462   5.985 -2.6583  1.1188  0.4434
  172DOPC   H2S20933   2.815   3.587   6.081  0.0318  0.3697  2.7448
  172DOPC    C320934   3.042   3.971   6.057 -0.2647 -0.0821  0.3188
  172DOPC    HX20935   2.942   4.013   6.081  0.2097  1.3344 -0.1275
  172DOPC    HY20936   3.107   4.047   6.010 -2.3473  0.8113 -1.3065
  172DOPC   O3120937   3.109   3.903   6.165 -0.6855 -0.0223 -0.2000
  172DOPC   C3120938   3.184   3.991   6.238  0.4248  0.4929 -0.7980
  172DOPC   O3220939   3.175   4.114   6.225 -1.3002  0.5096 -0.0874
  172DOPC   C3220940   3.266   3.923   6.347  0.6068 -0.0238  0.1638
  172DOPC   H2X20941   3.247   3.814   6.358  1.1932 -0.2925 -1.1680
  172DOPC   H2Y20942   3.369   3.926   6.304 -0.3643 -1.6848 -2.4938
  172DOPC   C2320943   2.989   3.490   6.185  0.1495  0.0481  0.3755
  172DOPC   H3R20944   3.092   3.462   6.154  0.2843  1.2330 -0.3261
  172DOPC   H3S20945   2.950   3.389   6.211  1.5763 -0.9436 -1.1661
  172DOPC   C2420946   2.988   3.579   6.308  0.4722  0.2812 -0.7626
  172DOPC   H4R20947   2.886   3.619   6.324  0.8346  0.2991  2.0566
  172DOPC   H4S20948   3.056   3.665   6.289  0.1348  0.2258 -2.3514
  172DOPC   C2520949   3.032   3.501   6.437 -0.3147 -0.2008  0.4094
  172DOPC   H5R20950   3.116   3.433   6.411  1.2299  1.3113  1.2525
  172DOPC   H5S20951   2.947   3.432   6.460 -1.9049  1.2429 -0.8981
  172DOPC   C2620952   3.052   3.593   6.563  0.1108  0.1814  0.0603
  172DOPC   H6R20953   2.965   3.662   6.569  0.1402  0.1866  0.4089
  172DOPC   H6S20954   3.145   3.653   6.551 -2.2792  4.2046 -0.4538
  172DOPC   C2720955   3.049   3.509   6.695  0.5523 -0.2063 -1.0477
  172DOPC   H7R20956   3.140   3.446   6.688  1.1882  0.6421 -0.5857
  172DOPC   H7S20957   2.959   3.444   6.691  1.5540 -1.7016 -0.3247
  172DOPC   C2820958   3.054   3.587   6.830  0.4263  0.2145 -0.6514
  172DOPC   H8R20959   3.138   3.659   6.832  0.0860  0.6500 -1.6993
  172DOPC   H8S20960   3.066   3.512   6.912  0.4416  2.2515  1.2959
  172DOPC   C2920961   2.935   3.674   6.866 -0.5709  0.0351  1.0640
  172DOPC   H9R20962   2.881   3.709   6.777  1.2118 -1.2323 -0.6102
  172DOPC  C21020963   2.900   3.710   6.988 -0.0482 -0.8357  0.5069
  172DOPC  H10R20964   2.810   3.771   6.999  0.1178 -0.7418  1.3673
  172DOPC  C21120965   2.960   3.676   7.113  0.0062  0.2491  0.4898
  172DOPC  H11R20966   3.010   3.767   7.153 -0.0033  0.1758  0.6732
  172DOPC  H11S20967   3.045   3.605   7.106  0.1126 -0.0098  3.1309
  172DOPC  C21220968   2.856   3.634   7.217 -0.0717  0.1349  0.0985
  172DOPC  H12R20969   2.816   3.534   7.190 -2.3966  0.8400  0.7009
  172DOPC  H12S20970   2.769   3.702   7.230  0.3610  0.5136  1.1372
  172DOPC  C21320971   2.928   3.615   7.353 -0.4353 -0.7456 -0.3443
  172DOPC  H13R20972   2.984   3.706   7.381 -0.3401 -0.8452 -0.2116
  172DOPC  H13S20973   3.008   3.538   7.342 -0.8989 -1.8681  3.0811
  172DOPC  C21420974   2.849   3.564   7.475  0.4379 -0.5553  0.0597
  172DOPC  H14R20975   2.778   3.486   7.440 -1.9596  1.4121  0.2567
  172DOPC  H14S20976   2.793   3.641   7.531  0.1674  0.1461 -1.1467
  172DOPC  C21520977   2.949   3.512   7.586  0.0727 -0.7933 -0.3331
  172DOPC  H15R20978   3.009   3.598   7.620 -2.3273  0.3804  1.1798
  172DOPC  H15S20979   3.023   3.441   7.542  0.5666  1.2673 -3.0955
  172DOPC  C21620980   2.864   3.446   7.695  0.3390 -0.5130 -0.4222
  172DOPC  H16R20981   2.829   3.344   7.667  0.3705 -0.5939 -0.1680
  172DOPC  H16S20982   2.774   3.510   7.705  0.5439 -0.4328  0.9722
  172DOPC  C21720983   2.935   3.443   7.829  0.2075 -0.4043  0.1978
  172DOPC  H17R20984   2.856   3.413   7.901  0.1517 -3.4206 -0.9759
  172DOPC  H17S20985   2.963   3.548   7.850 -1.0864 -0.3772  1.9989
  172DOPC  C21820986   3.051   3.343   7.833  0.0860  0.2729 -0.0016
  172DOPC  H18R20987   3.114   3.360   7.744  2.3104  0.5182  1.5283
  172DOPC  H18S20988   3.005   3.245   7.810  0.6195 -0.1568  0.7236
  172DOPC  H18T20989   3.111   3.333   7.926 -1.1366  0.6994  0.8623
  172DOPC   C3320990   3.273   3.988   6.483  0.2724 -0.5085 -0.1482
  172DOPC   H3X20991   3.270   4.099   6.472 -2.0108 -0.2771  2.0008
  172DOPC   H3Y20992   3.368   3.957   6.531 -0.3000 -1.8878  0.1236
  172DOPC   C3420993   3.156   3.949   6.567 -0.3582  0.1237 -0.0350
  172DOPC   H4X20994   3.105   3.860   6.525 -0.6909  0.4208 -0.2630
  172DOPC   H4Y20995   3.087   4.036   6.563  1.6331  2.0116  2.6796
  172DOPC   C3520996   3.192   3.918   6.712  0.7262 -0.0423 -0.3159
  172DOPC   H5X20997   3.267   3.836   6.712 -0.4952 -1.2101 -1.9129
  172DOPC   H5Y20998   3.095   3.882   6.753 -0.6414  1.2188 -2.2867
  172DOPC   C3620999   3.236   4.044   6.794 -0.2911  0.5212  0.5192
  172DOPC   H6X21000   3.339   4.078   6.775  0.0107 -0.0313  1.1068
  172DOPC   H6Y21001   3.166   4.124   6.762 -1.3191 -1.2936 -2.1614
  172DOPC   C3721002   3.235   4.016   6.941  0.1318 -0.5145 -0.1742
  172DOPC   H7X21003   3.277   4.095   7.008 -1.3711 -1.7171  2.3506
  172DOPC   H7Y21004   3.133   3.986   6.972 -0.0618  1.3352  1.1564
  172DOPC   C3821005   3.323   3.898   6.989 -0.7081  0.3940 -0.2934
  172DOPC   H8X21006   3.415   3.900   6.926  0.1823 -0.7385  0.9253
  172DOPC   H8Y21007   3.266   3.807   6.960 -0.3657  0.3781 -0.9531
  172DOPC   C3921008   3.365   3.884   7.132  0.0280  0.2992  0.3447
  172DOPC   H9X21009   3.281   3.864   7.201  1.6733  1.3052  2.7725
  172DOPC  C31021010   3.484   3.917   7.188 -0.2084  0.4499 -0.2822
  172DOPC  H10X21011   3.497   3.890   7.294 -0.8546 -4.2271 -1.1703
  172DOPC  C31121012   3.614   3.949   7.115 -0.0717 -0.4016 -0.1201
  172DOPC  H11X21013   3.618   4.055   7.083  0.5248 -0.7551 -1.2838
  172DOPC  H11Y21014   3.623   3.896   7.018 -0.9845 -2.0944  0.6730
  172DOPC  C31221015   3.742   3.930   7.198  0.2217 -0.4905  0.0388
  172DOPC  H12X21016   3.825   3.932   7.124  1.0886  0.2731  1.0030
  172DOPC  H12Y21017   3.758   3.828   7.237  0.6652 -0.5553 -0.2979
  172DOPC  C31321018   3.780   4.032   7.301 -0.2005 -0.1078 -0.2495
  172DOPC  H13X21019   3.762   4.136   7.269  2.3766  0.0016 -1.5521
  172DOPC  H13Y21020   3.725   4.013   7.396 -0.3234  0.5773 -0.1807
  172DOPC  C31421021   3.929   4.017   7.345  0.1013  0.1079  0.3999
  172DOPC  H14X21022   3.955   3.910   7.361  1.5113  0.5155  0.9912
  172DOPC  H14Y21023   3.988   4.047   7.256 -1.3914  2.3500  0.0907
  172DOPC  C31521024   3.962   4.090   7.474 -0.2797  0.7173 -0.3059
  172DOPC  H15X21025   3.923   4.040   7.566  2.8404  0.2761  0.8984
  172DOPC  H15Y21026   3.910   4.189   7.471 -1.6227  0.0276 -0.3877
  172DOPC  C31621027   4.118   4.096   7.486 -0.3261 -0.0194  0.2607
  172DOPC  H16X21028   4.161   3.994   7.484 -1.9321 -0.7366  0.5617
  172DOPC  H16Y21029   4.166   4.147   7.400 -1.4847 -0.9121 -0.9650
  172DOPC  C31721030   4.168   4.158   7.618  0.0430  0.2557 -0.4360
  172DOPC  H17X21031   4.157   4.268   7.616  0.0145  0.2466 -0.7621
  172DOPC  H17Y21032   4.115   4.117   7.707 -1.0048  0.1712 -1.0732
  172DOPC  C31821033   4.315   4.134   7.649  0.1246  0.5508  0.1336
  172DOPC  H18X21034   4.334   4.027   7.674 -3.5063 -0.4571 -0.8136
  172DOPC  H18Y21035   4.382   4.162   7.565  1.4606 -0.0596  0.9540
  172DOPC  H18Z21036   4.339   4.196   7.738 -0.6156 -1.5499  1.8853
  173DOPC     N21037   0.929   2.630   4.621 -0.1263  0.3937 -0.5855
  173DOPC   C1221038   0.994   2.540   4.723  0.1034 -0.1679  0.3861
  173DOPC  H12A21039   1.100   2.563   4.720  0.2877 -0.1126  3.6319
  173DOPC  H12B21040   1.000   2.438   4.688 -0.5366 -0.0874  0.0289
  173DOPC   C1321041   0.967   2.771   4.632  0.4341 -0.1212 -0.8078
  173DOPC  H13A21042   1.075   2.778   4.623  0.5488 -0.7818 -0.0894
  173DOPC  H13B21043   0.922   2.823   4.548  0.5767  0.1941 -0.6902
  173DOPC  H13C21044   0.938   2.812   4.727 -1.0017 -0.6233 -1.0121
  173DOPC   C1421045   0.780   2.619   4.633  0.7666 -0.3134 -0.4380
  173DOPC  H14A21046   0.752   2.688   4.712 -0.3044  0.5500 -1.5345
  173DOPC  H14B21047   0.729   2.636   4.540 -1.7574 -0.4605  0.8084
  173DOPC  H14C21048   0.741   2.526   4.672 -0.1784  0.4954  0.6671
  173DOPC   C1521049   0.954   2.581   4.482  0.5500  0.6176  0.4711
  173DOPC  H15A21050   1.055   2.596   4.448  0.8867 -0.8867  0.7303
  173DOPC  H15B21051   0.884   2.637   4.422 -0.8414 -0.4366  1.0493
  173DOPC  H15C21052   0.929   2.477   4.471 -3.1570  1.6022 -2.3743
  173DOPC   C1121053   0.951   2.548   4.872 -0.7755 -0.3931  0.0984
  173DOPC  H11A21054   0.861   2.485   4.885  0.0129 -1.4186  0.8057
  173DOPC  H11B21055   1.031   2.484   4.916  1.2020 -0.2003 -2.9203
  173DOPC     P21056   1.071   2.740   4.987 -0.2594 -0.0051 -0.0893
  173DOPC   O1321057   1.050   2.893   5.001 -0.8198 -0.1415 -0.1211
  173DOPC   O1421058   1.187   2.699   4.905 -0.2255  0.0984  0.0677
  173DOPC   O1221059   0.938   2.686   4.922 -0.5121 -0.1898 -0.4062
  173DOPC   O1121060   1.079   2.661   5.126  0.3309 -0.6574  0.8345
  173DOPC    C121061   0.968   2.603   5.204 -0.1168 -0.5176  0.1405
  173DOPC    HA21062   0.982   2.493   5.198  2.6552 -0.1749 -1.6929
  173DOPC    HB21063   0.874   2.631   5.152  0.2159 -0.0608 -0.2264
  173DOPC    C221064   0.970   2.658   5.343 -0.4189 -0.0355 -0.4993
  173DOPC    HS21065   0.951   2.767   5.342  0.7333  0.1884 -2.6811
  173DOPC   O2121066   1.099   2.625   5.398 -0.2158  0.1554  0.1952
  173DOPC   C2121067   1.152   2.724   5.469 -0.3722 -0.4712  0.6821
  173DOPC   O2221068   1.109   2.840   5.481  0.2983 -0.1333 -0.1898
  173DOPC   C2221069   1.289   2.675   5.523 -0.0589  0.2016 -0.2205
  173DOPC   H2R21070   1.367   2.684   5.445 -1.5866 -2.5327 -2.2544
  173DOPC   H2S21071   1.272   2.568   5.547 -0.3794  0.0851 -0.9375
  173DOPC    C321072   0.863   2.605   5.448  0.5071 -0.1180 -0.3894
  173DOPC    HX21073   0.876   2.498   5.476  0.1555 -0.1631 -0.3892
  173DOPC    HY21074   0.766   2.609   5.394  0.2973  0.2264  0.0136
  173DOPC   O3121075   0.850   2.673   5.573  0.0036 -1.0547 -0.0374
  173DOPC   C3121076   0.794   2.799   5.554 -0.2275 -0.3804 -0.1450
  173DOPC   O3221077   0.751   2.839   5.449 -0.4950  0.2733 -0.1624
  173DOPC   C3221078   0.814   2.882   5.687  0.0400  0.1498  0.0362
  173DOPC   H2X21079   0.916   2.926   5.687  0.9123 -1.5444  3.4544
  173DOPC   H2Y21080   0.735   2.960   5.685 -1.7342 -1.4370  2.3399
  173DOPC   C2321081   1.331   2.739   5.657 -0.1092 -0.2127 -0.0509
  173DOPC   H3R21082   1.344   2.848   5.642 -0.9776  0.0047  0.6963
  173DOPC   H3S21083   1.430   2.698   5.686  0.5186  1.3763  0.1308
  173DOPC   C2421084   1.233   2.720   5.771  0.9369  0.1948 -0.5909
  173DOPC   H4R21085   1.200   2.617   5.794  0.7194  0.7453  1.8415
  173DOPC   H4S21086   1.135   2.763   5.740  0.1601 -0.2406  1.1252
  173DOPC   C2521087   1.273   2.769   5.907  0.2711 -0.0152 -0.0418
  173DOPC   H5R21088   1.308   2.872   5.888 -2.4003  0.9643 -0.0585
  173DOPC   H5S21089   1.349   2.706   5.959 -1.1097 -0.3729  1.6087
  173DOPC   C2621090   1.147   2.765   5.996  0.2334 -0.8223  0.1049
  173DOPC   H6R21091   1.108   2.661   6.007  0.4278 -0.8213  0.8490
  173DOPC   H6S21092   1.074   2.834   5.948  0.5489  0.0439  0.8431
  173DOPC   C2721093   1.154   2.831   6.138  1.0894  0.4105  0.0209
  173DOPC   H7R21094   1.065   2.806   6.200  1.8310 -2.3360  0.0923
  173DOPC   H7S21095   1.158   2.942   6.137  0.8134  0.4346  0.6639
  173DOPC   C2821096   1.273   2.787   6.224 -0.4615  0.5596  0.1852
  173DOPC   H8R21097   1.280   2.849   6.315  0.7423  1.2929 -0.3809
  173DOPC   H8S21098   1.360   2.805   6.157 -2.4902  0.3770 -2.7183
  173DOPC   C2921099   1.264   2.649   6.279 -0.4022  0.0946 -0.5930
  173DOPC   H9R21100   1.264   2.573   6.200  0.2226 -0.7008  0.1578
  173DOPC  C21021101   1.242   2.603   6.407  0.6403 -0.5313  0.3443
  173DOPC  H10R21102   1.220   2.495   6.415  1.6923 -0.9213 -1.4414
  173DOPC  C21121103   1.221   2.681   6.535  0.1998 -0.0440  0.4276
  173DOPC  H11R21104   1.119   2.663   6.576  0.3871 -2.5236 -0.0709
  173DOPC  H11S21105   1.245   2.789   6.526 -2.1854  0.6812  1.8739
  173DOPC  C21221106   1.313   2.629   6.652 -0.8709 -0.6276  0.0768
  173DOPC  H12R21107   1.420   2.646   6.630 -1.3474  0.9505 -1.2147
  173DOPC  H12S21108   1.289   2.521   6.661 -0.2982 -0.8316 -0.6753
  173DOPC  C21321109   1.285   2.717   6.776  0.0570  0.4692  0.9653
  173DOPC  H13R21110   1.176   2.720   6.797 -0.6061 -0.2441 -1.9245
  173DOPC  H13S21111   1.315   2.819   6.743  0.3288 -0.3626 -1.5830
  173DOPC  C21421112   1.369   2.668   6.896 -0.5271  0.1371  0.3938
  173DOPC  H14R21113   1.471   2.657   6.852 -0.4729  0.2257  0.4993
  173DOPC  H14S21114   1.319   2.577   6.935 -1.4977  1.3349  2.0261
  173DOPC  C21521115   1.386   2.771   7.012 -0.0644 -0.1242  0.1750
  173DOPC  H15R21116   1.288   2.807   7.049  1.1096  1.4438  1.8924
  173DOPC  H15S21117   1.439   2.861   6.975 -1.6855  1.1254  0.7894
  173DOPC  C21621118   1.471   2.714   7.133 -0.0871 -0.8708 -0.8365
  173DOPC  H16R21119   1.494   2.801   7.198  1.3160 -0.8703 -1.2948
  173DOPC  H16S21120   1.567   2.674   7.094  0.1102  0.3613 -1.6719
  173DOPC  C21721121   1.396   2.607   7.207 -0.4361  0.0795 -0.0083
  173DOPC  H17R21122   1.350   2.540   7.131  1.6506  1.4565 -2.6487
  173DOPC  H17S21123   1.314   2.655   7.264  0.6360  1.5285  0.3686
  173DOPC  C21821124   1.490   2.540   7.317  0.4261 -1.0866 -0.0557
  173DOPC  H18R21125   1.588   2.532   7.264  0.2705 -1.4245 -0.2929
  173DOPC  H18S21126   1.463   2.433   7.330  2.7965 -2.2368 -3.1854
  173DOPC  H18T21127   1.503   2.604   7.407 -2.3041 -1.2202  0.5015
  173DOPC   C3321128   0.805   2.811   5.826  0.3095 -0.1671  0.0002
  173DOPC   H3X21129   0.840   2.883   5.904  3.2412 -0.2474 -1.1033
  173DOPC   H3Y21130   0.874   2.725   5.838 -1.0015 -1.1961  0.3227
  173DOPC   C3421131   0.660   2.765   5.844 -0.1391  0.5758 -0.0583
  173DOPC   H4X21132   0.625   2.687   5.773 -2.5150 -1.0339  2.6610
  173DOPC   H4Y21133   0.585   2.847   5.841 -1.6955 -0.8029 -0.4553
  173DOPC   C3521134   0.641   2.686   5.981  0.1611  0.6948  0.3764
  173DOPC   H5X21135   0.726   2.616   5.998  0.5119  1.2302  0.8161
  173DOPC   H5Y21136   0.543   2.633   5.981  1.0619 -1.0637 -0.0565
  173DOPC   C3621137   0.653   2.786   6.099 -0.1309  0.1909  0.1291
  173DOPC   H6X21138   0.756   2.828   6.093 -0.4691  1.0721  0.3268
  173DOPC   H6Y21139   0.596   2.879   6.077  1.4122  1.0836 -0.2895
  173DOPC   C3721140   0.619   2.725   6.232  0.0855 -0.1583 -0.4369
  173DOPC   H7X21141   0.546   2.642   6.220 -0.2293 -0.4346  2.5410
  173DOPC   H7Y21142   0.710   2.683   6.279  0.8646  0.6964 -1.1474
  173DOPC   C3821143   0.547   2.827   6.331  0.2129  0.3898 -0.3860
  173DOPC   H8X21144   0.491   2.764   6.404  0.0491 -1.3929 -1.9636
  173DOPC   H8Y21145   0.455   2.876   6.293 -0.6282  0.2240  1.3140
  173DOPC   C3921146   0.633   2.921   6.409  0.0379 -0.2807  1.1028
  173DOPC   H9X21147   0.692   2.875   6.490  2.0176  1.7336  0.9111
  173DOPC  C31021148   0.643   3.050   6.387 -0.4153  0.7486  0.7383
  173DOPC  H10X21149   0.722   3.096   6.448 -0.4171 -1.0441  2.1936
  173DOPC  C31121150   0.577   3.130   6.272 -0.1057 -0.0348  0.4954
  173DOPC  H11X21151   0.517   3.075   6.196  0.9126  0.7800 -0.9649
  173DOPC  H11Y21152   0.663   3.165   6.211  0.1876 -2.1036 -0.3850
  173DOPC  C31221153   0.499   3.250   6.338  0.2547  0.3174  0.5188
  173DOPC  H12X21154   0.554   3.287   6.427  0.3158  1.2800  0.0976
  173DOPC  H12Y21155   0.398   3.222   6.372  0.8244 -1.3040  0.9686
  173DOPC  C31321156   0.485   3.373   6.237 -0.0824  0.3249  0.7350
  173DOPC  H13X21157   0.449   3.461   6.296  1.5780 -0.7376  3.4947
  173DOPC  H13Y21158   0.584   3.407   6.200  0.7653 -2.9141 -0.3167
  173DOPC  C31421159   0.390   3.352   6.116  0.1942  0.4508 -0.2615
  173DOPC  H14X21160   0.430   3.264   6.061  1.6329  0.3670  0.8752
  173DOPC  H14Y21161   0.293   3.319   6.159  0.0547  0.0960 -0.8310
  173DOPC  C31521162   0.365   3.467   6.019 -0.5492  0.7605 -0.3421
  173DOPC  H15X21163   0.351   3.561   6.076 -0.3000  1.0153 -0.6969
  173DOPC  H15Y21164   0.271   3.460   5.961 -0.8353  0.6246  0.1344
  173DOPC  C31621165   0.490   3.483   5.927 -0.7725  0.0361 -0.2191
  173DOPC  H16X21166   0.583   3.488   5.987 -0.5255 -0.3098 -0.5651
  173DOPC  H16Y21167   0.497   3.389   5.868 -2.0109  0.1728 -0.6169
  173DOPC  C31721168   0.487   3.609   5.846 -1.0017  0.6542  0.4312
  173DOPC  H17X21169   0.498   3.689   5.923  4.2937 -1.0743  1.8950
  173DOPC  H17Y21170   0.576   3.618   5.780  0.4603  0.2152  2.2478
  173DOPC  C31821171   0.353   3.624   5.766 -0.0222 -0.0839  0.1787
  173DOPC  H18X21172   0.369   3.720   5.712 -0.3710  0.5804  1.2234
  173DOPC  H18Y21173   0.331   3.535   5.703  0.4581  0.4111 -0.7078
  173DOPC  H18Z21174   0.265   3.634   5.834  1.1675  0.9424  1.6417
  174DOPC     N21175   4.202   2.782   4.564 -0.1802 -0.4143 -0.9260
  174DOPC   C1221176   4.319   2.813   4.648 -0.3840 -0.5352  0.1566
  174DOPC  H12A21177   4.333   2.739   4.725 -1.0337 -1.1826 -0.3320
  174DOPC  H12B21178   4.303   2.904   4.703 -0.5765  0.2617 -1.1557
  174DOPC   C1321179   4.228   2.657   4.491 -0.0867  0.2666 -0.1177
  174DOPC  H13A21180   4.273   2.665   4.394  0.0963  1.3041  0.0418
  174DOPC  H13B21181   4.272   2.579   4.552 -0.2350  0.2840  0.0121
  174DOPC  H13C21182   4.134   2.610   4.464  0.1073 -0.7695  0.9196
  174DOPC   C1421183   4.160   2.892   4.479 -0.2338  0.3811  0.3207
  174DOPC  H14A21184   4.242   2.910   4.412  1.9933 -1.9614  2.2035
  174DOPC  H14B21185   4.070   2.883   4.419  0.7724 -0.5053 -1.0959
  174DOPC  H14C21186   4.147   2.986   4.531  1.0346 -0.2239  1.8335
  174DOPC   C1521187   4.089   2.764   4.660 -0.4811  0.0022  0.4050
  174DOPC  H15A21188   3.996   2.752   4.606 -1.3832 -0.1842  1.9324
  174DOPC  H15B21189   4.082   2.849   4.726 -0.0119  1.4839 -1.3634
  174DOPC  H15C21190   4.104   2.676   4.721  2.3353 -1.0661 -1.6091
  174DOPC   C1121191   4.465   2.828   4.587  0.3424 -0.2609  0.4181
  174DOPC  H11A21192   4.492   2.730   4.542  1.1727  0.8063 -1.5231
  174DOPC  H11B21193   4.482   2.899   4.503  0.6261  2.5828  2.7442
  174DOPC     P21194   4.621   2.741   4.784  0.2804 -0.0488  0.5366
  174DOPC   O1321195   4.677   2.810   4.899  0.2945  0.3218  0.2831
  174DOPC   O1421196   4.716   2.667   4.694 -0.2989 -0.2497 -0.3292
  174DOPC   O1221197   4.550   2.859   4.695 -0.1695  0.4287 -0.1250
  174DOPC   O1121198   4.499   2.644   4.816  0.0681  0.6055  0.5515
  174DOPC    C121199   4.407   2.660   4.932  0.0252 -0.2143  0.0478
  174DOPC    HA21200   4.316   2.603   4.903  2.2796 -2.8614 -2.5522
  174DOPC    HB21201   4.383   2.767   4.948 -1.0874 -0.0445 -2.2593
  174DOPC    C221202   4.467   2.586   5.056 -0.4876 -0.2084 -0.0312
  174DOPC    HS21203   4.381   2.540   5.109  0.0795 -0.0969  0.9887
  174DOPC   O2121204   4.548   2.660   5.144  0.5570 -0.3466 -0.6304
  174DOPC   C2121205   4.487   2.750   5.221  0.4813 -0.0595  0.8477
  174DOPC   O2221206   4.369   2.755   5.238 -0.1081 -0.4179  0.3626
  174DOPC   C2221207   4.591   2.839   5.288  0.5634  0.3566 -0.3674
  174DOPC   H2R21208   4.536   2.926   5.330  0.5983 -0.5618  1.7014
  174DOPC   H2S21209   4.654   2.868   5.201  0.5346  1.3521 -0.0644
  174DOPC    C321210   4.548   2.459   5.021 -0.0915  0.2184  0.2867
  174DOPC    HX21211   4.630   2.497   4.955 -0.4813  1.4564  0.4870
  174DOPC    HY21212   4.484   2.389   4.964  0.1251  1.0696 -1.0606
  174DOPC   O3121213   4.616   2.395   5.135  0.1422  0.5441 -0.1863
  174DOPC   C3121214   4.538   2.347   5.230  0.4737 -0.9413  0.2292
  174DOPC   O3221215   4.420   2.322   5.215  0.3590 -0.0764 -0.0051
  174DOPC   C3221216   4.610   2.325   5.360 -0.4613 -0.1174  0.5562
  174DOPC   H2X21217   4.655   2.225   5.344 -0.3276  0.0937 -0.4904
  174DOPC   H2Y21218   4.683   2.408   5.367 -0.8134  0.0360  3.7544
  174DOPC   C2321219   4.675   2.758   5.390  0.7361 -0.3542 -0.7772
  174DOPC   H3R21220   4.753   2.825   5.431  0.5272 -0.9437  0.6640
  174DOPC   H3S21221   4.732   2.673   5.346  0.4934 -0.7412 -0.3678
  174DOPC   C2421222   4.597   2.701   5.507  0.2324  0.3577  0.7403
  174DOPC   H4R21223   4.516   2.628   5.483 -0.9121  1.3611  1.4363
  174DOPC   H4S21224   4.536   2.780   5.557  1.4690  1.6075  0.3348
  174DOPC   C2521225   4.685   2.630   5.616  0.1731  0.6154 -0.3895
  174DOPC   H5R21226   4.781   2.686   5.624 -0.2417  1.5535 -1.6316
  174DOPC   H5S21227   4.712   2.536   5.563 -3.1367 -1.0707  0.6833
  174DOPC   C2621228   4.620   2.607   5.746  0.6012  0.2954  0.2685
  174DOPC   H6R21229   4.694   2.551   5.807 -0.3344 -1.4032 -0.0915
  174DOPC   H6S21230   4.529   2.544   5.731  0.9464 -0.0606 -0.4126
  174DOPC   C2721231   4.608   2.732   5.835 -0.5433  0.0175  0.6784
  174DOPC   H7R21232   4.518   2.788   5.800 -0.7254 -0.8476 -0.2908
  174DOPC   H7S21233   4.695   2.800   5.829  0.4033 -0.7811  3.5975
  174DOPC   C2821234   4.597   2.696   5.983 -0.4412 -0.4322 -0.2660
  174DOPC   H8R21235   4.585   2.788   6.044 -0.6011 -0.8121  0.2843
  174DOPC   H8S21236   4.695   2.651   6.012 -0.1315  0.7157  0.5354
  174DOPC   C2921237   4.482   2.603   6.016  0.3656  0.7978 -0.3267
  174DOPC   H9R21238   4.418   2.567   5.934  0.6085 -0.9457  0.2231
  174DOPC  C21021239   4.465   2.549   6.138 -0.4963  0.1017 -0.9784
  174DOPC  H10R21240   4.379   2.482   6.157  0.2636 -0.2232  1.7132
  174DOPC  C21121241   4.556   2.562   6.254  0.8923  0.0662 -0.4366
  174DOPC  H11R21242   4.634   2.642   6.248  0.8494  0.2919  1.4846
  174DOPC  H11S21243   4.610   2.465   6.255 -0.6756 -0.8354 -0.3961
  174DOPC  C21221244   4.492   2.582   6.391 -0.0896  0.6505 -0.5735
  174DOPC  H12R21245   4.411   2.506   6.409  1.6152 -0.9812  0.6662
  174DOPC  H12S21246   4.449   2.682   6.411  1.7051  0.8588  3.0116
  174DOPC  C21321247   4.599   2.575   6.505 -0.1389 -0.3198  0.5406
  174DOPC  H13R21248   4.673   2.656   6.489 -1.1767  0.5412 -0.0199
  174DOPC  H13S21249   4.653   2.480   6.487 -2.6458 -1.8140  0.3621
  174DOPC  C21421250   4.547   2.562   6.647 -0.4899 -0.6630  0.1265
  174DOPC  H14R21251   4.619   2.539   6.729  0.7471 -2.0348 -1.2678
  174DOPC  H14S21252   4.483   2.471   6.653  1.0942 -1.7806  0.7095
  174DOPC  C21521253   4.472   2.691   6.687 -0.4744 -0.0414  0.8351
  174DOPC  H15R21254   4.479   2.772   6.611 -1.6846  0.1471  0.9112
  174DOPC  H15S21255   4.530   2.735   6.771  1.1420  1.2911 -0.8881
  174DOPC  C21621256   4.318   2.661   6.712  0.1811  0.2275  0.1004
  174DOPC  H16R21257   4.299   2.561   6.757 -2.3253  0.0144 -1.2823
  174DOPC  H16S21258   4.274   2.659   6.610  2.6096  3.8169 -1.2145
  174DOPC  C21721259   4.251   2.776   6.798 -0.2944 -0.0149 -0.0260
  174DOPC  H17R21260   4.256   2.864   6.731 -1.4087  0.3710  0.3716
  174DOPC  H17S21261   4.311   2.789   6.891 -0.3225  0.1802 -0.0348
  174DOPC  C21821262   4.105   2.763   6.838  0.1411 -0.2322  0.1212
  174DOPC  H18R21263   4.059   2.862   6.854 -0.9014 -0.7302  0.2671
  174DOPC  H18S21264   4.093   2.709   6.935  2.9887 -2.1487 -0.4434
  174DOPC  H18T21265   4.048   2.709   6.760 -0.9721  1.5226 -0.3058
  174DOPC   C3321266   4.519   2.314   5.486 -0.4365 -0.2066 -0.0505
  174DOPC   H3X21267   4.444   2.234   5.467  0.1038 -0.5175 -0.8969
  174DOPC   H3Y21268   4.466   2.407   5.516  0.5561 -0.1901  1.8167
  174DOPC   C3421269   4.609   2.263   5.605 -0.2300  0.5946  0.0911
  174DOPC   H4X21270   4.682   2.342   5.631 -0.1871  0.9926 -1.1584
  174DOPC   H4Y21271   4.662   2.175   5.562 -2.1826 -0.7385  0.3089
  174DOPC   C3521272   4.515   2.226   5.721 -0.1262  0.4286  0.7692
  174DOPC   H5X21273   4.452   2.139   5.692  1.4549 -1.2449  2.0386
  174DOPC   H5Y21274   4.456   2.313   5.758 -0.0225  1.2947 -1.0208
  174DOPC   C3621275   4.587   2.170   5.847  0.4780 -1.1152  0.1213
  174DOPC   H6X21276   4.610   2.064   5.822  1.4257 -0.8155 -0.3495
  174DOPC   H6Y21277   4.687   2.214   5.870  0.9373 -1.8947 -0.3157
  174DOPC   C3721278   4.495   2.170   5.969 -0.0325 -0.1899  0.8182
  174DOPC   H7X21279   4.452   2.267   5.999  0.1836 -0.2270  1.2500
  174DOPC   H7Y21280   4.410   2.105   5.937 -0.2077  0.0899  0.7180
  174DOPC   C3821281   4.554   2.083   6.083 -0.7855 -0.8041 -0.9855
  174DOPC   H8X21282   4.574   1.982   6.041  0.0337 -1.1735  0.2285
  174DOPC   H8Y21283   4.468   2.078   6.153 -0.4863  3.1217 -0.0851
  174DOPC   C3921284   4.672   2.150   6.146 -0.0119 -0.3768 -0.8568
  174DOPC   H9X21285   4.755   2.165   6.075  0.7309  2.5666  0.4926
  174DOPC  C31021286   4.681   2.198   6.272 -0.1282 -0.0618 -0.0564
  174DOPC  H10X21287   4.772   2.253   6.300 -0.0162 -0.2270 -0.0945
  174DOPC  C31121288   4.576   2.182   6.385 -0.3174 -0.2809  0.1818
  174DOPC  H11X21289   4.513   2.092   6.366  0.9731 -1.6052  1.8494
  174DOPC  H11Y21290   4.502   2.265   6.391 -0.4797 -0.4228  0.1783
  174DOPC  C31221291   4.645   2.170   6.526 -0.4503  0.4829  0.4685
  174DOPC  H12X21292   4.705   2.263   6.541  1.3128 -0.7969  1.7366
  174DOPC  H12Y21293   4.713   2.082   6.526  0.3827  0.8979 -3.7238
  174DOPC  C31321294   4.537   2.160   6.638 -0.4180  0.1399  0.2476
  174DOPC  H13X21295   4.472   2.250   6.647 -1.5527 -0.8250  2.3803
  174DOPC  H13Y21296   4.466   2.081   6.606  1.3267 -2.3286  2.0636
  174DOPC  C31421297   4.596   2.121   6.771  0.6156  0.2843  0.3172
  174DOPC  H14X21298   4.513   2.113   6.845 -0.2024  2.5967 -0.2835
  174DOPC  H14Y21299   4.647   2.023   6.754  2.2967  1.0103  0.9804
  174DOPC  C31521300   4.697   2.218   6.837  0.1394  0.1752 -0.0127
  174DOPC  H15X21301   4.651   2.318   6.849  0.0057 -0.0658  1.7910
  174DOPC  H15Y21302   4.784   2.228   6.769  0.0138  0.0042 -0.2021
  174DOPC  C31621303   4.754   2.172   6.974  0.4093  0.7324 -0.5011
  174DOPC  H16X21304   4.668   2.154   7.042  1.1177 -2.2454 -0.2857
  174DOPC  H16Y21305   4.798   2.072   6.955 -2.0212 -0.4023 -0.5445
  174DOPC  C31721306   4.844   2.263   7.050 -0.4971 -0.2668  0.7760
  174DOPC  H17X21307   4.945   2.279   7.005 -1.3652 -0.1763 -1.2813
  174DOPC  H17Y21308   4.781   2.353   7.061 -2.0493 -1.3921  1.4390
  174DOPC  C31821309   4.865   2.215   7.194  0.2318 -0.3676 -0.0187
  174DOPC  H18X21310   4.933   2.278   7.254  2.3526 -3.3574  0.9344
  174DOPC  H18Y21311   4.767   2.219   7.245  0.7211  0.4488  0.8783
  174DOPC  H18Z21312   4.920   2.120   7.214  0.7556  0.0176  0.3734
  175DOPC     N21313   3.073   5.659   5.388  0.1098  0.1246  0.2295
  175DOPC   C1221314   3.080   5.693   5.532  0.0605  0.0850 -0.2427
  175DOPC  H12A21315   3.045   5.795   5.535 -0.2383  0.0692 -1.9607
  175DOPC  H12B21316   3.184   5.701   5.562  0.1428 -0.7896 -0.2472
  175DOPC   C1321317   3.138   5.763   5.296  0.1046 -0.3118 -0.0188
  175DOPC  H13A21318   3.083   5.855   5.300 -0.9057 -0.8613  4.1979
  175DOPC  H13B21319   3.237   5.788   5.332  0.4761  1.0183 -1.8696
  175DOPC  H13C21320   3.147   5.726   5.195 -0.4086  1.5589 -0.7707
  175DOPC   C1421321   2.929   5.646   5.348  0.4490 -0.6209  1.0467
  175DOPC  H14A21322   2.872   5.738   5.353  0.4550 -0.5146 -0.3442
  175DOPC  H14B21323   2.930   5.607   5.247  2.8918 -0.2718  0.8964
  175DOPC  H14C21324   2.871   5.584   5.415 -1.6190  0.0656  0.0030
  175DOPC   C1521325   3.128   5.520   5.372  0.6828 -0.4356  0.7838
  175DOPC  H15A21326   3.083   5.486   5.280  1.2400  0.5282  0.1256
  175DOPC  H15B21327   3.098   5.451   5.449 -1.2608 -0.4764  0.0451
  175DOPC  H15C21328   3.233   5.512   5.349  0.3809  0.2592 -1.0804
  175DOPC   C1121329   3.013   5.600   5.637 -0.7345  0.1854  0.2011
  175DOPC  H11A21330   3.023   5.651   5.735  2.2325  1.9246 -0.8491
  175DOPC  H11B21331   2.904   5.607   5.616 -0.9430  2.1027  1.6386
  175DOPC     P21332   3.182   5.433   5.734 -0.1408 -0.0121 -0.3337
  175DOPC   O1321333   3.287   5.538   5.731 -0.2603 -0.1474  0.8235
  175DOPC   O1421334   3.226   5.300   5.693  0.0813 -0.0097 -0.5688
  175DOPC   O1221335   3.062   5.468   5.639 -0.5405  0.0988  1.0357
  175DOPC   O1121336   3.125   5.426   5.885 -0.1540  0.1570  0.1984
  175DOPC    C121337   3.007   5.344   5.903 -0.1923 -0.6736 -0.1013
  175DOPC    HA21338   3.027   5.236   5.887  0.7187 -0.8710  2.0550
  175DOPC    HB21339   2.918   5.385   5.850  1.2080  1.4005 -0.9539
  175DOPC    C221340   2.972   5.344   6.054 -0.0571 -0.6498 -0.0810
  175DOPC    HS21341   3.049   5.282   6.105  1.1932  1.3265  0.5451
  175DOPC   O2121342   2.842   5.284   6.070 -0.0197 -0.5042 -0.1100
  175DOPC   C2121343   2.831   5.163   6.120 -0.2760 -0.6022  0.2779
  175DOPC   O2221344   2.922   5.081   6.123 -0.1121 -0.1955 -0.4293
  175DOPC   C2221345   2.693   5.153   6.176  0.0970  0.0203  0.6235
  175DOPC   H2R21346   2.636   5.155   6.081  4.5660  0.8758 -2.3822
  175DOPC   H2S21347   2.676   5.245   6.237  0.6201 -0.8719  2.1703
  175DOPC    C321348   2.982   5.481   6.119  0.3192  0.9603  0.0403
  175DOPC    HX21349   2.916   5.558   6.072  0.6429  0.5768 -1.0896
  175DOPC    HY21350   3.082   5.529   6.111  0.5922  0.7838  2.0211
  175DOPC   O3121351   2.934   5.474   6.252 -0.6402  0.2149 -0.1730
  175DOPC   C3121352   3.033   5.464   6.348  0.4329  0.6473 -0.5799
  175DOPC   O3221353   3.154   5.464   6.328  0.0290  0.3294  0.6788
  175DOPC   C3221354   2.970   5.443   6.483 -0.6667 -0.1630  0.0344
  175DOPC   H2X21355   2.891   5.520   6.495 -1.7439 -1.2547  0.1621
  175DOPC   H2Y21356   2.907   5.351   6.482 -2.3427  0.9220  1.2880
  175DOPC   C2321357   2.666   5.016   6.238  0.8047  0.4035 -0.4787
  175DOPC   H3R21358   2.725   4.936   6.188 -1.6229 -2.3195  0.6687
  175DOPC   H3S21359   2.558   4.989   6.240  1.5561 -3.0911  1.0926
  175DOPC   C2421360   2.711   5.014   6.385 -0.0110 -0.1551  0.1799
  175DOPC   H4R21361   2.813   5.057   6.390 -0.0040  0.0503 -1.2164
  175DOPC   H4S21362   2.714   4.910   6.422 -1.0433  0.2547  1.4865
  175DOPC   C2521363   2.624   5.101   6.469 -0.0737 -0.4601 -0.2882
  175DOPC   H5R21364   2.516   5.088   6.446 -0.2983  3.5027 -2.3303
  175DOPC   H5S21365   2.651   5.208   6.461  0.4090 -0.2318  3.0176
  175DOPC   C2621366   2.642   5.070   6.616  0.0646  1.1275  0.2731
  175DOPC   H6R21367   2.739   5.117   6.643  0.2822  1.6706 -1.3203
  175DOPC   H6S21368   2.627   4.963   6.642  1.5066 -0.0879 -3.2750
  175DOPC   C2721369   2.545   5.153   6.703 -0.1796  0.5669 -0.5448
  175DOPC   H7R21370   2.456   5.090   6.721  0.4610 -0.3883 -0.6197
  175DOPC   H7S21371   2.513   5.248   6.654 -1.0668 -0.2919 -1.6920
  175DOPC   C2821372   2.610   5.198   6.838 -0.0467  0.1872 -0.2653
  175DOPC   H8R21373   2.685   5.276   6.815 -0.3321  1.0601  1.5632
  175DOPC   H8S21374   2.658   5.110   6.886  0.2214 -0.2992 -1.4060
  175DOPC   C2921375   2.501   5.252   6.935  0.2282  0.3423 -0.2052
  175DOPC   H9R21376   2.419   5.307   6.887  0.6589  0.7131 -0.5251
  175DOPC  C21021377   2.500   5.241   7.066 -0.5420  0.4399 -0.4647
  175DOPC  H10R21378   2.432   5.297   7.133 -0.5599  1.1030 -1.0292
  175DOPC  C21121379   2.611   5.173   7.137 -0.5850  0.0925 -0.7038
  175DOPC  H11R21380   2.633   5.071   7.101  2.7264 -0.5601  2.6225
  175DOPC  H11S21381   2.583   5.156   7.243  0.0384  0.3381 -0.4983
  175DOPC  C21221382   2.744   5.257   7.140  0.3640  0.4200  0.1624
  175DOPC  H12R21383   2.778   5.300   7.043 -1.4919  2.6250  0.4320
  175DOPC  H12S21384   2.825   5.186   7.170  0.1793  0.2339  0.2181
  175DOPC  C21321385   2.736   5.378   7.230  0.1202  0.0867  0.2733
  175DOPC  H13R21386   2.744   5.336   7.333  1.1956  2.1237  1.0759
  175DOPC  H13S21387   2.641   5.435   7.228 -0.7482 -1.1468  2.3308
  175DOPC  C21421388   2.852   5.471   7.217  0.0140 -0.5106 -0.3890
  175DOPC  H14R21389   2.840   5.518   7.117  1.3365  0.2660 -0.2105
  175DOPC  H14S21390   2.951   5.423   7.201  1.0988  1.8975 -1.5774
  175DOPC  C21521391   2.873   5.562   7.336 -0.0472  0.3179 -0.1816
  175DOPC  H15R21392   2.913   5.497   7.417 -1.8695 -1.7534 -0.8437
  175DOPC  H15S21393   2.775   5.598   7.373 -0.5466  0.8164 -1.8964
  175DOPC  C21621394   2.968   5.678   7.311 -0.2612 -0.0804 -0.4085
  175DOPC  H16R21395   2.963   5.753   7.393  0.7242  1.7992 -1.9752
  175DOPC  H16S21396   2.936   5.733   7.219 -0.5112 -1.5662 -1.2381
  175DOPC  C21721397   3.114   5.628   7.303  0.1988  0.1108  0.2401
  175DOPC  H17R21398   3.134   5.566   7.213  0.5660  1.2573 -0.4889
  175DOPC  H17S21399   3.134   5.551   7.381  1.3099  0.6663  0.5317
  175DOPC  C21821400   3.228   5.720   7.298 -0.1731 -0.2084  0.2741
  175DOPC  H18R21401   3.327   5.670   7.298  0.6776  1.2726 -1.9762
  175DOPC  H18S21402   3.224   5.794   7.380 -0.6657  1.2240 -0.9861
  175DOPC  H18T21403   3.216   5.779   7.204 -1.2288 -0.0840  0.4662
  175DOPC   C3321404   3.077   5.449   6.600  0.3822  0.3922  0.5739
  175DOPC   H3X21405   3.130   5.546   6.610 -0.0877  0.7471 -0.2287
  175DOPC   H3Y21406   3.162   5.381   6.576  1.0538  0.1762  3.2664
  175DOPC   C3421407   3.012   5.417   6.734  0.1464  0.5055 -0.3668
  175DOPC   H4X21408   2.997   5.307   6.735  1.1092  0.3526 -0.9068
  175DOPC   H4Y21409   2.913   5.464   6.749 -0.8170 -1.8119  0.9794
  175DOPC   C3521410   3.106   5.458   6.849 -0.3626 -0.3084 -0.0793
  175DOPC   H5X21411   3.079   5.421   6.950 -0.2789  1.7865  0.7553
  175DOPC   H5Y21412   3.103   5.568   6.859 -1.9153 -0.3611  0.2878
  175DOPC   C3621413   3.249   5.404   6.824  0.1350 -0.6843 -0.1977
  175DOPC   H6X21414   3.232   5.295   6.811 -0.2821 -0.6363 -0.0912
  175DOPC   H6Y21415   3.306   5.446   6.738 -0.7118  0.9414 -0.0061
  175DOPC   C3721416   3.333   5.415   6.952  0.6133 -0.0612 -0.2599
  175DOPC   H7X21417   3.328   5.521   6.986 -0.8434 -0.8320  2.1600
  175DOPC   H7Y21418   3.273   5.355   7.024 -0.2079 -0.2306 -1.0636
  175DOPC   C3821419   3.474   5.355   6.959 -0.5554 -1.1583  0.5743
  175DOPC   H8X21420   3.465   5.249   6.928 -1.3546 -1.4116  1.6319
  175DOPC   H8Y21421   3.511   5.358   7.064  2.4903  1.1804 -0.3917
  175DOPC   C3921422   3.579   5.421   6.870 -0.1714  0.1018 -0.2706
  175DOPC   H9X21423   3.592   5.526   6.900  0.6245 -0.9716  3.7776
  175DOPC  C31021424   3.631   5.369   6.757  0.1057  0.1474 -0.6001
  175DOPC  H10X21425   3.718   5.418   6.710  1.5043 -1.1514  0.5401
  175DOPC  C31121426   3.601   5.237   6.697  0.1588 -0.0122  0.5062
  175DOPC  H11X21427   3.612   5.258   6.588  1.1777 -2.0100  0.1845
  175DOPC  H11Y21428   3.500   5.195   6.717  0.5899 -0.4668  1.8158
  175DOPC  C31221429   3.711   5.137   6.721  0.0992  0.6297  0.0865
  175DOPC  H12X21430   3.815   5.172   6.702  1.4207 -2.0685  1.7853
  175DOPC  H12Y21431   3.694   5.051   6.653 -0.8717  1.5699 -0.9009
  175DOPC  C31321432   3.718   5.088   6.865 -0.4139 -0.3039  0.7525
  175DOPC  H13X21433   3.697   5.168   6.940  0.1788  1.1036 -0.5464
  175DOPC  H13Y21434   3.639   5.014   6.889 -0.3018 -0.4628  0.6281
  175DOPC  C31421435   3.857   5.023   6.907  0.3546 -0.1700  1.0789
  175DOPC  H14X21436   3.848   4.915   6.885 -1.5363  0.4122 -1.3942
  175DOPC  H14Y21437   3.950   5.065   6.863 -0.2502 -0.3592 -0.4332
  175DOPC  C31521438   3.884   5.030   7.055  0.3287 -0.9416 -0.1049
  175DOPC  H15X21439   3.949   4.944   7.078  0.4123 -1.0703 -0.7914
  175DOPC  H15Y21440   3.797   5.025   7.124  1.3702  1.8684  1.6035
  175DOPC  C31621441   3.955   5.158   7.096  0.3491  0.1361  0.6372
  175DOPC  H16X21442   4.059   5.154   7.058  1.7900  0.8637  4.0606
  175DOPC  H16Y21443   3.915   5.253   7.055  0.5985  0.4072  1.0172
  175DOPC  C31721444   3.990   5.165   7.243  0.2899 -0.2815 -0.5256
  175DOPC  H17X21445   4.019   5.266   7.277 -1.0268 -0.2092  0.5033
  175DOPC  H17Y21446   3.897   5.153   7.304  1.2961 -3.5365  0.5971
  175DOPC  C31821447   4.098   5.064   7.283 -0.1477  0.3463  0.3979
  175DOPC  H18X21448   4.195   5.095   7.238  0.5454 -0.2774  1.4283
  175DOPC  H18Y21449   4.112   5.060   7.393  2.6815  0.3836  0.1129
  175DOPC  H18Z21450   4.071   4.963   7.244  3.3449  0.1299 -2.0074
  176DOPC     N21451   3.027   2.121   5.076 -0.3473  0.0749  0.4439
  176DOPC   C1221452   2.968   1.978   5.095  0.2998  0.0626 -0.1194
  176DOPC  H12A21453   3.045   1.918   5.142 -1.4947 -1.6337  0.7939
  176DOPC  H12B21454   2.969   1.936   4.995  1.3718 -2.0143  0.6834
  176DOPC   C1321455   3.075   2.181   5.209  0.6124 -0.2698 -0.0464
  176DOPC  H13A21456   2.996   2.172   5.281 -0.4738 -0.4253 -1.2115
  176DOPC  H13B21457   3.143   2.113   5.258  1.0010 -1.6758 -2.3525
  176DOPC  H13C21458   3.123   2.277   5.199  0.7997 -0.4779 -1.4559
  176DOPC   C1421459   2.925   2.202   5.012 -0.7144  0.0829  1.0266
  176DOPC  H14A21460   2.837   2.220   5.071 -0.5861  1.0382  0.9436
  176DOPC  H14B21461   2.962   2.301   4.989 -0.0946 -0.1606  0.9464
  176DOPC  H14C21462   2.892   2.148   4.925 -0.3880  1.0309  0.2931
  176DOPC   C1521463   3.147   2.127   4.984  0.6372  0.3277  0.4533
  176DOPC  H15A21464   3.122   2.091   4.885 -3.0128  0.6993  1.0914
  176DOPC  H15B21465   3.235   2.073   5.017  3.0530  2.2527 -2.3494
  176DOPC  H15C21466   3.171   2.232   4.972  0.7360  0.3595  0.8953
  176DOPC   C1121467   2.837   1.957   5.172  0.2908  0.0804 -0.3767
  176DOPC  H11A21468   2.834   1.848   5.189  0.3976  0.2135  0.5131
  176DOPC  H11B21469   2.853   2.016   5.264  0.2316 -1.2452  0.5034
  176DOPC     P21470   2.596   2.056   5.172  0.1755  0.0387  0.3769
  176DOPC   O1321471   2.479   2.008   5.089 -0.0713 -0.5264 -0.2047
  176DOPC   O1421472   2.618   2.204   5.177 -0.0037  0.2998 -0.1153
  176DOPC   O1221473   2.718   1.986   5.094 -0.5253 -0.9656  0.1542
  176DOPC   O1121474   2.607   1.996   5.312  0.3188  0.0546 -0.3395
  176DOPC    C121475   2.568   1.862   5.329 -0.0743  0.3929 -0.3556
  176DOPC    HA21476   2.636   1.818   5.405  1.2493  1.9785 -0.5422
  176DOPC    HB21477   2.577   1.798   5.238 -3.7383 -2.3535  0.9878
  176DOPC    C221478   2.424   1.856   5.389  0.3331 -0.0088  0.3304
  176DOPC    HS21479   2.358   1.853   5.299  0.5157  0.1260  0.1893
  176DOPC   O2121480   2.387   1.975   5.461 -0.1336  0.1793  0.2030
  176DOPC   C2121481   2.250   1.982   5.475 -0.4657 -1.2180 -0.3295
  176DOPC   O2221482   2.166   1.912   5.422  0.0780 -0.3096  0.4784
  176DOPC   C2221483   2.220   2.103   5.568  0.2351  0.7261 -0.5277
  176DOPC   H2R21484   2.240   2.194   5.508  0.9093  0.5825 -0.5283
  176DOPC   H2S21485   2.288   2.087   5.655 -0.3055  2.3162  0.2355
  176DOPC    C321486   2.388   1.726   5.459 -0.3012  0.6182 -0.2401
  176DOPC    HX21487   2.402   1.642   5.388  2.0942  0.1890  0.6367
  176DOPC    HY21488   2.280   1.726   5.483  0.0023  1.8131  1.3354
  176DOPC   O3121489   2.472   1.704   5.577  0.0960 -0.1871 -0.0319
  176DOPC   C3121490   2.451   1.761   5.695 -0.6416  0.6616  0.1576
  176DOPC   O3221491   2.388   1.861   5.713  0.5237  0.0779 -0.1705
  176DOPC   C3221492   2.548   1.694   5.791  0.1660 -0.0758  0.1342
  176DOPC   H2X21493   2.649   1.697   5.745  0.0049  1.7365 -0.1559
  176DOPC   H2Y21494   2.561   1.760   5.879  0.4914  0.8426 -0.5999
  176DOPC   C2321495   2.075   2.107   5.617  0.2859  0.1053 -0.5868
  176DOPC   H3R21496   2.049   2.005   5.654  1.5198 -0.6112 -1.6597
  176DOPC   H3S21497   1.999   2.119   5.537  0.1121 -3.1523 -1.0445
  176DOPC   C2421498   2.069   2.192   5.743  0.2494 -0.3447 -0.6740
  176DOPC   H4R21499   2.073   2.303   5.736 -0.4496 -0.0078  2.5494
  176DOPC   H4S21500   2.152   2.164   5.813  0.1229  0.5937 -0.1253
  176DOPC   C2521501   1.938   2.168   5.825  0.5602  0.3024 -0.1270
  176DOPC   H5R21502   1.934   2.065   5.868  1.6099 -0.3532 -1.5545
  176DOPC   H5S21503   1.862   2.182   5.746  1.1057  0.7035 -0.5848
  176DOPC   C2621504   1.907   2.270   5.932  0.8946  0.8279  0.0809
  176DOPC   H6R21505   1.802   2.257   5.965  0.6843  1.0084 -0.5068
  176DOPC   H6S21506   1.922   2.369   5.884  0.3668  1.0306  0.3268
  176DOPC   C2721507   1.978   2.253   6.058 -0.2729  0.0598  0.0845
  176DOPC   H7R21508   2.087   2.266   6.043  0.1817 -1.5202  1.6697
  176DOPC   H7S21509   1.959   2.149   6.091 -0.9956  0.5565  1.2954
  176DOPC   C2821510   1.942   2.346   6.177  0.1479  0.6092 -0.3901
  176DOPC   H8R21511   1.845   2.310   6.218  1.6120 -1.8390  1.1718
  176DOPC   H8S21512   1.914   2.441   6.126  0.0740  1.8312  1.8156
  176DOPC   C2921513   2.044   2.376   6.284 -1.0312  0.3874  0.2390
  176DOPC   H9R21514   2.134   2.429   6.251  0.3645 -1.2686  1.1931
  176DOPC  C21021515   2.042   2.346   6.415 -0.2834 -0.6057  0.1371
  176DOPC  H10R21516   2.130   2.363   6.479 -2.3185  0.7835  2.7688
  176DOPC  C21121517   1.931   2.274   6.491 -0.5981 -0.0262 -0.5869
  176DOPC  H11R21518   1.836   2.268   6.433 -0.3310  1.1366 -1.1672
  176DOPC  H11S21519   1.903   2.336   6.579  1.0838 -0.1394  0.0551
  176DOPC  C21221520   1.970   2.140   6.542  0.5907 -0.0954  0.0252
  176DOPC  H12R21521   2.072   2.142   6.588  0.5681 -0.4346  0.0900
  176DOPC  H12S21522   1.970   2.062   6.463 -1.6664 -0.0461 -0.0882
  176DOPC  C21321523   1.873   2.081   6.644  0.2873  0.3394 -0.1023
  176DOPC  H13R21524   1.772   2.106   6.605  0.4191 -2.0661 -2.2662
  176DOPC  H13S21525   1.894   2.134   6.739 -0.5945 -0.9497  0.8414
  176DOPC  C21421526   1.887   1.934   6.672  0.7197  0.2988  0.2443
  176DOPC  H14R21527   1.968   1.903   6.740 -0.6653 -0.9885  1.3908
  176DOPC  H14S21528   1.886   1.881   6.574  3.5001  0.6216 -0.0395
  176DOPC  C21521529   1.757   1.872   6.741 -0.8159  0.2738  0.0008
  176DOPC  H15R21530   1.746   1.762   6.742  0.9703  0.0154 -1.9210
  176DOPC  H15S21531   1.670   1.911   6.682 -1.4198 -1.8180 -0.5688
  176DOPC  C21621532   1.720   1.916   6.884  0.5416 -0.3238 -0.5869
  176DOPC  H16R21533   1.703   2.026   6.884  0.1231 -0.2657  2.9878
  176DOPC  H16S21534   1.809   1.899   6.948 -1.7024 -0.7699  2.6854
  176DOPC  C21721535   1.601   1.847   6.954 -0.5729  0.4883 -0.2858
  176DOPC  H17R21536   1.622   1.738   6.949  0.6705  0.7307 -0.6668
  176DOPC  H17S21537   1.508   1.870   6.898  0.1399  2.1015 -0.8557
  176DOPC  C21821538   1.593   1.866   7.106  0.2062 -0.1866  0.0734
  176DOPC  H18R21539   1.693   1.842   7.149  0.0363  1.1820  1.3296
  176DOPC  H18S21540   1.508   1.804   7.143  0.0100 -0.0919 -0.2223
  176DOPC  H18T21541   1.577   1.974   7.125 -1.9532 -0.1626 -1.5340
  176DOPC   C3321542   2.501   1.556   5.834  0.1098  0.3223  0.2238
  176DOPC   H3X21543   2.505   1.474   5.759  0.8091 -0.1775  0.7947
  176DOPC   H3Y21544   2.399   1.560   5.879  1.8006 -0.0433  4.5660
  176DOPC   C3421545   2.589   1.503   5.950 -0.3097 -0.0821 -0.0349
  176DOPC   H4X21546   2.583   1.590   6.018 -0.1436 -0.3883  0.3776
  176DOPC   H4Y21547   2.691   1.489   5.908  0.2786  0.4619  1.1611
  176DOPC   C3521548   2.533   1.384   6.022  0.3112  0.2818  0.4736
  176DOPC   H5X21549   2.529   1.299   5.951  1.7490  0.4002  0.2298
  176DOPC   H5Y21550   2.430   1.408   6.055  0.2678  0.0315  0.5197
  176DOPC   C3621551   2.606   1.348   6.145  0.2797  0.1201 -0.1094
  176DOPC   H6X21552   2.636   1.440   6.199 -1.1530 -0.0751  1.0756
  176DOPC   H6Y21553   2.546   1.285   6.214 -0.9643  1.7416  0.3450
  176DOPC   C3721554   2.735   1.263   6.106  0.2211  0.2390 -0.1530
  176DOPC   H7X21555   2.710   1.162   6.066  2.2802 -1.1199  1.7237
  176DOPC   H7Y21556   2.790   1.321   6.029  1.4889  1.6426  1.7215
  176DOPC   C3821557   2.838   1.240   6.223 -0.4036 -0.2776  0.2145
  176DOPC   H8X21558   2.888   1.332   6.260  1.6874 -1.7925  1.3750
  176DOPC   H8Y21559   2.919   1.184   6.171  1.1687  1.8546  0.2215
  176DOPC   C3921560   2.782   1.169   6.343  0.1781  0.0679 -0.1876
  176DOPC   H9X21561   2.747   1.237   6.422  1.4270 -1.4080  1.7308
  176DOPC  C31021562   2.763   1.031   6.354 -0.5371  0.7711 -0.3782
  176DOPC  H10X21563   2.711   0.994   6.444  0.8799  0.2902  0.2709
  176DOPC  C31121564   2.795   0.930   6.247  0.6518  0.1633  0.1307
  176DOPC  H11X21565   2.905   0.930   6.237  0.7846 -3.7702  0.1640
  176DOPC  H11Y21566   2.741   0.964   6.155  2.1305  1.5755 -0.2802
  176DOPC  C31221567   2.747   0.790   6.270  0.3639  0.6230 -0.4045
  176DOPC  H12X21568   2.636   0.781   6.273  0.4831 -0.9286  0.2841
  176DOPC  H12Y21569   2.786   0.747   6.364  0.7027  2.1734  0.1931
  176DOPC  C31321570   2.778   0.689   6.155  0.0641  0.3546 -0.5509
  176DOPC  H13X21571   2.736   0.591   6.184 -2.5748  1.5063 -0.2523
  176DOPC  H13Y21572   2.741   0.736   6.061 -1.3574 -1.3919 -0.9105
  176DOPC  C31421573   2.931   0.675   6.129  0.0331  0.1328  0.6788
  176DOPC  H14X21574   2.988   0.768   6.107  1.0865 -0.5422  0.4932
  176DOPC  H14Y21575   2.979   0.609   6.203  1.5166  0.2465 -0.1469
  176DOPC  C31521576   2.963   0.596   5.997  0.2894  0.5789  0.2355
  176DOPC  H15X21577   3.072   0.605   5.977 -0.1236 -0.5568 -3.0565
  176DOPC  H15Y21578   2.908   0.641   5.912  1.3698  2.4893  0.4734
  176DOPC  C31621579   2.936   0.449   6.009  0.6374 -0.9783 -0.0856
  176DOPC  H16X21580   2.999   0.419   6.095 -2.0086 -0.5341  2.1710
  176DOPC  H16Y21581   2.833   0.430   6.047  0.1146 -0.9679 -1.4555
  176DOPC  C31721582   2.954   0.368   5.881 -0.3146  0.4657  0.1239
  176DOPC  H17X21583   2.946   0.261   5.910  0.1733 -0.3640 -2.5837
  176DOPC  H17Y21584   2.873   0.386   5.808 -1.5481  3.5965  2.0435
  176DOPC  C31821585   3.099   0.378   5.820  0.1781 -0.6124  0.1818
  176DOPC  H18X21586   3.116   0.486   5.805 -0.1585 -0.5833  0.0145
  176DOPC  H18Y21587   3.179   0.342   5.888  0.8182  0.7524  0.1820
  176DOPC  H18Z21588   3.110   0.326   5.722  0.4308  0.1605 -0.2092
  177DOPC     N21589   4.467   5.667   5.529 -0.8133 -0.4290  0.2437
  177DOPC   C1221590   4.337   5.590   5.539  0.1717 -0.1838 -0.1981
  177DOPC  H12A21591   4.260   5.644   5.486 -0.0708 -0.1066  0.2315
  177DOPC  H12B21592   4.324   5.595   5.646  0.6319  1.8113 -0.1857
  177DOPC   C1321593   4.502   5.678   5.376  0.6569 -0.0241 -0.0483
  177DOPC  H13A21594   4.595   5.729   5.354  0.9074 -0.5251 -0.1573
  177DOPC  H13B21595   4.506   5.576   5.342  0.0825 -0.2202  0.4428
  177DOPC  H13C21596   4.423   5.730   5.324  1.7269  0.4733 -1.2290
  177DOPC   C1421597   4.581   5.593   5.595 -0.3959 -0.0133 -0.2054
  177DOPC  H14A21598   4.562   5.613   5.699  0.0095  1.9861 -0.4657
  177DOPC  H14B21599   4.589   5.490   5.565  1.5614  0.0708 -0.0821
  177DOPC  H14C21600   4.677   5.638   5.578 -0.0171 -0.0816  1.5626
  177DOPC   C1521601   4.458   5.804   5.586 -0.0055 -0.1491  0.1028
  177DOPC  H15A21602   4.545   5.865   5.568 -0.7643  0.4070 -1.8183
  177DOPC  H15B21603   4.449   5.795   5.694  1.3486  0.9511  0.3319
  177DOPC  H15C21604   4.369   5.857   5.558  0.2180  1.1299  1.6593
  177DOPC   C1121605   4.345   5.446   5.491  0.1488  0.3784 -0.5853
  177DOPC  H11A21606   4.442   5.407   5.530 -0.1298 -1.2216 -1.4368
  177DOPC  H11B21607   4.262   5.394   5.544  1.0279 -0.9748 -0.4895
  177DOPC     P21608   4.356   5.309   5.262 -0.8426 -0.0105  0.0361
  177DOPC   O1321609   4.409   5.350   5.130  0.0461  1.0445 -0.2221
  177DOPC   O1421610   4.236   5.222   5.258 -0.2614 -1.0767 -0.2797
  177DOPC   O1221611   4.321   5.439   5.351  0.2361 -0.2697  0.2603
  177DOPC   O1121612   4.472   5.242   5.343 -0.4942  0.5831 -0.1359
  177DOPC    C121613   4.613   5.277   5.359  0.1117 -0.7121 -0.4912
  177DOPC    HA21614   4.618   5.388   5.369  0.7988 -0.9035  1.9114
  177DOPC    HB21615   4.667   5.240   5.270  1.5106 -2.4434  1.0037
  177DOPC    C221616   4.675   5.225   5.493 -0.3314 -0.0392 -0.1462
  177DOPC    HS21617   4.695   5.117   5.474 -1.0217 -0.4784  1.4965
  177DOPC   O2121618   4.595   5.257   5.607  0.1002  0.3926 -0.1684
  177DOPC   C2121619   4.518   5.160   5.658 -0.0711 -0.1313  0.9202
  177DOPC   O2221620   4.523   5.044   5.625  0.3703 -0.3906  0.2271
  177DOPC   C2221621   4.440   5.217   5.774 -0.3565  0.2949 -0.2895
  177DOPC   H2R21622   4.350   5.154   5.790 -1.0141  1.5466  1.1392
  177DOPC   H2S21623   4.414   5.323   5.753  0.0591  0.6134  0.7331
  177DOPC    C321624   4.823   5.270   5.508 -0.0837  0.4679  0.0274
  177DOPC    HX21625   4.824   5.379   5.528  2.2907  0.7910 -1.4879
  177DOPC    HY21626   4.885   5.256   5.417 -1.3680 -0.5723 -0.7342
  177DOPC   O3121627   4.877   5.194   5.628 -0.5741  0.7049 -0.0414
  177DOPC   C3121628   4.895   5.062   5.617  0.5918 -0.2944  0.5334
  177DOPC   O3221629   4.910   5.007   5.508 -0.1387  0.0737  0.2034
  177DOPC   C3221630   4.897   4.995   5.757  0.1496  0.3087  0.5952
  177DOPC   H2X21631   4.869   5.065   5.838  2.5301  0.1930  1.6028
  177DOPC   H2Y21632   4.813   4.924   5.745  0.5571 -0.0116 -0.5297
  177DOPC   C2321633   4.524   5.222   5.904 -1.0064  0.3161 -0.2730
  177DOPC   H3R21634   4.551   5.120   5.938 -0.9444 -0.6796 -3.1037
  177DOPC   H3S21635   4.475   5.280   5.985 -0.0567  1.6255 -0.5822
  177DOPC   C2421636   4.653   5.304   5.885 -0.3322  0.1231  0.6464
  177DOPC   H4R21637   4.626   5.403   5.845 -0.0599  0.3031  0.9055
  177DOPC   H4S21638   4.724   5.266   5.808  2.0637  1.0065  2.2801
  177DOPC   C2521639   4.728   5.344   6.017  0.4151  0.2117  1.1893
  177DOPC   H5R21640   4.641   5.396   6.062 -2.2240 -1.9903 -0.9924
  177DOPC   H5S21641   4.816   5.403   5.985 -2.1381  2.0402 -3.4310
  177DOPC   C2621642   4.766   5.232   6.110  0.1303  0.0745  0.2448
  177DOPC   H6R21643   4.838   5.160   6.065 -1.0558 -0.5413 -0.7640
  177DOPC   H6S21644   4.676   5.173   6.138 -0.9620  2.3451  1.8747
  177DOPC   C2721645   4.835   5.281   6.240  0.3762  0.0228 -0.0426
  177DOPC   H7R21646   4.755   5.340   6.289  1.2649 -0.0124  1.5238
  177DOPC   H7S21647   4.925   5.344   6.219  0.1894  0.2784 -0.0900
  177DOPC   C2821648   4.882   5.154   6.334  0.0946 -0.4492 -0.0398
  177DOPC   H8R21649   4.950   5.195   6.412 -1.3611  0.6150  0.7240
  177DOPC   H8S21650   4.927   5.079   6.266  0.7359 -0.9901  0.9587
  177DOPC   C2921651   4.775   5.072   6.400  0.6928  0.1928 -0.0574
  177DOPC   H9R21652   4.704   5.019   6.334  1.3366 -1.0951  0.2527
  177DOPC  C21021653   4.754   5.047   6.533 -0.4646 -0.7649  0.5425
  177DOPC  H10R21654   4.672   4.981   6.564 -1.0049 -0.4636 -0.2352
  177DOPC  C21121655   4.827   5.093   6.657  0.2672  0.2304 -0.2847
  177DOPC  H11R21656   4.761   5.162   6.714  2.0897  2.3424 -0.6096
  177DOPC  H11S21657   4.915   5.157   6.634 -1.0091  1.3109 -2.5651
  177DOPC  C21221658   4.854   4.976   6.753 -0.1839  1.1413  0.4791
  177DOPC  H12R21659   4.931   4.908   6.711 -1.9816  0.4974 -2.0467
  177DOPC  H12S21660   4.761   4.915   6.764 -0.0054  0.1425 -2.5355
  177DOPC  C21321661   4.904   5.029   6.888 -0.4619  0.4497  0.7831
  177DOPC  H13R21662   4.834   5.108   6.923 -1.6480  0.3443 -1.1894
  177DOPC  H13S21663   4.997   5.084   6.863 -1.5105  0.5664 -3.6758
  177DOPC  C21421664   4.920   4.918   7.000 -0.6751 -0.2554  0.2948
  177DOPC  H14R21665   4.989   4.842   6.956 -0.1946 -0.2887  1.0955
  177DOPC  H14S21666   4.824   4.868   7.022 -1.2375  0.0388 -1.3178
  177DOPC  C21521667   4.982   4.976   7.122 -0.0839  0.3204  0.7147
  177DOPC  H15R21668   4.915   5.047   7.174 -1.4421 -0.6476  0.3289
  177DOPC  H15S21669   5.074   5.036   7.103  0.2144 -0.0047  1.1057
  177DOPC  C21621670   5.023   4.872   7.230  0.3154  0.2191 -0.8858
  177DOPC  H16R21671   5.108   4.820   7.181  1.4656 -0.1618  1.3961
  177DOPC  H16S21672   4.937   4.803   7.246  0.5766  0.0326 -0.2673
  177DOPC  C21721673   5.072   4.937   7.365  0.3482 -0.1773 -0.1011
  177DOPC  H17R21674   5.164   4.993   7.339  0.7515 -0.1264  1.3569
  177DOPC  H17S21675   5.109   4.859   7.434  0.0141  0.3640  0.7056
  177DOPC  C21821676   4.971   5.018   7.440 -0.5602  0.2663  0.4386
  177DOPC  H18R21677   4.949   5.107   7.377 -1.0001 -0.2853 -0.2046
  177DOPC  H18S21678   5.018   5.061   7.530  0.1805 -1.3758  0.8648
  177DOPC  H18T21679   4.877   4.965   7.466 -1.6025  2.0544  0.5059
  177DOPC   C3321680   5.029   4.921   5.786  0.0464  0.1789  0.3108
  177DOPC   H3X21681   5.116   4.982   5.815  1.3838 -0.4124 -2.1354
  177DOPC   H3Y21682   5.054   4.851   5.703 -1.5353  0.6719 -0.6392
  177DOPC   C3421683   5.007   4.835   5.911 -0.7139  0.6591 -0.3828
  177DOPC   H4X21684   4.919   4.767   5.909  0.0208 -0.3329  0.2887
  177DOPC   H4Y21685   4.990   4.890   6.006  0.4401  0.6691 -0.1789
  177DOPC   C3521686   5.130   4.753   5.949 -0.2112 -0.3822 -0.1479
  177DOPC   H5X21687   5.219   4.801   5.994  0.4476 -1.2124 -0.5310
  177DOPC   H5Y21688   5.162   4.714   5.849  1.2175  1.8557 -0.6400
  177DOPC   C3621689   5.097   4.642   6.041 -0.0971 -0.0294 -0.3197
  177DOPC   H6X21690   5.072   4.681   6.142 -0.4196 -0.3472 -0.2697
  177DOPC   H6Y21691   5.000   4.599   6.006 -0.2823 -0.2071  0.3871
  177DOPC   C3721692   5.202   4.541   6.050  0.3121  0.2232  0.4881
  177DOPC   H7X21693   5.220   4.496   5.950 -0.0158 -0.3943  0.7031
  177DOPC   H7Y21694   5.298   4.589   6.078  0.8146 -1.1689  1.2408
  177DOPC   C3821695   5.171   4.420   6.146  0.6657  0.2394 -0.2217
  177DOPC   H8X21696   5.111   4.354   6.080 -0.1219  1.2932 -0.5882
  177DOPC   H8Y21697   5.118   4.460   6.235 -0.5812  3.0651 -2.0695
  177DOPC   C3921698   5.300   4.352   6.183 -0.0158  0.0332  0.0654
  177DOPC   H9X21699   5.362   4.328   6.096  0.6120  0.5985  0.3544
  177DOPC  C31021700   5.345   4.321   6.301 -0.1651  0.3455 -0.3119
  177DOPC  H10X21701   5.445   4.276   6.310 -1.2750 -2.2762 -0.5085
  177DOPC  C31121702   5.264   4.342   6.428  0.0847 -0.4148  0.3130
  177DOPC  H11X21703   5.157   4.349   6.401  0.2828  1.4649 -0.0824
  177DOPC  H11Y21704   5.296   4.437   6.476  1.1618 -0.1556 -0.8685
  177DOPC  C31221705   5.297   4.234   6.532 -0.1366  0.0347  0.7328
  177DOPC  H12X21706   5.402   4.200   6.523 -0.0638  0.1281  1.1997
  177DOPC  H12Y21707   5.238   4.143   6.505 -1.1533  1.0289 -0.5183
  177DOPC  C31321708   5.250   4.262   6.674  0.2977  0.1636 -0.1726
  177DOPC  H13X21709   5.291   4.362   6.703  0.7048  0.1515 -0.7000
  177DOPC  H13Y21710   5.139   4.272   6.674  0.1391 -0.2073 -4.2326
  177DOPC  C31421711   5.300   4.166   6.783  0.4323 -0.1638  0.3882
  177DOPC  H14X21712   5.273   4.063   6.752  0.7334 -0.1288  0.0062
  177DOPC  H14Y21713   5.411   4.164   6.785  0.4322 -0.0478  0.4610
  177DOPC  C31521714   5.238   4.205   6.920  0.2162 -0.4999  0.0151
  177DOPC  H15X21715   5.128   4.215   6.912 -0.3907 -2.4526  3.8925
  177DOPC  H15Y21716   5.286   4.298   6.957  0.0193 -0.5703  0.4506
  177DOPC  C31621717   5.258   4.112   7.033  0.2757 -0.0316  0.0372
  177DOPC  H16X21718   5.200   4.021   7.007 -1.4075  0.7348  0.9086
  177DOPC  H16Y21719   5.365   4.087   7.047  0.1387  0.3134  1.9474
  177DOPC  C31721720   5.213   4.160   7.175 -0.2844 -0.4507  0.3590
  177DOPC  H17X21721   5.277   4.239   7.219 -0.7881 -0.5266  1.2497
  177DOPC  H17Y21722   5.109   4.194   7.157  0.3150  0.5635 -1.4796
  177DOPC  C31821723   5.194   4.039   7.272  0.4766  0.0099 -0.4803
  177DOPC  H18X21724   5.283   3.977   7.293  0.5221 -0.2315 -1.3733
  177DOPC  H18Y21725   5.181   4.070   7.378  1.0171 -2.2313  0.2926
  177DOPC  H18Z21726   5.104   3.977   7.254 -1.0057  1.5114  1.2856
  178DOPC     N21727   3.080   4.715   5.053 -0.2435 -0.7415 -0.5140
  178DOPC   C1221728   3.004   4.654   5.166  0.5016  0.5078 -0.2776
  178DOPC  H12A21729   2.972   4.555   5.137  1.5481  0.2054 -0.4704
  178DOPC  H12B21730   2.915   4.709   5.190 -0.9253 -1.8753  0.2167
  178DOPC   C1321731   3.113   4.863   5.071 -0.0140 -0.4385  0.5966
  178DOPC  H13A21732   3.023   4.922   5.061  0.8443  0.7730 -0.3100
  178DOPC  H13B21733   3.155   4.884   5.168 -1.3214 -0.7297  1.2503
  178DOPC  H13C21734   3.185   4.892   4.996 -0.6726 -2.3291 -0.8455
  178DOPC   C1421735   3.005   4.702   4.924 -0.4673  0.4075 -0.2850
  178DOPC  H14A21736   3.002   4.596   4.904 -0.5388 -0.1234  2.1894
  178DOPC  H14B21737   2.903   4.737   4.930 -0.7581 -0.3043 -0.9113
  178DOPC  H14C21738   3.048   4.755   4.841 -0.1126  0.5699  0.0017
  178DOPC   C1521739   3.217   4.652   5.027  0.1978 -0.3110  0.1829
  178DOPC  H15A21740   3.278   4.721   4.970 -0.3799  0.0150 -0.0482
  178DOPC  H15B21741   3.204   4.567   4.962  0.6480  0.7828 -1.3937
  178DOPC  H15C21742   3.268   4.622   5.118  0.1252 -0.2867  0.2328
  178DOPC   C1121743   3.070   4.640   5.302 -0.0175 -0.3909  0.4382
  178DOPC  H11A21744   3.110   4.739   5.335 -1.8472  1.0680 -1.4846
  178DOPC  H11B21745   3.000   4.596   5.376 -0.2955 -2.0998 -0.7983
  178DOPC     P21746   3.177   4.400   5.301 -0.3212  0.2956  0.3869
  178DOPC   O1321747   3.317   4.353   5.288 -0.4789 -0.7074  1.0170
  178DOPC   O1421748   3.078   4.349   5.202  0.1592  0.2636  0.1713
  178DOPC   O1221749   3.188   4.556   5.297  0.0509  0.3595  0.1259
  178DOPC   O1121750   3.136   4.363   5.454 -0.4215 -0.3300  0.1677
  178DOPC    C121751   3.007   4.317   5.482 -0.9366  0.1966 -0.1192
  178DOPC    HA21752   3.008   4.207   5.465  0.2503 -0.2033  2.0445
  178DOPC    HB21753   2.926   4.364   5.423 -0.0332  1.1783 -0.6038
  178DOPC    C221754   2.981   4.320   5.638 -0.0804 -0.2961 -0.0171
  178DOPC    HS21755   2.912   4.239   5.670  0.5626 -1.1862 -0.8455
  178DOPC   O2121756   2.938   4.455   5.672 -0.4281 -0.1542 -0.2352
  178DOPC   C2121757   2.812   4.479   5.640 -0.0771  0.9149  0.5623
  178DOPC   O2221758   2.732   4.392   5.607 -0.2025  0.3528 -0.1588
  178DOPC   C2221759   2.781   4.621   5.645  0.2518  0.4688  0.2896
  178DOPC   H2R21760   2.673   4.628   5.621  0.2766 -3.2385 -1.6389
  178DOPC   H2S21761   2.837   4.671   5.562  1.1352 -2.8758 -1.3127
  178DOPC    C321762   3.102   4.297   5.729  0.6191 -0.5362  0.4160
  178DOPC    HX21763   3.186   4.350   5.678  0.6350  0.1705  1.1494
  178DOPC    HY21764   3.132   4.190   5.731  2.2788 -0.2287 -2.4370
  178DOPC   O3121765   3.079   4.346   5.865 -0.0517  0.5007  0.3801
  178DOPC   C3121766   3.145   4.460   5.890 -0.2518  0.1474 -0.0940
  178DOPC   O3221767   3.237   4.501   5.828  0.2744 -0.5229  0.1602
  178DOPC   C3221768   3.110   4.505   6.031 -0.3467 -0.1905  0.2634
  178DOPC   H2X21769   2.999   4.501   6.039 -0.4017 -0.4466 -0.5595
  178DOPC   H2Y21770   3.147   4.433   6.108 -0.8076  1.6884  2.3668
  178DOPC   C2321771   2.811   4.697   5.778  0.0318  0.9086  0.1834
  178DOPC   H3R21772   2.784   4.804   5.769 -0.8678  0.9204  2.3562
  178DOPC   H3S21773   2.915   4.690   5.818 -1.2987 -0.1409  3.8239
  178DOPC   C2421774   2.707   4.646   5.883 -0.4861  0.2198 -0.4055
  178DOPC   H4R21775   2.715   4.536   5.871 -0.8406  0.1505 -0.0404
  178DOPC   H4S21776   2.600   4.670   5.865 -1.1738 -1.0691  1.6405
  178DOPC   C2521777   2.744   4.688   6.025  0.5182 -0.1078 -0.2292
  178DOPC   H5R21778   2.756   4.798   6.026 -1.7893  0.2204 -1.0680
  178DOPC   H5S21779   2.837   4.642   6.063  0.1421 -1.1116 -0.4840
  178DOPC   C2621780   2.635   4.651   6.129  0.9631 -0.6432  0.5457
  178DOPC   H6R21781   2.549   4.720   6.118  0.6139 -1.2293 -0.5893
  178DOPC   H6S21782   2.679   4.682   6.226  1.5555  1.7139 -0.4027
  178DOPC   C2721783   2.592   4.510   6.126  0.2440 -0.6366 -0.1919
  178DOPC   H7R21784   2.675   4.437   6.117  0.0541 -0.8987  0.1624
  178DOPC   H7S21785   2.529   4.495   6.037  0.4279  1.5905 -0.7646
  178DOPC   C2821786   2.516   4.476   6.259 -0.1487  1.2822  0.2084
  178DOPC   H8R21787   2.413   4.515   6.244 -1.0386 -1.5551 -2.0179
  178DOPC   H8S21788   2.567   4.509   6.352 -0.0064 -1.8592  1.3741
  178DOPC   C2921789   2.491   4.326   6.264 -0.6972  0.6966 -0.6630
  178DOPC   H9R21790   2.507   4.264   6.174  1.2500 -0.1711  0.2104
  178DOPC  C21021791   2.479   4.263   6.381 -0.0209 -0.0614  0.7315
  178DOPC  H10R21792   2.432   4.164   6.381 -0.8537  0.2816  2.7319
  178DOPC  C21121793   2.482   4.319   6.520  0.1400 -0.6976 -0.3652
  178DOPC  H11R21794   2.457   4.427   6.522 -1.7146 -1.1054  0.9244
  178DOPC  H11S21795   2.585   4.327   6.561 -0.4487  0.7975  0.8943
  178DOPC  C21221796   2.394   4.242   6.623 -0.3519  0.0186  0.2718
  178DOPC  H12R21797   2.423   4.136   6.635  1.7169  0.6700  1.5761
  178DOPC  H12S21798   2.288   4.252   6.590 -0.2659  1.8932  0.4347
  178DOPC  C21321799   2.409   4.308   6.763  0.4671 -0.2082 -0.3571
  178DOPC  H13R21800   2.425   4.418   6.751  2.8772 -0.5482 -0.8662
  178DOPC  H13S21801   2.501   4.259   6.801  0.0518 -0.7549 -0.0379
  178DOPC  C21421802   2.300   4.269   6.857  0.1645 -0.2597 -0.8482
  178DOPC  H14R21803   2.274   4.161   6.857 -0.0325 -0.2157 -0.4746
  178DOPC  H14S21804   2.204   4.322   6.843 -0.2169  1.1563  4.8052
  178DOPC  C21521805   2.332   4.298   7.008 -0.2319 -0.9567  0.4816
  178DOPC  H15R21806   2.353   4.406   7.020  0.8254 -1.2378  1.3549
  178DOPC  H15S21807   2.429   4.255   7.042  1.4187  2.8201  1.1173
  178DOPC  C21621808   2.227   4.262   7.107 -0.1693  0.0674 -0.4003
  178DOPC  H16R21809   2.121   4.280   7.079  0.6709  2.6526 -2.2255
  178DOPC  H16S21810   2.249   4.327   7.195  2.4177 -1.9258  0.5546
  178DOPC  C21721811   2.240   4.111   7.157 -0.1071 -0.1865 -0.0456
  178DOPC  H17R21812   2.336   4.112   7.214  0.1391 -1.6382 -0.4041
  178DOPC  H17S21813   2.246   4.047   7.066  2.3098  0.5444 -0.4836
  178DOPC  C21821814   2.124   4.066   7.246  0.6166 -0.3432  0.1650
  178DOPC  H18R21815   2.031   4.060   7.185  0.0881  1.7338  0.6941
  178DOPC  H18S21816   2.120   4.125   7.339 -0.4981  0.9529 -0.6679
  178DOPC  H18T21817   2.151   3.964   7.281  0.4011 -0.0741  1.1300
  178DOPC   C3321818   3.149   4.649   6.061  0.5502 -0.5909  0.0325
  178DOPC   H3X21819   3.113   4.723   5.987  0.2400 -2.5179 -1.8063
  178DOPC   H3Y21820   3.260   4.647   6.053  0.5902  0.0121  0.3830
  178DOPC   C3421821   3.104   4.705   6.194  0.1330 -0.4791 -0.4848
  178DOPC   H4X21822   3.150   4.642   6.274  1.2974  2.5774  1.4173
  178DOPC   H4Y21823   2.993   4.695   6.196  0.0296  0.7025  0.9286
  178DOPC   C3521824   3.145   4.851   6.232 -0.1743  0.1331 -0.4309
  178DOPC   H5X21825   3.114   4.923   6.154 -0.7815  0.9465  0.5313
  178DOPC   H5Y21826   3.255   4.856   6.251 -0.4110  2.3491  0.6624
  178DOPC   C3621827   3.096   4.895   6.368  0.1511  0.4221 -0.2410
  178DOPC   H6X21828   2.988   4.870   6.367 -0.0015  0.9587  1.2837
  178DOPC   H6Y21829   3.144   4.833   6.447 -3.4173 -1.2128  0.8248
  178DOPC   C3721830   3.136   5.039   6.393 -0.0378  0.0084  0.6430
  178DOPC   H7X21831   3.242   5.060   6.368 -0.0524  0.7930  1.1809
  178DOPC   H7Y21832   3.082   5.104   6.321  0.9490 -1.3913 -1.4502
  178DOPC   C3821833   3.118   5.081   6.541 -0.0280  0.0379  0.6653
  178DOPC   H8X21834   3.022   5.037   6.575 -0.3760 -1.7692 -2.2709
  178DOPC   H8Y21835   3.104   5.191   6.543 -0.6405 -0.0251  0.1405
  178DOPC   C3921836   3.240   5.045   6.624  0.4713  0.5233 -0.2964
  178DOPC   H9X21837   3.339   5.077   6.590  0.8383  3.2194  2.8378
  178DOPC  C31021838   3.234   4.983   6.747 -0.2373  0.4775 -0.1918
  178DOPC  H10X21839   3.326   4.981   6.808 -0.7780 -2.3050  0.7045
  178DOPC  C31121840   3.104   4.931   6.819 -0.6071  0.2182  0.0110
  178DOPC  H11X21841   3.110   4.832   6.868  1.6592  0.3022  0.0180
  178DOPC  H11Y21842   3.020   4.921   6.747  0.2785  1.2798 -1.2223
  178DOPC  C31221843   3.061   5.031   6.938 -0.8880  0.3871  0.6228
  178DOPC  H12X21844   2.969   4.981   6.975  0.0361 -1.7832  0.1301
  178DOPC  H12Y21845   3.029   5.129   6.895  0.4497  0.0491 -1.2243
  178DOPC  C31321846   3.161   5.051   7.048  0.1273  0.1458  0.5155
  178DOPC  H13X21847   3.180   4.947   7.084 -0.9185 -0.6642 -1.1105
  178DOPC  H13Y21848   3.258   5.088   7.008 -1.2884  3.8575  0.2110
  178DOPC  C31421849   3.113   5.138   7.163  0.0443  0.3883 -0.3452
  178DOPC  H14X21850   3.101   5.237   7.115  0.1853  0.4119 -0.3337
  178DOPC  H14Y21851   3.011   5.105   7.191 -0.2627  0.5654 -1.2055
  178DOPC  C31521852   3.228   5.154   7.267  0.1311 -1.1256  0.2603
  178DOPC  H15X21853   3.317   5.202   7.223 -1.0032  2.0022  1.1419
  178DOPC  H15Y21854   3.251   5.053   7.309 -1.3158 -1.5660  0.0343
  178DOPC  C31621855   3.181   5.247   7.378 -0.1544 -0.7322 -0.1774
  178DOPC  H16X21856   3.176   5.353   7.344  0.8308 -0.6443 -0.0787
  178DOPC  H16Y21857   3.078   5.221   7.409 -0.3625  0.8324  0.5474
  178DOPC  C31721858   3.272   5.241   7.502 -0.0158 -0.3213 -0.3291
  178DOPC  H17X21859   3.257   5.142   7.550 -0.1606 -1.0437 -1.7975
  178DOPC  H17Y21860   3.375   5.241   7.460  0.4956 -0.4773  0.8961
  178DOPC  C31821861   3.253   5.361   7.597 -0.3973 -0.8191 -0.4348
  178DOPC  H18X21862   3.271   5.452   7.534  1.4199 -0.2268  0.8624
  178DOPC  H18Y21863   3.153   5.367   7.644 -0.2040 -1.0255  0.0059
  178DOPC  H18Z21864   3.331   5.353   7.675 -0.5519  0.8643 -0.0609
  179DOPC     N21865   5.838   5.205   4.895 -0.2659  0.5590  0.6584
  179DOPC   C1221866   5.854   5.169   5.043 -0.6165 -0.3605  0.3760
  179DOPC  H12A21867   5.952   5.193   5.082 -0.0259 -0.6584 -0.8459
  179DOPC  H12B21868   5.846   5.062   5.050 -1.2959 -0.2205  2.1311
  179DOPC   C1321869   5.856   5.355   4.878 -0.3943  0.3880  0.5947
  179DOPC  H13A21870   5.944   5.390   4.930 -0.5041 -0.0769  1.1054
  179DOPC  H13B21871   5.854   5.398   4.779 -2.8270  1.8575  1.1832
  179DOPC  H13C21872   5.781   5.412   4.933 -4.1291 -0.8355 -2.7883
  179DOPC   C1421873   5.706   5.164   4.838 -0.5565  0.2786  0.9606
  179DOPC  H14A21874   5.702   5.056   4.838 -2.2972  0.3056 -0.1687
  179DOPC  H14B21875   5.619   5.197   4.892 -1.6978 -0.1700 -0.5413
  179DOPC  H14C21876   5.711   5.195   4.735  1.3808 -1.7215  0.3725
  179DOPC   C1521877   5.944   5.133   4.820 -0.1312 -0.2381  0.3781
  179DOPC  H15A21878   6.030   5.198   4.824 -0.3133  0.2563 -2.1357
  179DOPC  H15B21879   5.911   5.101   4.722 -1.8617 -1.1741  1.2106
  179DOPC  H15C21880   5.973   5.039   4.865 -0.0406 -0.5091 -0.2293
  179DOPC   C1121881   5.746   5.226   5.134  0.5026 -0.2919 -0.0309
  179DOPC  H11A21882   5.776   5.206   5.239  0.9893  1.4272  0.1715
  179DOPC  H11B21883   5.738   5.335   5.120  1.3250 -0.0292  1.3439
  179DOPC     P21884   5.590   5.007   5.152 -0.6331 -0.0258  0.5230
  179DOPC   O1321885   5.676   4.921   5.068 -0.5641  0.3284 -0.1438
  179DOPC   O1421886   5.440   4.990   5.144 -0.2883  0.3421 -0.5772
  179DOPC   O1221887   5.620   5.159   5.106 -0.5199  0.4267 -0.3970
  179DOPC   O1121888   5.644   4.998   5.299  0.1596 -0.0179 -0.0794
  179DOPC    C121889   5.582   5.073   5.404  0.2562  0.3353 -0.6366
  179DOPC    HA21890   5.472   5.058   5.397  0.4195 -0.9232 -0.7505
  179DOPC    HB21891   5.610   5.181   5.398  0.2078  0.4824  1.2796
  179DOPC    C221892   5.604   5.023   5.548 -0.1811  0.4720 -0.1838
  179DOPC    HS21893   5.540   5.077   5.620  0.8783  2.9039 -0.9656
  179DOPC   O2121894   5.743   5.028   5.577  0.6515 -0.0650 -0.9712
  179DOPC   C2121895   5.777   5.121   5.654 -0.4174 -0.4872 -0.0741
  179DOPC   O2221896   5.711   5.216   5.695  0.3457  0.4913 -0.1567
  179DOPC   C2221897   5.920   5.088   5.701 -0.2197  0.1082 -0.6745
  179DOPC   H2R21898   5.954   5.183   5.748  2.3435 -0.8935 -0.3723
  179DOPC   H2S21899   5.992   5.079   5.618  3.1560  2.2712  1.7468
  179DOPC    C321900   5.565   4.877   5.547  0.4199 -0.5141 -0.3240
  179DOPC    HX21901   5.636   4.823   5.481  0.2117  0.5876 -1.5097
  179DOPC    HY21902   5.462   4.856   5.511  0.8093  0.0444 -1.8648
  179DOPC   O3121903   5.601   4.817   5.670 -0.1094 -0.3266 -0.0941
  179DOPC   C3121904   5.510   4.826   5.764  0.4856 -0.2984 -0.0799
  179DOPC   O3221905   5.406   4.884   5.759 -0.2614  0.3565  0.1953
  179DOPC   C3221906   5.564   4.745   5.876 -0.2181 -0.9560 -0.6171
  179DOPC   H2X21907   5.502   4.653   5.879 -1.0662 -0.4625 -2.3469
  179DOPC   H2Y21908   5.668   4.710   5.858  0.2908  0.4849 -0.6183
  179DOPC   C2321909   5.951   4.966   5.789 -0.6887 -1.0116 -0.6064
  179DOPC   H3R21910   6.060   4.954   5.806 -0.3542  3.2518  1.4525
  179DOPC   H3S21911   5.907   4.881   5.733 -0.3025 -0.2115 -2.1841
  179DOPC   C2421912   5.912   4.979   5.938 -0.5872  0.0767  0.4666
  179DOPC   H4R21913   5.926   4.881   5.987  1.1449 -0.5095 -1.0680
  179DOPC   H4S21914   5.802   4.996   5.942 -0.4150  1.9544 -1.0580
  179DOPC   C2521915   5.994   5.085   6.018 -0.1887 -0.3155  0.5368
  179DOPC   H5R21916   6.025   5.177   5.965  2.1903 -0.2881  1.8279
  179DOPC   H5S21917   6.094   5.045   6.046  0.3439  0.6181  0.0126
  179DOPC   C2621918   5.918   5.138   6.140 -0.8901  0.2388 -0.7487
  179DOPC   H6R21919   5.834   5.202   6.108  1.2610  1.9852 -3.3081
  179DOPC   H6S21920   5.975   5.210   6.203 -0.9906 -1.8116  1.8749
  179DOPC   C2721921   5.877   5.019   6.235 -0.1014  0.6531  0.1080
  179DOPC   H7R21922   5.834   4.936   6.173  0.9339  0.2726 -0.1207
  179DOPC   H7S21923   5.793   5.054   6.298  0.5915 -2.2768  2.9519
  179DOPC   C2821924   5.988   4.966   6.332  0.1276  0.1591  0.7008
  179DOPC   H8R21925   6.058   4.907   6.269  0.6037  0.9571  0.4610
  179DOPC   H8S21926   5.931   4.889   6.388 -0.8178 -0.3865 -0.9385
  179DOPC   C2921927   6.052   5.073   6.411 -0.4213 -0.2052 -0.6752
  179DOPC   H9R21928   6.140   5.119   6.364 -0.3059 -0.9917 -1.2468
  179DOPC  C21021929   6.026   5.095   6.549  0.3247  0.3328 -0.4411
  179DOPC  H10R21930   6.066   5.181   6.605  1.2542  1.5810 -2.8704
  179DOPC  C21121931   5.917   5.005   6.622 -0.1080 -0.3732 -0.0803
  179DOPC  H11R21932   5.961   4.907   6.647  0.7545 -0.5211 -2.0410
  179DOPC  H11S21933   5.828   4.996   6.556  0.0002 -0.2282 -0.2458
  179DOPC  C21221934   5.876   5.053   6.757 -0.6240  0.5278  0.8587
  179DOPC  H12R21935   5.775   5.010   6.773 -0.4187 -0.4553 -0.2896
  179DOPC  H12S21936   5.878   5.163   6.768  0.9224  0.5689  0.4084
  179DOPC  C21321937   5.966   4.994   6.871 -0.0489  0.0052  0.4760
  179DOPC  H13R21938   6.060   5.054   6.879  0.3993 -0.5577 -0.4502
  179DOPC  H13S21939   5.996   4.891   6.843  1.5178  0.5684 -0.0603
  179DOPC  C21421940   5.896   4.995   7.006 -0.6900  0.0204 -0.5071
  179DOPC  H14R21941   5.791   4.959   6.999 -0.6416 -0.1770 -0.2468
  179DOPC  H14S21942   5.895   5.101   7.038  0.9472 -0.4055  1.1231
  179DOPC  C21521943   5.961   4.908   7.113 -0.5260  0.0238 -0.7831
  179DOPC  H15R21944   5.929   4.945   7.213  1.8257 -2.9141  1.2465
  179DOPC  H15S21945   6.070   4.932   7.120 -0.7221  0.8684 -0.5319
  179DOPC  C21621946   5.930   4.759   7.098  0.5617  0.3689 -0.3308
  179DOPC  H16R21947   5.978   4.714   7.008 -2.1461 -3.9939  0.0818
  179DOPC  H16S21948   5.820   4.745   7.084  0.4739  0.6441  0.0759
  179DOPC  C21721949   5.967   4.673   7.219 -0.0962 -0.4219  0.1429
  179DOPC  H17R21950   6.077   4.669   7.233 -0.0017  2.8543  1.0309
  179DOPC  H17S21951   5.940   4.568   7.195  0.7501 -0.5994 -0.0817
  179DOPC  C21821952   5.914   4.719   7.354  0.0140  0.2436  0.4949
  179DOPC  H18R21953   5.924   4.640   7.431 -1.8825  0.8826  1.4562
  179DOPC  H18S21954   5.808   4.749   7.344  0.9846  3.4331 -2.6874
  179DOPC  H18T21955   5.979   4.803   7.386  0.1422  0.2883  0.1220
  179DOPC   C3321956   5.546   4.817   6.017  0.1082  0.5513  0.3840
  179DOPC   H3X21957   5.444   4.802   6.058  1.9136 -2.1006  4.7144
  179DOPC   H3Y21958   5.566   4.926   6.005 -0.2629  0.2959 -4.5120
  179DOPC   C3421959   5.641   4.761   6.130  0.7766 -0.1432 -0.5093
  179DOPC   H4X21960   5.638   4.835   6.212 -1.6050 -2.2032  1.4151
  179DOPC   H4Y21961   5.740   4.757   6.079  1.6667 -0.4462  1.1674
  179DOPC   C3521962   5.600   4.616   6.171 -0.5972 -0.8974 -0.4890
  179DOPC   H5X21963   5.597   4.552   6.079 -0.5990 -0.1842 -0.9918
  179DOPC   H5Y21964   5.493   4.621   6.201 -0.1003  1.7934  1.0704
  179DOPC   C3621965   5.697   4.553   6.281 -0.4950 -0.5178  0.5018
  179DOPC   H6X21966   5.656   4.452   6.304 -0.9851 -0.3248  0.4852
  179DOPC   H6Y21967   5.796   4.540   6.232 -1.1446 -0.0581 -1.0071
  179DOPC   C3721968   5.696   4.636   6.404 -0.3197 -0.4626  0.0417
  179DOPC   H7X21969   5.750   4.730   6.379  0.3453 -0.8098  0.1668
  179DOPC   H7Y21970   5.594   4.663   6.440 -1.0840 -2.1284 -0.7577
  179DOPC   C3821971   5.771   4.559   6.514  0.3221  0.1714 -1.3309
  179DOPC   H8X21972   5.873   4.537   6.475  0.0848 -0.7435 -1.4715
  179DOPC   H8Y21973   5.711   4.466   6.525 -0.6025  1.0272  1.5420
  179DOPC   C3921974   5.776   4.654   6.634 -0.3160 -0.0714  0.4536
  179DOPC   H9X21975   5.838   4.743   6.621 -0.0094 -0.2990  0.3374
  179DOPC  C31021976   5.723   4.628   6.754  0.1547  0.7854 -0.0088
  179DOPC  H10X21977   5.736   4.692   6.843 -0.4571  1.6384 -0.5167
  179DOPC  C31121978   5.642   4.503   6.779 -0.0464 -0.2311  0.1705
  179DOPC  H11X21979   5.703   4.413   6.759 -2.9078 -2.0365 -1.0835
  179DOPC  H11Y21980   5.563   4.480   6.704  0.8237 -2.6960 -0.0533
  179DOPC  C31221981   5.585   4.458   6.919  0.9699  0.1875 -0.0869
  179DOPC  H12X21982   5.653   4.383   6.964  0.7594 -0.4306 -0.7680
  179DOPC  H12Y21983   5.495   4.401   6.886  2.5637 -1.2021 -2.3004
  179DOPC  C31321984   5.542   4.566   7.012 -0.1706  0.2987  0.6240
  179DOPC  H13X21985   5.634   4.623   7.040  0.1867  0.2544 -0.4116
  179DOPC  H13Y21986   5.473   4.643   6.972  0.1993  0.5073  0.3735
  179DOPC  C31421987   5.469   4.513   7.136 -0.2667  0.5309 -0.2338
  179DOPC  H14X21988   5.360   4.537   7.135 -0.6211 -0.9399 -0.7251
  179DOPC  H14Y21989   5.490   4.404   7.128  0.7143  0.7936 -1.8183
  179DOPC  C31521990   5.539   4.567   7.262  0.3636  0.1012 -0.6923
  179DOPC  H15X21991   5.505   4.672   7.277  0.2368 -0.0512  0.1487
  179DOPC  H15Y21992   5.649   4.557   7.250  0.5492  1.8482 -0.6525
  179DOPC  C31621993   5.501   4.489   7.390 -0.2940  0.6435  0.6006
  179DOPC  H16X21994   5.392   4.507   7.401 -1.2709 -1.1988 -4.0328
  179DOPC  H16Y21995   5.512   4.380   7.370 -1.0796  0.3828  1.4799
  179DOPC  C31721996   5.576   4.531   7.523 -0.4586 -0.0392  0.0484
  179DOPC  H17X21997   5.564   4.457   7.605  0.7794 -0.7549 -0.3826
  179DOPC  H17Y21998   5.684   4.522   7.494 -0.5566 -0.4679 -0.2039
  179DOPC  C31821999   5.541   4.677   7.567  0.5288 -0.1926 -0.0595
  179DOPC  H18X22000   5.594   4.705   7.661  1.0681  1.6450 -0.8760
  179DOPC  H18Y22001   5.565   4.750   7.487 -0.8655 -1.1629 -1.4109
  179DOPC  H18Z22002   5.433   4.692   7.587  0.7057  0.6637  0.3071
  180DOPC     N22003   5.630   2.897   4.661  0.1801  0.4004  0.1125
  180DOPC   C1222004   5.708   3.022   4.710  0.8031  0.5196  0.4312
  180DOPC  H12A22005   5.811   3.023   4.677  0.3270  2.2418 -1.1836
  180DOPC  H12B22006   5.711   3.021   4.818  1.2177 -0.0266  0.4189
  180DOPC   C1322007   5.652   2.888   4.512 -0.6077  0.9735 -0.7078
  180DOPC  H13A22008   5.610   2.795   4.476 -0.9921  0.7213  0.3607
  180DOPC  H13B22009   5.607   2.972   4.459  0.4800  1.2213 -1.2704
  180DOPC  H13C22010   5.758   2.894   4.493  0.0100 -0.9421  1.6721
  180DOPC   C1422011   5.485   2.902   4.682  0.5080 -0.0180  0.3188
  180DOPC  H14A22012   5.452   2.997   4.643 -1.7319 -0.5942  0.6222
  180DOPC  H14B22013   5.439   2.812   4.644  0.7131 -0.4446  1.0667
  180DOPC  H14C22014   5.451   2.905   4.784  1.9576 -0.5281  0.8335
  180DOPC   C1522015   5.680   2.774   4.733  1.0251 -0.5666 -0.3449
  180DOPC  H15A22016   5.635   2.689   4.684 -3.6424  1.0789  0.5546
  180DOPC  H15B22017   5.630   2.772   4.829 -1.6817 -0.3172 -1.6507
  180DOPC  H15C22018   5.788   2.771   4.736  1.1740  1.8151 -0.9868
  180DOPC   C1122019   5.648   3.166   4.680  0.5471  0.4747 -0.2259
  180DOPC  H11A22020   5.715   3.247   4.717  0.1404  0.4799  0.5203
  180DOPC  H11B22021   5.646   3.168   4.569  1.5529 -0.3189 -0.2763
  180DOPC     P22022   5.482   3.228   4.870 -0.1864  0.7528 -0.0986
  180DOPC   O1322023   5.341   3.203   4.905 -0.3121 -0.0686  0.1154
  180DOPC   O1422024   5.528   3.368   4.879 -0.6967 -0.4810  0.4791
  180DOPC   O1222025   5.506   3.173   4.725  0.1520 -0.0077  0.0905
  180DOPC   O1122026   5.577   3.139   4.962  0.2565  0.2182  0.7174
  180DOPC    C122027   5.522   3.040   5.056 -0.4892 -0.1625  0.6581
  180DOPC    HA22028   5.608   2.977   5.085  1.5124  2.1746  0.1228
  180DOPC    HB22029   5.450   2.978   4.998 -0.9173  0.5029  0.4620
  180DOPC    C222030   5.453   3.095   5.183  0.3733 -0.7014 -1.0573
  180DOPC    HS22031   5.358   3.145   5.154 -1.2968 -1.5160  2.4633
  180DOPC   O2122032   5.543   3.181   5.244 -0.1572 -0.2089 -0.1259
  180DOPC   C2122033   5.484   3.271   5.324 -0.0885 -0.6285  0.6252
  180DOPC   O2222034   5.367   3.294   5.332  0.2319  0.4152  0.1551
  180DOPC   C2222035   5.593   3.341   5.404 -0.8696 -0.0079  0.0288
  180DOPC   H2R22036   5.544   3.422   5.460  0.9731  0.7095  0.6958
  180DOPC   H2S22037   5.662   3.383   5.327 -2.3964  1.2182 -0.7293
  180DOPC    C322038   5.416   2.977   5.276  0.0046 -0.2333  0.3782
  180DOPC    HX22039   5.506   2.921   5.308  0.0252  0.2738  1.2421
  180DOPC    HY22040   5.352   2.909   5.216 -0.2793  0.5790 -0.2618
  180DOPC   O3122041   5.356   3.021   5.401  0.5610  0.1335 -0.3819
  180DOPC   C3122042   5.219   3.040   5.395 -0.3576  1.1838 -0.2310
  180DOPC   O3222043   5.145   3.006   5.308 -0.0009 -1.1226  0.0884
  180DOPC   C3222044   5.167   3.099   5.517 -0.3322  0.2609 -0.7815
  180DOPC   H2X22045   5.224   3.191   5.542  1.7427 -1.4899  1.4112
  180DOPC   H2Y22046   5.060   3.124   5.503 -0.3712 -0.4045 -1.7430
  180DOPC   C2322047   5.681   3.249   5.493  0.1673 -0.0135 -0.3662
  180DOPC   H3R22048   5.757   3.313   5.542  0.6494  1.1496 -2.4958
  180DOPC   H3S22049   5.734   3.179   5.425 -0.1884 -0.2431 -0.4095
  180DOPC   C2422050   5.607   3.168   5.599 -0.3084 -0.5806 -0.1577
  180DOPC   H4R22051   5.683   3.108   5.653  1.5043  0.1401 -1.7712
  180DOPC   H4S22052   5.533   3.109   5.541  0.1128 -2.2667  0.9720
  180DOPC   C2522053   5.515   3.254   5.692  0.8608  0.2493  0.1683
  180DOPC   H5R22054   5.414   3.266   5.647  1.1088  0.5304 -0.3291
  180DOPC   H5S22055   5.557   3.356   5.706  0.3384  0.8208 -2.0586
  180DOPC   C2622056   5.477   3.184   5.825 -0.3515  0.6144  0.1806
  180DOPC   H6R22057   5.437   3.087   5.788  2.3551 -1.0551  1.2671
  180DOPC   H6S22058   5.401   3.242   5.881 -0.8809  0.8140 -0.7443
  180DOPC   C2722059   5.599   3.161   5.918  0.4808 -0.1081 -0.1378
  180DOPC   H7R22060   5.662   3.250   5.940  1.5732 -0.6800 -0.8229
  180DOPC   H7S22061   5.666   3.086   5.870 -0.8245 -0.3072 -1.7478
  180DOPC   C2822062   5.562   3.092   6.061 -0.3686  0.0602  0.8385
  180DOPC   H8R22063   5.653   3.046   6.105 -0.9455  0.5773  2.6594
  180DOPC   H8S22064   5.484   3.014   6.057 -0.0168 -0.2673  0.2404
  180DOPC   C2922065   5.515   3.193   6.162  0.6290  0.5941 -0.0271
  180DOPC   H9R22066   5.454   3.270   6.113 -1.1597 -1.2025 -0.7680
  180DOPC  C21022067   5.520   3.186   6.298  0.5852  0.3708  0.2249
  180DOPC  H10R22068   5.466   3.262   6.356 -0.3079 -0.7190  0.8630
  180DOPC  C21122069   5.580   3.075   6.377 -0.6515 -0.6710 -0.2861
  180DOPC  H11R22070   5.671   3.118   6.424 -2.1974  0.5327  1.7815
  180DOPC  H11S22071   5.611   2.979   6.330  1.6610 -0.9679  1.6592
  180DOPC  C21222072   5.484   3.034   6.483  0.2274  0.0968 -1.5555
  180DOPC  H12R22073   5.401   2.983   6.429  0.2153 -0.5773 -0.9250
  180DOPC  H12S22074   5.447   3.122   6.539 -0.1348 -1.5030  0.8915
  180DOPC  C21322075   5.537   2.934   6.587  0.1582  0.4084 -0.3040
  180DOPC  H13R22076   5.621   2.982   6.642  0.9754 -2.1700  0.8788
  180DOPC  H13S22077   5.567   2.845   6.527 -0.1123 -1.2422  1.8555
  180DOPC  C21422078   5.438   2.896   6.707 -0.6032 -0.4090  0.2831
  180DOPC  H14R22079   5.339   2.869   6.666 -0.0853 -0.2355 -1.1574
  180DOPC  H14S22080   5.429   2.985   6.772  2.8593 -1.1231  1.9762
  180DOPC  C21522081   5.501   2.786   6.789 -0.6132  0.2193 -0.2073
  180DOPC  H15R22082   5.547   2.703   6.733 -2.5876 -1.0990  0.0320
  180DOPC  H15S22083   5.421   2.732   6.845 -0.3769  0.5017  0.4116
  180DOPC  C21622084   5.603   2.844   6.889 -0.8663 -0.5178 -0.2831
  180DOPC  H16R22085   5.556   2.921   6.954  2.4219  0.5374  1.0709
  180DOPC  H16S22086   5.676   2.917   6.847 -3.3842  1.0670 -2.1546
  180DOPC  C21722087   5.679   2.734   6.975  0.2043  0.1151 -0.2210
  180DOPC  H17R22088   5.726   2.652   6.917 -0.8319 -1.2595  0.8157
  180DOPC  H17S22089   5.602   2.684   7.037 -0.5670  0.4091 -0.9326
  180DOPC  C21822090   5.783   2.797   7.065  0.3041  0.5973 -0.1377
  180DOPC  H18R22091   5.834   2.713   7.116 -1.3539 -1.1833 -1.3052
  180DOPC  H18S22092   5.739   2.866   7.141 -1.0867  0.9140 -1.1983
  180DOPC  H18T22093   5.859   2.856   7.009  0.8782 -0.2725 -0.2885
  180DOPC   C3322094   5.187   3.006   5.637 -0.0663 -0.1025 -0.3056
  180DOPC   H3X22095   5.294   2.980   5.648  0.0041  0.5977  0.9195
  180DOPC   H3Y22096   5.138   2.909   5.616  0.2262 -0.1737 -0.6767
  180DOPC   C3422097   5.136   3.057   5.776  0.0191 -0.1702  0.8020
  180DOPC   H4X22098   5.025   3.058   5.782 -0.0096  2.0223  0.6748
  180DOPC   H4Y22099   5.181   3.158   5.780  2.1082 -1.0006 -0.1999
  180DOPC   C3522100   5.184   2.964   5.884  0.1631 -0.4722  0.2497
  180DOPC   H5X22101   5.295   2.972   5.894 -0.0209  2.1122  1.1738
  180DOPC   H5Y22102   5.160   2.863   5.847  0.8926 -0.8265  0.7076
  180DOPC   C3622103   5.120   2.997   6.017 -0.6543  0.3939 -0.2145
  180DOPC   H6X22104   5.154   3.096   6.056 -0.3398 -0.0288  0.6308
  180DOPC   H6Y22105   5.010   2.989   6.023 -0.6183  0.8878  3.0211
  180DOPC   C3722106   5.178   2.893   6.122 -0.2885 -0.5777  0.2341
  180DOPC   H7X22107   5.166   2.792   6.077 -1.1012 -1.1613  1.6570
  180DOPC   H7Y22108   5.285   2.921   6.125 -0.9905  3.1482 -2.2528
  180DOPC   C3822109   5.121   2.906   6.262 -0.1329  0.5569 -0.2951
  180DOPC   H8X22110   5.013   2.908   6.240  0.0515  1.8152 -1.1696
  180DOPC   H8Y22111   5.139   3.009   6.299 -1.0998  0.7657 -0.3965
  180DOPC   C3922112   5.173   2.801   6.356  0.2551 -0.5424  0.2852
  180DOPC   H9X22113   5.280   2.807   6.383 -0.4239 -1.2217  3.5350
  180DOPC  C31022114   5.107   2.694   6.396  0.4139 -0.5134 -0.4995
  180DOPC  H10X22115   5.159   2.621   6.460  1.0291 -0.2029 -0.6392
  180DOPC  C31122116   4.965   2.664   6.351  0.2055 -0.1409  0.4341
  180DOPC  H11X22117   4.913   2.749   6.301  2.0041  1.9420  1.8984
  180DOPC  H11Y22118   4.896   2.639   6.434 -1.6444 -1.2970 -1.3586
  180DOPC  C31222119   4.962   2.536   6.261  1.3621  0.3284 -0.0170
  180DOPC  H12X22120   4.857   2.501   6.249  2.1184 -2.6682  1.2718
  180DOPC  H12Y22121   5.014   2.450   6.309  0.1320  0.1101  0.9749
  180DOPC  C31322122   5.005   2.562   6.120  0.6135  0.0483  0.1378
  180DOPC  H13X22123   4.963   2.664   6.106  2.6167  0.9534  0.4319
  180DOPC  H13Y22124   5.115   2.570   6.110  0.8298 -0.9586  1.3953
  180DOPC  C31422125   4.942   2.463   6.007  0.1806  0.3280 -0.1161
  180DOPC  H14X22126   4.951   2.358   6.042  0.1794  0.2514 -0.3409
  180DOPC  H14Y22127   4.838   2.497   5.986  1.0635  2.3971 -1.5089
  180DOPC  C31522128   5.023   2.472   5.880  0.2945  0.2432  0.0137
  180DOPC  H15X22129   5.123   2.428   5.900 -0.4593 -0.8947  1.4271
  180DOPC  H15Y22130   5.020   2.580   5.854 -0.6613  0.7381  2.0174
  180DOPC  C31622131   4.959   2.379   5.778 -0.5278  0.6651  0.3428
  180DOPC  H16X22132   4.981   2.273   5.804 -0.9315  0.5430  0.1931
  180DOPC  H16Y22133   4.850   2.399   5.771 -0.7074  0.0231  1.1341
  180DOPC  C31722134   5.020   2.402   5.638  0.2014  0.1482 -0.3745
  180DOPC  H17X22135   4.984   2.506   5.623 -1.2217  0.2752  2.8507
  180DOPC  H17Y22136   5.130   2.408   5.641  0.1748  0.6647 -0.3608
  180DOPC  C31822137   4.969   2.299   5.533  0.0999  0.0769 -0.1684
  180DOPC  H18X22138   5.011   2.328   5.435 -0.1089  1.5632  0.1598
  180DOPC  H18Y22139   5.003   2.196   5.556 -0.7359 -0.1668  0.0065
  180DOPC  H18Z22140   4.858   2.298   5.536  0.0684  0.9910  2.8928
  181DOPC     N22141   0.069   3.505   4.919 -0.3009  0.0745 -0.0180
  181DOPC   C1222142   0.114   3.529   5.063  0.1968  0.7133 -0.6205
  181DOPC  H12A22143   0.033   3.502   5.130  1.4453 -0.3409  0.5231
  181DOPC  H12B22144   0.133   3.634   5.078  0.4201  0.8839 -1.9549
  181DOPC   C1322145   0.010   3.373   4.893 -0.0911 -0.3051  0.8569
  181DOPC  H13A22146   0.041   3.324   4.802 -0.7087  0.7552  0.0639
  181DOPC  H13B22147   0.038   3.298   4.966  0.1539 -1.9841 -0.8947
  181DOPC  H13C22148  -0.097   3.386   4.894 -0.1745 -0.6495 -1.1566
  181DOPC   C1422149   0.173   3.530   4.815  0.2484  0.2955  0.1296
  181DOPC  H14A22150   0.219   3.627   4.828  1.6106 -0.0336 -1.8952
  181DOPC  H14B22151   0.246   3.451   4.827  0.5679  0.2234 -1.9931
  181DOPC  H14C22152   0.119   3.537   4.722 -0.4048 -1.7445  0.2979
  181DOPC   C1522153  -0.044   3.596   4.893  0.4146  0.1937 -0.8237
  181DOPC  H15A22154  -0.046   3.617   4.788 -0.7220  1.1216 -0.6237
  181DOPC  H15B22155  -0.043   3.692   4.943  2.7202  0.1834 -0.7019
  181DOPC  H15C22156  -0.140   3.559   4.925  1.0894 -0.5271  0.5040
  181DOPC   C1122157   0.233   3.443   5.109 -0.2178 -0.1641  0.3647
  181DOPC  H11A22158   0.226   3.445   5.220 -0.9818 -1.2991  0.3623
  181DOPC  H11B22159   0.223   3.336   5.079  1.5820 -0.0853 -0.6532
  181DOPC     P22160   0.423   3.633   5.072 -0.1697 -1.1041 -0.4113
  181DOPC   O1322161   0.345   3.722   5.164 -0.5081  0.6995  0.8911
  181DOPC   O1422162   0.456   3.685   4.935 -0.0108  0.4682  0.3311
  181DOPC   O1222163   0.352   3.493   5.052  0.0031  0.4072 -0.3865
  181DOPC   O1122164   0.566   3.601   5.145 -0.2847 -0.4298  0.2970
  181DOPC    C122165   0.565   3.508   5.255 -0.2227  0.4685 -0.2865
  181DOPC    HA22166   0.603   3.414   5.209  1.3657  0.4318  0.9968
  181DOPC    HB22167   0.466   3.499   5.304 -0.4300  0.6893 -0.6580
  181DOPC    C222168   0.675   3.546   5.364  0.4456 -0.2767  0.9586
  181DOPC    HS22169   0.777   3.552   5.320  1.6367 -0.6891  3.4658
  181DOPC   O2122170   0.675   3.438   5.468 -0.3093 -0.0795  0.1109
  181DOPC   C2122171   0.711   3.316   5.423 -0.2332 -0.2142  0.4290
  181DOPC   O2222172   0.768   3.290   5.315  0.0147  0.3537 -0.0680
  181DOPC   C2222173   0.680   3.209   5.523  1.2707 -0.9912  0.3723
  181DOPC   H2R22174   0.742   3.215   5.615  0.0053  1.7980  1.1438
  181DOPC   H2S22175   0.699   3.114   5.467 -1.1384 -1.1282 -0.3002
  181DOPC    C322176   0.642   3.685   5.431 -0.2409 -0.2849  0.6928
  181DOPC    HX22177   0.536   3.690   5.463 -0.2701  1.5948  0.4172
  181DOPC    HY22178   0.658   3.773   5.365  0.6241 -1.3556 -0.5803
  181DOPC   O3122179   0.717   3.694   5.550 -0.8275  0.0976 -0.2508
  181DOPC   C3122180   0.828   3.780   5.547  0.4761 -0.2257  0.7154
  181DOPC   O3222181   0.872   3.834   5.446  0.3226  0.3208  0.1134
  181DOPC   C3222182   0.884   3.774   5.679 -0.0082 -0.0526  0.0883
  181DOPC   H2X22183   0.989   3.811   5.674  0.4134 -0.7136  2.5105
  181DOPC   H2Y22184   0.822   3.838   5.746  1.2234  1.4249 -0.1322
  181DOPC   C2322185   0.535   3.212   5.581 -0.0068  0.1887  0.1034
  181DOPC   H3R22186   0.467   3.205   5.493  1.8327  1.0345 -1.4385
  181DOPC   H3S22187   0.507   3.310   5.625 -1.4092 -0.1515  0.0255
  181DOPC   C2422188   0.503   3.100   5.682 -0.1196  0.3803  0.2889
  181DOPC   H4R22189   0.569   3.120   5.769 -0.0964 -1.0117  0.6082
  181DOPC   H4S22190   0.515   2.997   5.642  0.9574 -0.3893  2.4432
  181DOPC   C2522191   0.367   3.117   5.746 -0.3989 -0.4798  0.0220
  181DOPC   H5R22192   0.286   3.094   5.674 -0.7572  0.5329  0.0862
  181DOPC   H5S22193   0.350   3.220   5.783 -0.7240 -1.1931  2.0044
  181DOPC   C2622194   0.362   3.030   5.875 -0.8449  0.2456  0.2731
  181DOPC   H6R22195   0.431   3.062   5.956  0.0185 -2.2216  0.5831
  181DOPC   H6S22196   0.393   2.927   5.850  2.4638  0.4318  2.8587
  181DOPC   C2722197   0.225   3.045   5.933  0.7199 -0.3640  0.0395
  181DOPC   H7R22198   0.140   3.009   5.873  1.6790  1.8955 -2.8819
  181DOPC   H7S22199   0.209   3.154   5.949  1.3740 -0.2747  0.1141
  181DOPC   C2822200   0.218   2.980   6.078  0.2049  0.2724 -0.4448
  181DOPC   H8R22201   0.295   3.030   6.141 -1.0616  0.1844  1.2433
  181DOPC   H8S22202   0.252   2.875   6.066  0.6175  0.6751 -3.7763
  181DOPC   C2922203   0.074   2.994   6.137 -0.1401 -0.1488  0.1893
  181DOPC   H9R22204  -0.002   3.035   6.069 -0.3979 -0.3681  0.3399
  181DOPC  C21022205   0.034   2.960   6.260  0.2472  0.2090 -0.1061
  181DOPC  H10R22206  -0.075   2.954   6.274  0.0894 -2.1291 -1.7329
  181DOPC  C21122207   0.127   2.906   6.370  0.4039  0.1544  0.6001
  181DOPC  H11R22208   0.228   2.894   6.325  1.2163  4.2433  0.9721
  181DOPC  H11S22209   0.084   2.810   6.407 -2.1430  0.3785 -1.4694
  181DOPC  C21222210   0.145   2.996   6.487 -0.6707 -0.0545  0.0185
  181DOPC  H12R22211   0.051   3.004   6.545 -0.7789 -0.4015 -0.1095
  181DOPC  H12S22212   0.173   3.099   6.456  1.0026 -0.5105 -0.1085
  181DOPC  C21322213   0.259   2.932   6.567 -0.8620 -0.5600 -0.4257
  181DOPC  H13R22214   0.353   2.941   6.508 -0.5357  2.2699  0.4014
  181DOPC  H13S22215   0.245   2.826   6.599 -1.0123  0.1881  2.2460
  181DOPC  C21422216   0.278   2.998   6.711  0.6054  0.4021  0.3318
  181DOPC  H14R22217   0.379   2.968   6.744  0.7585  0.2475 -0.2663
  181DOPC  H14S22218   0.197   2.959   6.777 -0.1537 -0.6463 -1.1626
  181DOPC  C21522219   0.265   3.151   6.710  0.0881 -0.0361  0.3445
  181DOPC  H15R22220   0.258   3.181   6.817 -4.2560 -0.7792  0.4602
  181DOPC  H15S22221   0.178   3.191   6.654 -0.2649  1.4341  1.8494
  181DOPC  C21622222   0.397   3.213   6.661 -0.5959 -0.0374  0.1595
  181DOPC  H16R22223   0.369   3.312   6.621  1.0027 -0.0441 -1.1224
  181DOPC  H16S22224   0.440   3.155   6.576  0.4148 -0.1407  0.7158
  181DOPC  C21722225   0.509   3.244   6.761  0.2168  0.3234 -0.2981
  181DOPC  H17R22226   0.590   3.294   6.705  1.2415 -1.0582 -0.0925
  181DOPC  H17S22227   0.558   3.151   6.798  1.8612  0.8128 -1.1367
  181DOPC  C21822228   0.477   3.336   6.878  0.1725 -0.0654  0.4143
  181DOPC  H18R22229   0.395   3.293   6.940  1.1460  1.1777  2.7020
  181DOPC  H18S22230   0.456   3.435   6.832 -1.9531 -0.7866 -0.2757
  181DOPC  H18T22231   0.569   3.346   6.940  0.8376 -2.5813 -0.0626
  181DOPC   C3322232   0.888   3.634   5.749 -0.3850  0.0072 -0.7121
  181DOPC   H3X22233   0.955   3.565   5.694 -0.2142 -0.7195  0.3695
  181DOPC   H3Y22234   0.791   3.580   5.759 -0.1384 -0.3129  0.0588
  181DOPC   C3422235   0.948   3.638   5.890 -0.3921  0.1294  0.3879
  181DOPC   H4X22236   1.037   3.704   5.881  0.0097 -0.5480 -1.0690
  181DOPC   H4Y22237   0.991   3.537   5.905  0.2417 -0.0350 -1.9841
  181DOPC   C3522238   0.859   3.679   6.009  0.3296  0.4512  0.0025
  181DOPC   H5X22239   0.762   3.625   6.000 -0.4957  1.9867 -0.8510
  181DOPC   H5Y22240   0.850   3.790   6.012  1.1174  0.6444 -2.5994
  181DOPC   C3622241   0.915   3.610   6.133 -0.0882  0.1730 -0.5341
  181DOPC   H6X22242   0.916   3.502   6.107 -0.0537  0.1126 -0.2828
  181DOPC   H6Y22243   1.012   3.659   6.156  1.1391 -1.7069 -1.4563
  181DOPC   C3722244   0.831   3.626   6.255  0.2718  0.1022  0.0646
  181DOPC   H7X22245   0.821   3.728   6.297 -1.6611  0.6012 -1.4443
  181DOPC   H7Y22246   0.730   3.597   6.217  0.9261  1.8771 -3.4564
  181DOPC   C3822247   0.860   3.531   6.366 -0.2031  0.3673  0.9278
  181DOPC   H8X22248   0.860   3.424   6.334 -0.1447 -0.0116  2.1190
  181DOPC   H8Y22249   0.773   3.545   6.435  0.7569  0.7139  2.0956
  181DOPC   C3922250   0.987   3.556   6.435 -0.4734  0.3443  0.2585
  181DOPC   H9X22251   1.069   3.585   6.368 -0.2226 -2.6922 -0.9392
  181DOPC  C31022252   1.013   3.568   6.567 -0.6413  0.1075 -0.6399
  181DOPC  H10X22253   1.120   3.579   6.591  0.0716 -1.4432 -2.6813
  181DOPC  C31122254   0.919   3.530   6.683  0.3329  0.1933  0.2798
  181DOPC  H11X22255   0.884   3.425   6.673  1.6215 -0.1698 -0.5998
  181DOPC  H11Y22256   0.824   3.587   6.678 -0.6625 -1.3892  0.3550
  181DOPC  C31222257   0.981   3.550   6.822 -0.5276 -0.2662 -0.3095
  181DOPC  H12X22258   1.070   3.483   6.830 -0.1920 -0.0087 -1.6710
  181DOPC  H12Y22259   0.905   3.514   6.895 -0.3457  0.3327  0.1905
  181DOPC  C31322260   1.025   3.696   6.864  0.9724  0.6950 -0.4226
  181DOPC  H13X22261   1.084   3.739   6.780  0.1292 -1.5422 -2.2657
  181DOPC  H13Y22262   0.928   3.738   6.898  0.3091 -1.5986  0.7650
  181DOPC  C31422263   1.094   3.704   7.003 -0.4241 -0.1922 -0.6496
  181DOPC  H14X22264   1.032   3.646   7.074 -0.5116  0.0696 -0.5082
  181DOPC  H14Y22265   1.184   3.641   6.986  0.9892  0.2315  3.8528
  181DOPC  C31522266   1.137   3.846   7.040  0.0869  0.2266  0.7531
  181DOPC  H15X22267   1.045   3.902   7.015  0.4829  0.5453 -0.0112
  181DOPC  H15Y22268   1.217   3.883   6.973  0.4897 -0.9274  0.5806
  181DOPC  C31622269   1.188   3.846   7.188  0.3928 -0.0332 -0.0617
  181DOPC  H16X22270   1.119   3.788   7.253  0.7567  0.4038  0.7221
  181DOPC  H16Y22271   1.288   3.797   7.190  0.6875  0.3899 -2.0801
  181DOPC  C31722272   1.201   3.985   7.237  0.6125  0.1363  0.4291
  181DOPC  H17X22273   1.282   4.033   7.178  0.7339 -0.6849 -0.0845
  181DOPC  H17Y22274   1.100   4.030   7.224 -0.0420 -1.5570 -0.5974
  181DOPC  C31822275   1.241   4.004   7.380 -0.3433 -0.3082  0.1737
  181DOPC  H18X22276   1.270   4.109   7.402  1.5900 -0.3112 -1.9734
  181DOPC  H18Y22277   1.173   3.955   7.453 -0.0151  0.5841  1.0926
  181DOPC  H18Z22278   1.334   3.946   7.394 -0.7882 -0.6650  1.8206
  182DOPC     N22279   2.000   0.452   4.489 -0.7982 -0.4753  0.1634
  182DOPC   C1222280   1.973   0.552   4.596 -0.4118 -0.3715  0.0298
  182DOPC  H12A22281   1.868   0.552   4.620  0.0475  0.7173  2.3640
  182DOPC  H12B22282   2.001   0.648   4.555  0.6732 -1.1722 -1.1959
  182DOPC   C1322283   1.920   0.480   4.370 -0.7784  0.3446 -0.3362
  182DOPC  H13A22284   1.926   0.396   4.302  3.3195 -0.6641  0.9498
  182DOPC  H13B22285   1.820   0.515   4.388 -0.1979  2.2178 -0.4742
  182DOPC  H13C22286   1.968   0.565   4.322  2.6034 -0.8964  0.5209
  182DOPC   C1422287   1.968   0.317   4.538  0.4360  0.4605 -0.6161
  182DOPC  H14A22288   1.864   0.301   4.562  0.6318 -0.2761 -0.2430
  182DOPC  H14B22289   1.984   0.236   4.469  0.8105  1.1419 -1.3454
  182DOPC  H14C22290   2.016   0.299   4.633 -0.8260 -2.6680 -0.4769
  182DOPC   C1522291   2.152   0.452   4.457 -0.2443 -0.1982  0.3126
  182DOPC  H15A22292   2.178   0.545   4.408  1.3936 -1.4586 -1.3450
  182DOPC  H15B22293   2.185   0.377   4.387  0.2341  0.5913 -0.3254
  182DOPC  H15C22294   2.210   0.451   4.548  0.1851  3.6790  0.2733
  182DOPC   C1122295   2.049   0.533   4.732 -0.0639  0.0927  0.2773
  182DOPC  H11A22296   2.000   0.600   4.805 -2.0911  0.0416 -0.9420
  182DOPC  H11B22297   2.028   0.427   4.759 -0.8231  0.0398 -0.4560
  182DOPC     P22298   2.260   0.671   4.810  0.1981  0.1174 -0.1590
  182DOPC   O1322299   2.214   0.807   4.761 -0.9930  0.0630 -0.8189
  182DOPC   O1422300   2.407   0.641   4.814  0.0241  0.2208  0.0597
  182DOPC   O1222301   2.187   0.568   4.719  0.1637 -0.1939  0.0147
  182DOPC   O1122302   2.203   0.643   4.954  0.1424  0.3062  0.0800
  182DOPC    C122303   2.295   0.594   5.060  0.1019  0.0205 -0.5545
  182DOPC    HA22304   2.351   0.507   5.022  1.0909  0.4698 -0.1545
  182DOPC    HB22305   2.231   0.558   5.144 -0.4560 -0.2177 -1.0781
  182DOPC    C222306   2.398   0.690   5.120  0.1766 -0.4224 -0.3774
  182DOPC    HS22307   2.463   0.729   5.039  0.5536  0.8346  0.4849
  182DOPC   O2122308   2.473   0.618   5.213  0.1550 -0.0436 -0.4963
  182DOPC   C2122309   2.556   0.669   5.290  0.5264 -0.1104  0.2483
  182DOPC   O2222310   2.614   0.776   5.286 -0.2993  0.3173  0.2744
  182DOPC   C2222311   2.594   0.564   5.399 -0.4050  0.3419  0.2237
  182DOPC   H2R22312   2.688   0.520   5.360  0.8563  2.1990  1.0023
  182DOPC   H2S22313   2.513   0.488   5.407  0.4666 -0.7311 -0.7230
  182DOPC    C322314   2.331   0.811   5.191  0.2886  0.5210  0.1917
  182DOPC    HX22315   2.267   0.857   5.113  0.8536  0.4246 -0.3404
  182DOPC    HY22316   2.407   0.888   5.216 -0.7815  1.4638  0.5857
  182DOPC   O3122317   2.264   0.757   5.308 -0.0605  0.1712 -0.3898
  182DOPC   C3122318   2.186   0.840   5.376  0.0466 -0.2096 -0.2578
  182DOPC   O3222319   2.154   0.955   5.342  0.2401  0.9776  0.3314
  182DOPC   C3222320   2.141   0.765   5.504  0.2991 -0.1107 -0.6158
  182DOPC   H2X22321   2.069   0.685   5.474 -0.6879 -0.2418  1.8374
  182DOPC   H2Y22322   2.233   0.714   5.540 -0.5793 -1.8115 -0.6459
  182DOPC   C2322323   2.626   0.622   5.535  0.1321  0.1559 -0.6102
  182DOPC   H3R22324   2.695   0.708   5.517  0.5975  0.3403  1.7031
  182DOPC   H3S22325   2.668   0.535   5.590 -1.0885 -1.8905 -2.7040
  182DOPC   C2422326   2.498   0.669   5.615 -0.0168  0.6750  0.5553
  182DOPC   H4R22327   2.430   0.582   5.622  0.3435  0.4341  1.0724
  182DOPC   H4S22328   2.460   0.753   5.552  0.3935  0.5953  0.1989
  182DOPC   C2522329   2.535   0.722   5.754  0.2053 -0.0468 -0.5894
  182DOPC   H5R22330   2.616   0.797   5.738 -1.2061  2.2848  2.1857
  182DOPC   H5S22331   2.572   0.627   5.799  0.3449  0.1168 -0.3542
  182DOPC   C2622332   2.431   0.797   5.847 -0.4415  0.1499  0.2620
  182DOPC   H6R22333   2.349   0.730   5.881 -0.1764 -0.4939 -0.3359
  182DOPC   H6S22334   2.378   0.876   5.789  0.0883 -1.1238 -2.0666
  182DOPC   C2722335   2.500   0.870   5.969  0.8737 -0.5811 -0.5481
  182DOPC   H7R22336   2.590   0.913   5.920  0.5026 -0.6858 -1.3506
  182DOPC   H7S22337   2.517   0.791   6.045 -2.9255 -1.0703 -0.0061
  182DOPC   C2822338   2.411   0.985   6.030 -0.5089 -0.3620  0.1992
  182DOPC   H8R22339   2.359   1.037   5.946  0.1168  1.0429  0.6508
  182DOPC   H8S22340   2.471   1.068   6.071  1.5685 -1.5488 -0.2966
  182DOPC   C2922341   2.315   0.926   6.129  0.1613  0.2348  0.2195
  182DOPC   H9R22342   2.242   0.856   6.087 -0.5115  2.3420 -2.3537
  182DOPC  C21022343   2.309   0.959   6.265 -0.5455  0.1061 -0.2694
  182DOPC  H10R22344   2.250   0.898   6.335  1.1982  0.3781  1.5277
  182DOPC  C21122345   2.409   1.055   6.332 -0.4819 -0.2187  0.6986
  182DOPC  H11R22346   2.371   1.159   6.344 -0.4835 -0.2792  1.2855
  182DOPC  H11S22347   2.505   1.050   6.277 -0.8456  1.6465 -0.2035
  182DOPC  C21222348   2.432   1.015   6.479 -0.6071  0.3287 -0.1565
  182DOPC  H12R22349   2.503   1.090   6.519 -0.5650  1.5196 -2.3099
  182DOPC  H12S22350   2.478   0.914   6.493  1.1900  1.3330  1.8218
  182DOPC  C21322351   2.307   1.022   6.562  0.0073 -0.5975  0.1130
  182DOPC  H13R22352   2.234   0.946   6.525 -1.8238  1.2832 -0.3368
  182DOPC  H13S22353   2.264   1.124   6.558 -1.5485 -1.1782  1.0010
  182DOPC  C21422354   2.312   0.988   6.709 -0.5170  0.7940  0.5621
  182DOPC  H14R22355   2.368   0.895   6.731 -1.0187  0.1025 -0.9391
  182DOPC  H14S22356   2.209   0.969   6.746 -0.9508 -0.6350 -1.2504
  182DOPC  C21522357   2.350   1.109   6.793  0.1216 -0.4362 -0.4425
  182DOPC  H15R22358   2.283   1.193   6.766 -0.1498 -1.1942 -2.2289
  182DOPC  H15S22359   2.453   1.138   6.763  0.5112  1.2965  2.2043
  182DOPC  C21622360   2.329   1.096   6.943 -0.5356 -0.1065 -0.6630
  182DOPC  H16R22361   2.389   1.015   6.991 -1.0618 -1.3113 -1.9763
  182DOPC  H16S22362   2.221   1.070   6.953 -0.2702 -0.8762  0.4965
  182DOPC  C21722363   2.345   1.224   7.014 -0.2259  0.3442 -0.1232
  182DOPC  H17R22364   2.280   1.224   7.104 -0.6736 -0.2163 -0.4393
  182DOPC  H17S22365   2.319   1.310   6.949 -0.6444  0.7616  0.5847
  182DOPC  C21822366   2.493   1.234   7.065  0.7318 -0.1167  0.1166
  182DOPC  H18R22367   2.559   1.223   6.976  0.8042 -1.3153  0.3085
  182DOPC  H18S22368   2.500   1.158   7.145 -3.4956 -0.8313  0.0364
  182DOPC  H18T22369   2.525   1.335   7.100 -1.1480 -0.3785  2.8301
  182DOPC   C3322370   2.070   0.863   5.609  0.1996 -0.1468  0.2386
  182DOPC   H3X22371   1.972   0.892   5.565  0.1519  0.0223  0.4539
  182DOPC   H3Y22372   2.131   0.952   5.635 -1.9554  1.6380 -0.5455
  182DOPC   C3422373   2.024   0.792   5.734  0.2464 -0.6778 -0.4029
  182DOPC   H4X22374   2.114   0.757   5.789 -0.2764 -1.1042  0.1872
  182DOPC   H4Y22375   1.955   0.708   5.709 -1.7901  1.1374 -1.2047
  182DOPC   C3522376   1.950   0.883   5.837  0.0821 -0.0395  0.1084
  182DOPC   H5X22377   1.853   0.914   5.794  0.1520  1.1994  0.8233
  182DOPC   H5Y22378   2.008   0.973   5.865  0.1287 -0.2943  0.8562
  182DOPC   C3622379   1.939   0.815   5.974  0.5108 -0.5461 -0.3754
  182DOPC   H6X22380   1.865   0.732   5.968 -0.6948  0.2736  1.8741
  182DOPC   H6Y22381   2.043   0.787   6.001  0.9657  0.4092 -1.0683
  182DOPC   C3722382   1.870   0.908   6.081  0.0157  0.0629 -0.2382
  182DOPC   H7X22383   1.939   0.986   6.121 -0.5083 -0.2298  1.2689
  182DOPC   H7Y22384   1.778   0.944   6.029  1.6108  1.6951 -2.1392
  182DOPC   C3822385   1.842   0.833   6.219  0.9879  0.8403 -0.6004
  182DOPC   H8X22386   1.773   0.749   6.197 -0.6002  1.6062  1.1208
  182DOPC   H8Y22387   1.786   0.906   6.282  0.3876  0.8027 -1.0780
  182DOPC   C3922388   1.960   0.782   6.294  0.0528  0.4246  0.0103
  182DOPC   H9X22389   2.053   0.774   6.236 -1.2880 -0.6200 -2.1127
  182DOPC  C31022390   1.957   0.745   6.418 -0.7218 -0.7408  0.7046
  182DOPC  H10X22391   2.049   0.699   6.457 -0.2153 -0.2665  0.1004
  182DOPC  C31122392   1.840   0.739   6.509  0.3780 -0.0514  0.0744
  182DOPC  H11X22393   1.831   0.643   6.564 -1.2249  1.2759  2.3459
  182DOPC  H11Y22394   1.744   0.747   6.454  0.2472 -3.6172 -0.4492
  182DOPC  C31222395   1.846   0.843   6.627 -0.5795 -0.4301 -0.3064
  182DOPC  H12X22396   1.753   0.843   6.688  0.7312  0.4031  1.8341
  182DOPC  H12Y22397   1.848   0.948   6.591 -1.0868 -0.1836  0.3595
  182DOPC  C31322398   1.963   0.823   6.724 -0.1158  0.3167  0.4605
  182DOPC  H13X22399   1.948   0.719   6.760 -1.4535  1.0991  2.3279
  182DOPC  H13Y22400   2.057   0.830   6.665  0.4433 -1.2754  1.1143
  182DOPC  C31422401   1.975   0.925   6.832 -0.4918 -0.1846  0.0314
  182DOPC  H14X22402   2.061   0.897   6.897 -0.1161 -1.7728 -1.1054
  182DOPC  H14Y22403   1.992   1.022   6.780  1.2498 -1.2289 -1.4475
  182DOPC  C31522404   1.846   0.928   6.918 -0.5830  1.3062  0.2199
  182DOPC  H15X22405   1.833   0.833   6.975  0.0850  2.5397  2.5762
  182DOPC  H15Y22406   1.756   0.949   6.857 -0.3586 -1.0366 -1.0068
  182DOPC  C31622407   1.859   1.043   7.020  0.4897  0.1482 -0.0132
  182DOPC  H16X22408   1.899   1.133   6.967  0.0450 -1.1765 -2.7489
  182DOPC  H16Y22409   1.760   1.071   7.063  0.3906 -0.1375 -0.0544
  182DOPC  C31722410   1.958   1.023   7.134 -0.1025 -0.9339  0.3641
  182DOPC  H17X22411   1.921   0.936   7.193  1.2099 -0.8853  1.3171
  182DOPC  H17Y22412   2.061   1.003   7.097  0.4150 -0.9996  1.7558
  182DOPC  C31822413   1.963   1.148   7.228 -0.7036 -0.5695 -0.7067
  182DOPC  H18X22414   1.983   1.240   7.169  0.6530 -0.4799 -0.1336
  182DOPC  H18Y22415   1.861   1.151   7.273 -0.7168 -1.9124 -0.6209
  182DOPC  H18Z22416   2.043   1.130   7.302  0.5693 -1.7569 -2.3084
  183DOPC     N22417   6.836   5.761   5.289 -0.0241 -0.2967  0.2433
  183DOPC   C1222418   6.747   5.685   5.388  0.0847 -0.4078 -0.2011
  183DOPC  H12A22419   6.763   5.732   5.484 -0.0286 -0.3459 -0.2117
  183DOPC  H12B22420   6.790   5.588   5.409  1.1602 -0.3471 -1.9322
  183DOPC   C1322421   6.842   5.683   5.163  0.2223  0.1556 -0.1280
  183DOPC  H13A22422   6.923   5.720   5.102  1.9595 -2.1206  0.6658
  183DOPC  H13B22423   6.855   5.580   5.192 -1.1087 -0.6854 -2.3113
  183DOPC  H13C22424   6.751   5.697   5.107  0.1468 -1.3719 -0.4199
  183DOPC   C1422425   6.971   5.780   5.351  0.7267 -0.3115 -0.6838
  183DOPC  H14A22426   7.045   5.818   5.282  0.3436  0.3673 -0.7313
  183DOPC  H14B22427   6.963   5.846   5.436  3.7951  0.2342 -0.6893
  183DOPC  H14C22428   7.018   5.686   5.378  0.2679  0.3499  2.9483
  183DOPC   C1522429   6.780   5.892   5.265 -0.5744 -0.1743  0.0960
  183DOPC  H15A22430   6.766   5.937   5.362  1.9582 -0.1385  0.5258
  183DOPC  H15B22431   6.682   5.897   5.219 -0.2811  0.7483 -0.4734
  183DOPC  H15C22432   6.847   5.960   5.213  0.5335  0.5114  2.3009
  183DOPC   C1122433   6.589   5.671   5.363  0.7010  0.1543  0.3486
  183DOPC  H11A22434   6.548   5.605   5.441 -1.3658 -1.3476 -1.8773
  183DOPC  H11B22435   6.556   5.775   5.384 -1.4382 -0.4806  0.3917
  183DOPC     P22436   6.544   5.471   5.189  0.2982 -0.5048  0.0705
  183DOPC   O1322437   6.689   5.430   5.175 -0.0530 -0.3785  0.1237
  183DOPC   O1422438   6.463   5.446   5.069 -0.3035 -0.1928  0.5672
  183DOPC   O1222439   6.542   5.629   5.229 -0.2844  0.8851  0.2331
  183DOPC   O1122440   6.470   5.404   5.300  0.3545 -0.1429  0.1530
  183DOPC    C122441   6.434   5.267   5.290  0.4499 -0.6182  0.1790
  183DOPC    HA22442   6.462   5.227   5.190  0.2221  1.9540 -0.9950
  183DOPC    HB22443   6.323   5.255   5.289  0.5601 -2.2421  1.8219
  183DOPC    C222444   6.508   5.182   5.396  0.7254  0.0317 -0.0885
  183DOPC    HS22445   6.471   5.079   5.377  0.7273  0.0539 -0.2087
  183DOPC   O2122446   6.473   5.222   5.531 -0.3167 -0.0550 -0.2892
  183DOPC   C2122447   6.345   5.184   5.571 -0.2816 -0.0137  0.1139
  183DOPC   O2222448   6.275   5.117   5.494  0.2569 -0.1726 -0.0127
  183DOPC   C2222449   6.308   5.227   5.713 -0.0756  0.0176  0.0474
  183DOPC   H2R22450   6.248   5.146   5.758 -0.6235  0.7616  0.6761
  183DOPC   H2S22451   6.247   5.319   5.703  1.2090  1.0703  1.5029
  183DOPC    C322452   6.663   5.170   5.366 -0.4527  0.1518 -0.7921
  183DOPC    HX22453   6.704   5.268   5.398 -0.6994  0.3339 -1.0268
  183DOPC    HY22454   6.670   5.155   5.256  0.5785  0.6124 -0.7972
  183DOPC   O3122455   6.724   5.055   5.431 -0.7675 -0.2367 -0.8722
  183DOPC   C3122456   6.820   5.087   5.522  0.4727 -0.6569  0.0897
  183DOPC   O3222457   6.879   5.195   5.525  0.1075  0.1576 -0.1473
  183DOPC   C3222458   6.860   4.959   5.607  0.0737 -0.8761  0.0286
  183DOPC   H2X22459   6.808   4.874   5.558  1.2515 -0.0308 -2.9075
  183DOPC   H2Y22460   6.969   4.938   5.609  0.3334  0.4415  0.9613
  183DOPC   C2322461   6.426   5.270   5.804 -0.2722  0.2938 -0.3402
  183DOPC   H3R22462   6.486   5.343   5.746  0.1381 -1.9222 -2.8655
  183DOPC   H3S22463   6.494   5.184   5.821 -0.1249 -0.2176 -3.0350
  183DOPC   C2422464   6.379   5.327   5.943  0.2320 -0.0527 -0.1028
  183DOPC   H4R22465   6.334   5.244   6.002  2.7025 -0.2357  1.7027
  183DOPC   H4S22466   6.300   5.404   5.934 -0.1804 -0.0933  2.4188
  183DOPC   C2522467   6.489   5.380   6.032 -0.1105 -0.7955  0.7239
  183DOPC   H5R22468   6.515   5.483   6.002 -4.0957  0.1883  0.0234
  183DOPC   H5S22469   6.575   5.310   6.028 -0.5102 -1.2412 -0.8621
  183DOPC   C2622470   6.436   5.410   6.179 -0.0843 -0.5934  0.2177
  183DOPC   H6R22471   6.350   5.480   6.185 -0.9552 -1.7578  3.6354
  183DOPC   H6S22472   6.520   5.468   6.222  0.2107  0.0489 -1.1762
  183DOPC   C2722473   6.399   5.291   6.267 -0.0962  0.3209  0.0878
  183DOPC   H7R22474   6.488   5.224   6.265 -0.0785  0.2420  2.1992
  183DOPC   H7S22475   6.306   5.237   6.237 -0.2279  0.4595  0.2462
  183DOPC   C2822476   6.368   5.331   6.419 -0.5981 -1.1516  0.4756
  183DOPC   H8R22477   6.266   5.376   6.418  0.4564  1.4679 -0.1338
  183DOPC   H8S22478   6.430   5.418   6.450  1.4144 -2.7743  1.1565
  183DOPC   C2922479   6.375   5.217   6.513  0.3577 -0.4251 -0.1600
  183DOPC   H9R22480   6.375   5.117   6.470  1.0652  0.4340 -2.2638
  183DOPC  C21022481   6.384   5.237   6.647 -0.0414 -0.3842 -0.2700
  183DOPC  H10R22482   6.401   5.147   6.708  0.7598 -0.0059  0.0745
  183DOPC  C21122483   6.343   5.369   6.711 -0.7471 -0.4713 -0.2771
  183DOPC  H11R22484   6.294   5.434   6.636 -3.8779 -1.2657  0.9225
  183DOPC  H11S22485   6.430   5.420   6.756  1.0739 -3.7074  0.2311
  183DOPC  C21222486   6.240   5.357   6.831  0.7239 -0.1474 -0.2790
  183DOPC  H12R22487   6.143   5.312   6.802  1.1234 -1.4363  0.3337
  183DOPC  H12S22488   6.235   5.458   6.877  0.3191  0.2149 -1.0948
  183DOPC  C21322489   6.295   5.261   6.943  0.5296  0.0283  0.3740
  183DOPC  H13R22490   6.397   5.295   6.971  0.6809  1.7829 -1.9883
  183DOPC  H13S22491   6.289   5.153   6.915  0.0493  0.0531  0.3722
  183DOPC  C21422492   6.217   5.277   7.073 -0.1762  0.5664 -0.4646
  183DOPC  H14R22493   6.118   5.229   7.059  0.9068 -2.1929  0.6552
  183DOPC  H14S22494   6.208   5.385   7.097 -1.9981  0.9175 -2.3632
  183DOPC  C21522495   6.295   5.199   7.187 -0.5996  0.5432 -0.3370
  183DOPC  H15R22496   6.398   5.239   7.191 -0.8924  1.7875 -2.9986
  183DOPC  H15S22497   6.296   5.093   7.153 -2.9143  0.5602 -0.6599
  183DOPC  C21622498   6.230   5.194   7.318 -0.2935 -0.5814  0.2265
  183DOPC  H16R22499   6.128   5.151   7.303 -0.8759  0.1633  1.8569
  183DOPC  H16S22500   6.219   5.295   7.363 -0.2661 -0.1353 -0.7312
  183DOPC  C21722501   6.306   5.102   7.422  0.8913 -0.9231  1.1575
  183DOPC  H17R22502   6.259   5.117   7.521 -0.0236 -0.0814  0.6117
  183DOPC  H17S22503   6.411   5.134   7.434  0.4482  1.1148  0.0097
  183DOPC  C21822504   6.300   4.957   7.393  0.6603  0.2144 -0.3502
  183DOPC  H18R22505   6.342   4.903   7.481 -0.1007  1.1834  0.6483
  183DOPC  H18S22506   6.360   4.910   7.312  2.5674  1.9329 -0.0177
  183DOPC  H18T22507   6.196   4.917   7.392  0.7184 -0.2630  2.5061
  183DOPC   C3322508   6.806   4.973   5.756  0.6544  0.0562  0.1526
  183DOPC   H3X22509   6.695   4.978   5.754  0.3981  2.6170  5.4751
  183DOPC   H3Y22510   6.833   5.063   5.815  0.4525 -1.1936  2.2350
  183DOPC   C3422511   6.826   4.846   5.839 -0.2276 -0.2359  0.4883
  183DOPC   H4X22512   6.834   4.760   5.770  1.6409  0.2551  0.0270
  183DOPC   H4Y22513   6.750   4.833   5.919  0.4775 -1.4530  0.9775
  183DOPC   C3522514   6.969   4.851   5.904 -0.1391  0.0142  0.7071
  183DOPC   H5X22515   7.033   4.918   5.843 -1.5711 -1.3517 -2.5529
  183DOPC   H5Y22516   7.018   4.751   5.903  1.7462  0.8785 -1.0137
  183DOPC   C3622517   6.950   4.912   6.040  0.2188 -0.2026  0.2109
  183DOPC   H6X22518   6.921   5.019   6.029  0.4906 -0.1853 -0.3615
  183DOPC   H6Y22519   6.865   4.873   6.100 -1.6565  0.4453 -1.9102
  183DOPC   C3722520   7.082   4.919   6.120  0.2368  0.9443 -0.5400
  183DOPC   H7X22521   7.164   4.959   6.055 -0.1684  0.9753 -1.0397
  183DOPC   H7Y22522   7.070   4.985   6.208  1.0484  0.3375  0.0430
  183DOPC   C3822523   7.121   4.779   6.175 -0.7985 -0.4693 -0.2087
  183DOPC   H8X22524   7.140   4.712   6.088 -1.0208  0.8061 -1.2655
  183DOPC   H8Y22525   7.033   4.743   6.232 -0.1446  0.5339  1.4881
  183DOPC   C3922526   7.242   4.798   6.267 -0.2762 -0.2230  0.1618
  183DOPC   H9X22527   7.343   4.814   6.227  0.3663 -0.1835  1.7371
  183DOPC  C31022528   7.233   4.808   6.401 -0.0101  0.1558 -0.2515
  183DOPC  H10X22529   7.323   4.820   6.463  0.0476  2.9873 -0.7438
  183DOPC  C31122530   7.103   4.791   6.484 -0.1138 -0.4625  0.1594
  183DOPC  H11X22531   7.011   4.787   6.422 -1.1426  1.4662  1.4523
  183DOPC  H11Y22532   7.085   4.883   6.544 -2.2960 -0.3926 -0.5114
  183DOPC  C31222533   7.123   4.671   6.579  0.3395 -0.6962 -0.0886
  183DOPC  H12X22534   7.220   4.669   6.633  0.6296  3.3288 -0.1273
  183DOPC  H12Y22535   7.102   4.582   6.516 -0.6529  0.4269 -1.4119
  183DOPC  C31322536   7.026   4.683   6.697  0.5661 -0.5082  0.0023
  183DOPC  H13X22537   7.046   4.781   6.746  1.4664 -0.9216  0.4834
  183DOPC  H13Y22538   6.922   4.674   6.660  1.3062 -0.2240 -2.3066
  183DOPC  C31422539   7.059   4.572   6.798 -0.2850  0.1922  0.0537
  183DOPC  H14X22540   7.064   4.478   6.740 -0.4369 -1.0260  1.9258
  183DOPC  H14Y22541   7.163   4.585   6.835  0.1624 -0.3996 -0.9703
  183DOPC  C31522542   6.961   4.550   6.911  0.4089  0.3201  0.1999
  183DOPC  H15X22543   6.978   4.460   6.975 -0.3508 -0.3778 -0.5504
  183DOPC  H15Y22544   6.864   4.526   6.862  1.6084 -0.7043 -1.7902
  183DOPC  C31622545   6.949   4.675   7.000 -0.1524 -0.1532 -0.7665
  183DOPC  H16X22546   7.054   4.697   7.029 -0.2936 -0.5081  0.0400
  183DOPC  H16Y22547   6.914   4.767   6.949  0.0994  1.9811  2.6031
  183DOPC  C31722548   6.884   4.650   7.136 -0.2959 -0.0196  0.2788
  183DOPC  H17X22549   6.935   4.564   7.184 -0.9464 -0.8751 -0.5454
  183DOPC  H17Y22550   6.899   4.739   7.201  1.2540  1.6129 -2.1289
  183DOPC  C31822551   6.737   4.627   7.138  0.0789  0.5921 -0.2652
  183DOPC  H18X22552   6.681   4.705   7.082 -2.4889 -0.6172  0.4719
  183DOPC  H18Y22553   6.721   4.533   7.081 -0.8043  1.8352 -2.1672
  183DOPC  H18Z22554   6.695   4.637   7.241  0.3487  2.4284 -0.2984
  184DOPC     N22555   4.494   1.114   5.221  0.4227 -0.4903  0.5110
  184DOPC   C1222556   4.608   1.054   5.306  0.3956 -0.3078 -0.0283
  184DOPC  H12A22557   4.703   1.101   5.283  1.3549 -2.0442  0.2027
  184DOPC  H12B22558   4.624   0.951   5.274 -0.8185 -0.1857 -1.1331
  184DOPC   C1322559   4.474   1.255   5.247  1.0822  0.4992  0.0485
  184DOPC  H13A22560   4.383   1.290   5.202  0.6724  0.0891  0.5481
  184DOPC  H13B22561   4.476   1.278   5.353  0.2847 -0.0862  0.2027
  184DOPC  H13C22562   4.540   1.325   5.198  0.4079  0.5335 -0.8154
  184DOPC   C1422563   4.365   1.036   5.258 -0.8174  0.3317 -0.7548
  184DOPC  H14A22564   4.279   1.048   5.194 -1.4687 -1.7537 -0.3287
  184DOPC  H14B22565   4.389   0.932   5.246 -3.3032 -0.5236  0.9149
  184DOPC  H14C22566   4.354   1.044   5.365 -1.3551 -1.4729 -0.6544
  184DOPC   C1522567   4.509   1.093   5.072  0.4194 -0.5317  0.4936
  184DOPC  H15A22568   4.472   0.995   5.044 -2.4792  0.3457  0.9619
  184DOPC  H15B22569   4.609   1.100   5.032  0.4157 -0.5239  0.4841
  184DOPC  H15C22570   4.433   1.149   5.019  0.9956  1.3604  1.6065
  184DOPC   C1122571   4.602   1.048   5.459  0.0594  0.5654 -0.2022
  184DOPC  H11A22572   4.701   1.029   5.506 -0.6705 -0.2869  1.0612
  184DOPC  H11B22573   4.569   1.147   5.498 -2.1993  0.2390 -1.1055
  184DOPC     P22574   4.539   0.788   5.476 -0.4147  0.1163 -0.1780
  184DOPC   O1322575   4.535   0.759   5.332  0.1541  0.4267 -0.0119
  184DOPC   O1422576   4.452   0.709   5.561 -0.7847  0.5072  0.8590
  184DOPC   O1222577   4.507   0.946   5.499 -0.2852  0.7699 -0.5879
  184DOPC   O1122578   4.691   0.781   5.520 -0.3252  0.3563  0.4263
  184DOPC    C122579   4.736   0.810   5.654 -0.6682 -0.0715  0.1690
  184DOPC    HA22580   4.676   0.888   5.705  1.0606  0.5220  1.3646
  184DOPC    HB22581   4.836   0.859   5.655 -0.4119 -0.4972  2.8121
  184DOPC    C222582   4.770   0.688   5.744  0.2173  0.1229  0.8103
  184DOPC    HS22583   4.679   0.626   5.757  1.3180 -1.8875 -0.4327
  184DOPC   O2122584   4.812   0.743   5.875  0.0930  0.0199  0.2742
  184DOPC   C2122585   4.706   0.777   5.952 -0.0478  0.0880 -0.1472
  184DOPC   O2222586   4.589   0.775   5.914  0.3027 -0.0693 -0.4333
  184DOPC   C2222587   4.753   0.823   6.090  0.0909 -0.2144 -0.2860
  184DOPC   H2R22588   4.842   0.889   6.087 -0.3898  0.5540  1.3547
  184DOPC   H2S22589   4.781   0.729   6.144 -1.0113 -0.8186 -0.7478
  184DOPC    C322590   4.875   0.589   5.687 -0.1610  0.7748  0.8247
  184DOPC    HX22591   4.960   0.644   5.642  0.7522 -0.3785  1.0620
  184DOPC    HY22592   4.837   0.536   5.598  1.4938  0.5034  0.2440
  184DOPC   O3122593   4.923   0.490   5.783  0.0130  0.1694  0.0058
  184DOPC   C3122594   4.841   0.385   5.802  0.1668  0.4274 -0.1829
  184DOPC   O3222595   4.733   0.381   5.747  0.0510  0.0533 -0.6435
  184DOPC   C3222596   4.898   0.279   5.900 -0.4844  0.1433  0.1379
  184DOPC   H2X22597   4.938   0.192   5.843  1.3013 -0.1483  1.7206
  184DOPC   H2Y22598   4.989   0.322   5.947 -0.1824 -1.4277  1.0956
  184DOPC   C2322599   4.646   0.904   6.172 -0.1061 -0.1574  0.3641
  184DOPC   H3R22600   4.588   0.966   6.100 -0.8693  2.8323  3.3197
  184DOPC   H3S22601   4.700   0.975   6.237  1.2662  0.8599 -1.7706
  184DOPC   C2422602   4.555   0.806   6.249 -0.2205 -0.2342  0.2082
  184DOPC   H4R22603   4.601   0.715   6.293  0.6580  0.3708  0.5541
  184DOPC   H4S22604   4.476   0.783   6.174 -0.3505 -1.2267  0.6381
  184DOPC   C2522605   4.482   0.873   6.363  0.1750 -0.7530 -0.1591
  184DOPC   H5R22606   4.429   0.967   6.334  0.5291 -0.7683 -0.8600
  184DOPC   H5S22607   4.567   0.918   6.418 -0.5106  1.8381 -1.0480
  184DOPC   C2622608   4.394   0.779   6.448  0.7794  0.2548 -0.1331
  184DOPC   H6R22609   4.451   0.702   6.504  0.5108 -1.1550 -1.7061
  184DOPC   H6S22610   4.331   0.725   6.374  1.2344 -0.9146  0.3121
  184DOPC   C2722611   4.304   0.858   6.551 -0.3697  0.6037 -0.3552
  184DOPC   H7R22612   4.246   0.928   6.487  0.6520  0.2771 -1.7078
  184DOPC   H7S22613   4.371   0.920   6.613  1.3721 -0.7084 -0.8133
  184DOPC   C2822614   4.221   0.754   6.632  0.2201 -0.0580 -0.3449
  184DOPC   H8R22615   4.301   0.680   6.654  0.7765  0.4363 -0.6692
  184DOPC   H8S22616   4.153   0.707   6.557 -0.8914 -1.0585  1.2346
  184DOPC   C2922617   4.155   0.804   6.760 -0.0883  0.4603 -0.0081
  184DOPC   H9R22618   4.077   0.880   6.744 -2.1297 -0.6238  3.5328
  184DOPC  C21022619   4.185   0.771   6.887 -0.2314  0.7619 -0.5198
  184DOPC  H10R22620   4.116   0.808   6.964 -1.1334 -1.4916 -0.1495
  184DOPC  C21122621   4.288   0.663   6.931  0.0134 -0.1261 -0.6409
  184DOPC  H11R22622   4.326   0.596   6.851  0.7112 -0.1945 -0.2602
  184DOPC  H11S22623   4.223   0.603   6.998 -2.1446  2.7412  0.0374
  184DOPC  C21222624   4.404   0.712   7.020  0.2615  0.0576 -0.6846
  184DOPC  H12R22625   4.458   0.620   7.051 -0.0714  0.5497  1.4525
  184DOPC  H12S22626   4.357   0.767   7.104 -0.0900  0.3681 -1.0774
  184DOPC  C21322627   4.496   0.814   6.951 -0.3854 -0.1302 -0.2805
  184DOPC  H13R22628   4.552   0.869   7.030 -1.2648 -0.4152  0.5552
  184DOPC  H13S22629   4.441   0.897   6.902  0.0993  0.2270 -0.2232
  184DOPC  C21422630   4.577   0.735   6.846  0.0802  0.0037  0.0040
  184DOPC  H14R22631   4.510   0.700   6.764 -0.6308 -0.7659  0.8831
  184DOPC  H14S22632   4.622   0.646   6.896 -1.9682 -1.3605 -0.4488
  184DOPC  C21522633   4.688   0.810   6.774 -0.1400 -0.0069 -0.4391
  184DOPC  H15R22634   4.764   0.843   6.848  0.9868 -2.3414 -0.4534
  184DOPC  H15S22635   4.655   0.901   6.720  1.9798  0.0759 -1.7039
  184DOPC  C21622636   4.758   0.715   6.676  0.0206  0.5599 -0.2979
  184DOPC  H16R22637   4.679   0.691   6.601 -1.2493  1.0548  0.8260
  184DOPC  H16S22638   4.787   0.623   6.730  0.6537  1.1673  0.4243
  184DOPC  C21722639   4.891   0.777   6.630  0.3262  0.5827  0.3319
  184DOPC  H17R22640   4.952   0.706   6.571 -0.4882 -1.5143  1.8994
  184DOPC  H17S22641   4.950   0.795   6.723 -0.2958 -2.7365  1.5020
  184DOPC  C21822642   4.871   0.902   6.544 -0.4181 -0.0999 -0.5837
  184DOPC  H18R22643   4.965   0.961   6.543 -0.0942 -0.3022  2.9515
  184DOPC  H18S22644   4.793   0.969   6.586 -0.9594 -1.9844  1.6701
  184DOPC  H18T22645   4.841   0.872   6.441  1.8009  0.7322 -1.5254
  184DOPC   C3322646   4.790   0.225   6.000 -0.2760  0.9261  0.1046
  184DOPC   H3X22647   4.832   0.131   6.041 -0.6844 -1.3123 -4.0531
  184DOPC   H3Y22648   4.703   0.195   5.938 -1.0402  0.7497  1.2450
  184DOPC   C3422649   4.770   0.327   6.112  0.4049  0.1990 -0.4095
  184DOPC   H4X22650   4.679   0.294   6.166 -0.3261 -0.5052 -1.9984
  184DOPC   H4Y22651   4.764   0.430   6.071 -0.5728  0.0524 -0.6464
  184DOPC   C3522652   4.883   0.336   6.211  0.0193 -0.1305 -0.6389
  184DOPC   H5X22653   4.971   0.385   6.162  0.0624  1.4607  0.9437
  184DOPC   H5Y22654   4.903   0.231   6.240 -3.2155 -1.0504 -1.3824
  184DOPC   C3622655   4.857   0.433   6.332 -0.5826 -0.0708  1.0404
  184DOPC   H6X22656   4.951   0.457   6.386 -0.2688  0.4360  0.2822
  184DOPC   H6Y22657   4.830   0.526   6.277  3.1486  0.6669  0.1721
  184DOPC   C3722658   4.739   0.403   6.428 -0.5425  0.6232 -0.1214
  184DOPC   H7X22659   4.714   0.492   6.489  1.3378  1.0671  0.0500
  184DOPC   H7Y22660   4.646   0.390   6.367 -1.0406  0.1612  0.7235
  184DOPC   C3822661   4.784   0.291   6.522 -0.4218  0.4017  0.2466
  184DOPC   H8X22662   4.847   0.333   6.603 -0.4883 -0.8797  0.9772
  184DOPC   H8Y22663   4.835   0.213   6.462  2.6547  2.5724 -0.1772
  184DOPC   C3922664   4.652   0.234   6.558  0.1423  0.1013 -0.4704
  184DOPC   H9X22665   4.619   0.155   6.489  1.9356 -0.7824 -0.3638
  184DOPC  C31022666   4.581   0.262   6.667 -0.0330  0.2347 -0.3170
  184DOPC  H10X22667   4.490   0.205   6.694  0.0909 -1.0717 -2.4223
  184DOPC  C31122668   4.622   0.360   6.768 -0.0578 -0.0184 -0.3342
  184DOPC  H11X22669   4.541   0.434   6.784  0.8192  0.4977  2.1321
  184DOPC  H11Y22670   4.710   0.421   6.741 -0.5492 -0.1923 -2.5175
  184DOPC  C31222671   4.666   0.295   6.899  0.1565 -0.1669 -0.1176
  184DOPC  H12X22672   4.690   0.388   6.954 -0.4576  1.1596 -1.9775
  184DOPC  H12Y22673   4.760   0.236   6.899 -0.5150 -1.3293 -2.1065
  184DOPC  C31322674   4.553   0.224   6.968 -0.1162  0.2243  0.5536
  184DOPC  H13X22675   4.463   0.288   6.969 -0.3933 -0.1512  0.2237
  184DOPC  H13Y22676   4.528   0.127   6.918 -0.8055  0.7821 -0.2170
  184DOPC  C31422677   4.595   0.182   7.110 -0.4971 -0.8292 -0.1620
  184DOPC  H14X22678   4.692   0.131   7.095  0.8295 -0.0730  4.4569
  184DOPC  H14Y22679   4.608   0.282   7.156 -2.1604 -0.8010  0.3374
  184DOPC  C31522680   4.487   0.094   7.182 -0.3288 -0.0688 -0.4693
  184DOPC  H15X22681   4.486  -0.006   7.134 -4.0909  0.0573 -0.9574
  184DOPC  H15Y22682   4.386   0.139   7.171 -0.9680 -0.0250  3.7215
  184DOPC  C31622683   4.512   0.074   7.334  0.4035  0.5212 -0.1992
  184DOPC  H16X22684   4.593   0.001   7.356 -1.7315 -2.0063 -0.1638
  184DOPC  H16Y22685   4.541   0.172   7.379 -2.6033  0.9406  1.0298
  184DOPC  C31722686   4.394   0.008   7.406 -0.0470 -0.5344 -0.2849
  184DOPC  H17X22687   4.304   0.067   7.376  1.9039  1.8249 -1.9085
  184DOPC  H17Y22688   4.373  -0.096   7.374  0.7905 -1.3695  1.7420
  184DOPC  C31822689   4.405   0.028   7.556  0.0171 -0.1782  0.0204
  184DOPC  H18X22690   4.318  -0.021   7.603 -0.2051 -0.4268 -0.6359
  184DOPC  H18Y22691   4.506  -0.008   7.588  0.2592  2.2834  2.3533
  184DOPC  H18Z22692   4.408   0.138   7.572 -3.5136 -0.3471  3.3242
  185DOPC     N22693   5.576   5.550   5.317  0.1304 -0.0585 -0.2595
  185DOPC   C1222694   5.614   5.601   5.181 -0.6618  0.3591  0.7220
  185DOPC  H12A22695   5.533   5.654   5.134  0.3928 -0.9840 -2.8936
  185DOPC  H12B22696   5.626   5.519   5.112  1.3785  0.3511  1.0140
  185DOPC   C1322697   5.536   5.661   5.400  0.5589  0.0299  0.0988
  185DOPC  H13A22698   5.616   5.722   5.440  0.3391 -0.1581  0.8434
  185DOPC  H13B22699   5.472   5.732   5.351  3.0127  1.8924 -0.6231
  185DOPC  H13C22700   5.482   5.626   5.487  2.6653 -1.1635  1.0194
  185DOPC   C1422701   5.686   5.478   5.389 -0.6625 -0.1622 -0.3927
  185DOPC  H14A22702   5.738   5.412   5.322 -0.6943 -0.6254  0.0313
  185DOPC  H14B22703   5.747   5.558   5.429 -2.5351 -0.5309  3.6755
  185DOPC  H14C22704   5.651   5.434   5.481 -1.3182  4.2858  1.7950
  185DOPC   C1522705   5.444   5.471   5.300 -0.1132 -0.0046  0.0083
  185DOPC  H15A22706   5.458   5.389   5.231 -1.6586 -0.6257  0.4002
  185DOPC  H15B22707   5.359   5.530   5.270  1.6954  1.6412 -2.2901
  185DOPC  H15C22708   5.422   5.425   5.396  0.8943  0.6075  0.5479
  185DOPC   C1122709   5.751   5.672   5.153  0.3437  0.5928 -0.2567
  185DOPC  H11A22710   5.741   5.702   5.046 -0.0532 -0.7586 -0.6186
  185DOPC  H11B22711   5.760   5.761   5.218 -0.0070  0.3676  0.1025
  185DOPC     P22712   6.008   5.633   5.134 -0.1002  0.1716  0.1922
  185DOPC   O1322713   5.998   5.758   5.052  0.0354 -0.2091 -0.7172
  185DOPC   O1422714   6.072   5.521   5.065 -0.4446  0.4769 -0.2327
  185DOPC   O1222715   5.862   5.588   5.178  0.1807 -0.1744  0.2008
  185DOPC   O1122716   6.076   5.661   5.276 -0.4792  0.8508 -0.3681
  185DOPC    C122717   5.994   5.719   5.377 -0.6279  0.3307  0.1615
  185DOPC    HA22718   5.938   5.638   5.428 -2.7998  1.3376 -0.5018
  185DOPC    HB22719   5.926   5.797   5.337  1.7178  2.7175  0.5583
  185DOPC    C222720   6.077   5.791   5.485  0.4739 -0.3211 -0.1544
  185DOPC    HS22721   6.137   5.866   5.430 -0.3689 -1.1613 -2.3389
  185DOPC   O2122722   6.159   5.695   5.552  0.6000  0.2298 -0.0772
  185DOPC   C2122723   6.274   5.742   5.591  0.1337  0.3575  0.2795
  185DOPC   O2222724   6.315   5.853   5.564 -0.1776  0.0400  0.0290
  185DOPC   C2222725   6.352   5.635   5.662 -0.2193 -0.9931 -0.1894
  185DOPC   H2R22726   6.367   5.551   5.592 -0.3411  0.7706 -2.4301
  185DOPC   H2S22727   6.289   5.594   5.744  1.0576  0.2898  1.5158
  185DOPC    C322728   5.972   5.853   5.581 -0.0582 -0.2030  0.7307
  185DOPC    HX22729   5.931   5.775   5.649 -1.6456 -0.9000 -0.9288
  185DOPC    HY22730   5.882   5.887   5.526  1.1820  0.4216 -0.9806
  185DOPC   O3122731   6.023   5.966   5.657 -0.0266  0.2116  0.3572
  185DOPC   C3122732   6.023   5.958   5.788  0.3859 -0.6407 -0.2574
  185DOPC   O3222733   5.955   5.878   5.852 -0.3961  0.1197  0.1530
  185DOPC   C3222734   6.139   6.048   5.839 -0.3032  0.4015 -0.0733
  185DOPC   H2X22735   6.224   6.040   5.768 -0.8638  0.3085 -0.7378
  185DOPC   H2Y22736   6.109   6.155   5.837  0.1032  0.5400 -3.2363
  185DOPC   C2322737   6.486   5.693   5.719  0.0350 -0.0739 -0.0070
  185DOPC   H3R22738   6.553   5.736   5.642 -0.7763 -0.8701 -1.1781
  185DOPC   H3S22739   6.533   5.600   5.758 -1.7563 -1.0353 -0.0667
  185DOPC   C2422740   6.453   5.790   5.834  0.3822  0.1837 -0.2738
  185DOPC   H4R22741   6.369   5.741   5.888  0.0521  0.7697 -0.2416
  185DOPC   H4S22742   6.420   5.890   5.800 -2.2623 -0.1555  1.0083
  185DOPC   C2522743   6.575   5.813   5.922  0.2675 -0.2803  0.8233
  185DOPC   H5R22744   6.653   5.877   5.875 -0.5563 -0.4580 -0.8817
  185DOPC   H5S22745   6.616   5.713   5.948 -0.6262 -0.7669  0.3834
  185DOPC   C2622746   6.542   5.879   6.056  0.3751 -0.3824  0.1216
  185DOPC   H6R22747   6.495   5.977   6.035 -2.1949 -1.3034  1.0966
  185DOPC   H6S22748   6.637   5.905   6.106 -0.0328  1.3864  0.0395
  185DOPC   C2722749   6.457   5.789   6.145  0.0000  0.2531 -0.5106
  185DOPC   H7R22750   6.508   5.691   6.143 -1.5575 -0.5846 -1.0383
  185DOPC   H7S22751   6.356   5.789   6.097 -0.5629 -0.1828  0.6337
  185DOPC   C2822752   6.452   5.854   6.290  0.1899 -0.0323  0.2343
  185DOPC   H8R22753   6.396   5.949   6.301 -2.4251 -1.6289  1.5315
  185DOPC   H8S22754   6.555   5.881   6.322 -0.1644 -1.8113  3.2652
  185DOPC   C2922755   6.392   5.744   6.369  0.6333  0.5912 -0.1289
  185DOPC   H9R22756   6.321   5.679   6.315  2.2961 -0.5322 -1.0581
  185DOPC  C21022757   6.407   5.714   6.495 -0.0701 -0.0792 -0.1073
  185DOPC  H10R22758   6.366   5.618   6.528 -3.3109  0.4921 -2.1128
  185DOPC  C21122759   6.479   5.785   6.605 -0.6063 -0.4873 -0.1004
  185DOPC  H11R22760   6.557   5.849   6.559 -1.1079 -1.2640 -2.1200
  185DOPC  H11S22761   6.535   5.713   6.668  0.0279 -0.8443 -1.0523
  185DOPC  C21222762   6.379   5.862   6.695 -0.2575 -0.2367  0.1017
  185DOPC  H12R22763   6.309   5.921   6.632 -0.5181 -2.0864 -1.4543
  185DOPC  H12S22764   6.439   5.932   6.757  1.6455 -0.4107 -1.4222
  185DOPC  C21322765   6.308   5.765   6.792 -0.0301  0.9416  0.1568
  185DOPC  H13R22766   6.285   5.675   6.730  1.4234  0.3660  0.4071
  185DOPC  H13S22767   6.215   5.817   6.824  0.7568  3.2615 -1.0860
  185DOPC  C21422768   6.393   5.728   6.915 -0.3769 -0.0669 -0.2392
  185DOPC  H14R22769   6.498   5.734   6.880  0.6991 -1.9348  2.3714
  185DOPC  H14S22770   6.365   5.632   6.962 -0.4953 -0.1110 -0.3989
  185DOPC  C21522771   6.370   5.835   7.017  0.7783  0.7962 -0.2284
  185DOPC  H15R22772   6.343   5.929   6.964 -2.1543  0.1626 -0.0344
  185DOPC  H15S22773   6.455   5.842   7.089  0.9051  1.1680 -0.4121
  185DOPC  C21622774   6.245   5.807   7.107 -0.4384  0.5285  0.1589
  185DOPC  H16R22775   6.262   5.734   7.188 -0.4267  0.7364  0.3443
  185DOPC  H16S22776   6.173   5.756   7.040 -0.2305 -1.5257  1.4019
  185DOPC  C21722777   6.178   5.924   7.177 -0.7729 -1.3775  0.2271
  185DOPC  H17R22778   6.169   6.006   7.102 -2.5481 -1.6988  0.0364
  185DOPC  H17S22779   6.254   5.960   7.250 -0.9860  0.6203 -0.4708
  185DOPC  C21822780   6.038   5.899   7.233  0.0642 -0.0334 -0.7506
  185DOPC  H18R22781   6.013   5.992   7.289 -1.6492 -1.7984  1.6330
  185DOPC  H18S22782   6.032   5.814   7.304  0.0962  2.3287  2.2923
  185DOPC  H18T22783   5.957   5.874   7.161 -0.0354 -2.4482  0.1184
  185DOPC   C3322784   6.185   6.018   5.980 -0.3587 -0.4323 -0.3898
  185DOPC   H3X22785   6.277   6.081   5.984  0.5528 -1.7933  0.7590
  185DOPC   H3Y22786   6.212   5.912   5.995 -1.8342 -0.8400 -0.5255
  185DOPC   C3422787   6.083   6.057   6.082  0.2822 -0.6481 -0.7589
  185DOPC   H4X22788   5.988   5.998   6.080  0.0290 -0.4577  2.1659
  185DOPC   H4Y22789   6.053   6.161   6.058 -1.6527 -1.2619 -1.1911
  185DOPC   C3522790   6.144   6.054   6.227  0.4298  0.1849  0.0232
  185DOPC   H5X22791   6.244   6.104   6.234  0.8379 -0.6431  0.2015
  185DOPC   H5Y22792   6.143   5.944   6.243 -1.8979  0.3393  1.3618
  185DOPC   C3622793   6.043   6.124   6.324  0.8463  0.0774  0.0630
  185DOPC   H6X22794   6.045   6.235   6.315  1.7351  0.1804  1.2550
  185DOPC   H6Y22795   5.945   6.090   6.285  2.1240 -1.5553 -1.9677
  185DOPC   C3722796   6.083   6.097   6.468 -0.2357  0.1228  0.5285
  185DOPC   H7X22797   6.075   5.989   6.492  3.2309 -0.2089  0.6982
  185DOPC   H7Y22798   6.190   6.128   6.467 -0.2066  0.1842 -2.5411
  185DOPC   C3822799   6.005   6.165   6.582 -0.0987 -0.2311 -0.2086
  185DOPC   H8X22800   5.902   6.123   6.585  0.5855 -2.2826 -2.2383
  185DOPC   H8Y22801   5.999   6.273   6.555 -0.3519 -0.8425 -2.8468
  185DOPC   C3922802   6.061   6.171   6.720  0.1325 -0.4413 -1.0273
  185DOPC   H9X22803   6.160   6.218   6.722 -0.6900  1.3676 -1.0820
  185DOPC  C31022804   5.996   6.151   6.839 -0.0029  0.6309  0.5136
  185DOPC  H10X22805   6.054   6.152   6.933  1.5629 -1.3216 -0.3709
  185DOPC  C31122806   5.851   6.109   6.861  0.4163 -0.6132  0.3339
  185DOPC  H11X22807   5.858   6.005   6.900  0.0000 -0.4856  0.7495
  185DOPC  H11Y22808   5.795   6.118   6.765  1.8394  2.0532 -0.3444
  185DOPC  C31222809   5.774   6.191   6.971 -0.1732  0.2210  0.2488
  185DOPC  H12X22810   5.672   6.147   6.976 -0.6218  1.1702 -0.2274
  185DOPC  H12Y22811   5.759   6.294   6.933  0.2061  1.1183  2.3512
  185DOPC  C31322812   5.839   6.213   7.110 -0.4052 -0.5267  0.1923
  185DOPC  H13X22813   5.813   6.117   7.158 -0.9717  0.2217  1.4132
  185DOPC  H13Y22814   5.948   6.233   7.119 -0.6453  0.2802  1.5813
  185DOPC  C31422815   5.763   6.321   7.194 -0.0104 -0.5585  0.2779
  185DOPC  H14X22816   5.756   6.406   7.122 -1.6638  0.1085  1.1555
  185DOPC  H14Y22817   5.657   6.287   7.199 -0.0541 -0.2460  2.0580
  185DOPC  C31522818   5.823   6.357   7.331  0.7695 -0.0312  0.4307
  185DOPC  H15X22819   5.758   6.432   7.381 -0.4787 -0.4216 -0.5559
  185DOPC  H15Y22820   5.919   6.411   7.311  1.3147 -1.1138  0.0303
  185DOPC  C31622821   5.838   6.239   7.428 -0.2643 -0.3883  0.3909
  185DOPC  H16X22822   5.753   6.173   7.401 -0.2854  0.1908 -1.0654
  185DOPC  H16Y22823   5.933   6.187   7.402  0.7708  1.8123 -0.4998
  185DOPC  C31722824   5.846   6.271   7.584  0.8246 -0.0939 -0.1604
  185DOPC  H17X22825   5.871   6.180   7.643 -0.9359 -0.5964 -0.1214
  185DOPC  H17Y22826   5.934   6.335   7.605  0.7916 -0.1712  0.2130
  185DOPC  C31822827   5.720   6.327   7.650 -0.1663  0.3722 -0.5879
  185DOPC  H18X22828   5.730   6.356   7.757 -1.4765  2.5083 -0.9761
  185DOPC  H18Y22829   5.677   6.415   7.598 -0.6924 -0.3610 -1.4225
  185DOPC  H18Z22830   5.643   6.247   7.644  1.6724 -1.3445 -2.8243
  186DOPC     N22831   6.276   3.114   5.217 -0.7459  0.0399 -0.0687
  186DOPC   C1222832   6.307   3.262   5.255  0.0329  0.5738 -0.8630
  186DOPC  H12A22833   6.297   3.264   5.363 -1.1734 -1.7620 -0.8635
  186DOPC  H12B22834   6.236   3.332   5.214 -1.3226 -1.0141 -1.3427
  186DOPC   C1322835   6.130   3.086   5.241 -0.8525  0.4139 -0.0599
  186DOPC  H13A22836   6.110   2.985   5.208 -0.7062  0.0495  0.9332
  186DOPC  H13B22837   6.111   3.088   5.348  0.7389  0.9903  0.2252
  186DOPC  H13C22838   6.062   3.148   5.185 -0.3634 -0.3395 -1.5322
  186DOPC   C1422839   6.353   3.018   5.305  0.5450 -0.1494  0.0416
  186DOPC  H14A22840   6.353   2.916   5.268 -0.2150 -0.3890  0.6577
  186DOPC  H14B22841   6.456   3.050   5.312  0.0832  1.6097 -0.6524
  186DOPC  H14C22842   6.314   3.008   5.406  1.2208  0.0107  0.3242
  186DOPC   C1522843   6.309   3.097   5.076 -0.9221  0.5608 -0.0905
  186DOPC  H15A22844   6.292   2.995   5.044  3.3804 -0.2548 -0.2834
  186DOPC  H15B22845   6.413   3.122   5.063 -0.5294  0.9343  3.0582
  186DOPC  H15C22846   6.250   3.163   5.014  0.0193  0.4783 -1.1095
  186DOPC   C1122847   6.445   3.313   5.218 -0.0507 -0.7736  1.0149
  186DOPC  H11A22848   6.460   3.313   5.107  2.2936  0.2094  1.2678
  186DOPC  H11B22849   6.448   3.421   5.244  0.1217 -0.9516  1.7533
  186DOPC     P22850   6.692   3.269   5.225 -0.0578  0.1989  0.2061
  186DOPC   O1322851   6.709   3.411   5.212  0.2439 -0.1572 -0.3994
  186DOPC   O1422852   6.717   3.192   5.100 -0.5540 -0.0433  0.2699
  186DOPC   O1222853   6.549   3.242   5.279  0.0333  0.6906  0.1258
  186DOPC   O1122854   6.795   3.210   5.337  0.2925 -0.0922 -0.6795
  186DOPC    C122855   6.754   3.104   5.429 -0.2447  0.2967  0.3622
  186DOPC    HA22856   6.840   3.044   5.467 -1.5881 -0.1719  2.8596
  186DOPC    HB22857   6.680   3.035   5.383 -0.1510  0.8457 -0.6405
  186DOPC    C222858   6.671   3.153   5.550 -0.1753  0.3319 -0.1743
  186DOPC    HS22859   6.569   3.181   5.517  0.0527  0.2788 -0.9481
  186DOPC   O2122860   6.750   3.262   5.602 -0.3915  0.4757 -0.5227
  186DOPC   C2122861   6.688   3.350   5.676  0.4466  0.2526  0.3462
  186DOPC   O2222862   6.569   3.339   5.704  0.1474  0.9375 -0.8601
  186DOPC   C2222863   6.774   3.452   5.731 -0.0714  0.6298 -0.5886
  186DOPC   H2R22864   6.725   3.546   5.765  0.2754 -0.4660  3.3915
  186DOPC   H2S22865   6.846   3.488   5.654  0.1659 -1.3634 -1.3440
  186DOPC    C322866   6.658   3.051   5.657  0.2235 -0.2719  0.0258
  186DOPC    HX22867   6.608   3.109   5.738  1.1478  0.7481 -0.1153
  186DOPC    HY22868   6.760   3.014   5.681 -0.1726 -1.4719 -0.0735
  186DOPC   O3122869   6.571   2.939   5.620  0.1025 -0.1275  0.4084
  186DOPC   C3122870   6.543   2.856   5.716  0.1147 -0.5420 -0.3445
  186DOPC   O3222871   6.573   2.871   5.836 -0.3872 -0.3508  0.3508
  186DOPC   C3222872   6.477   2.733   5.675  0.1297  0.2456  0.6689
  186DOPC   H2X22873   6.370   2.761   5.669 -0.6373 -2.1483  1.7059
  186DOPC   H2Y22874   6.511   2.702   5.574  1.0996  0.2712  0.9802
  186DOPC   C2322875   6.858   3.397   5.855  0.3583 -0.2211 -0.4512
  186DOPC   H3R22876   6.908   3.487   5.897 -3.5906  1.4885  1.1667
  186DOPC   H3S22877   6.925   3.314   5.825 -0.8880 -1.6402  0.5305
  186DOPC   C2422878   6.770   3.344   5.968 -0.3800 -1.0387 -0.4895
  186DOPC   H4R22879   6.721   3.248   5.942 -0.7374 -0.6183 -1.4111
  186DOPC   H4S22880   6.684   3.413   5.978  0.7110  0.1628  1.1873
  186DOPC   C2522881   6.830   3.334   6.110 -0.1758 -0.4720  0.7269
  186DOPC   H5R22882   6.919   3.270   6.090 -0.1659  0.0060 -0.9983
  186DOPC   H5S22883   6.751   3.277   6.163 -1.8881 -2.4281 -3.4764
  186DOPC   C2622884   6.876   3.467   6.172 -0.5300  0.0760  0.3858
  186DOPC   H6R22885   6.804   3.550   6.156 -2.0793 -1.4642 -1.0283
  186DOPC   H6S22886   6.965   3.500   6.115 -1.5829  0.5650 -1.0371
  186DOPC   C2722887   6.917   3.441   6.322 -0.9981  0.1566 -0.6722
  186DOPC   H7R22888   6.995   3.362   6.314 -0.8120  0.2404  0.2236
  186DOPC   H7S22889   6.830   3.399   6.376 -0.0400  1.2856  1.9304
  186DOPC   C2822890   6.968   3.555   6.411 -0.2231  0.6748 -0.0975
  186DOPC   H8R22891   6.874   3.608   6.438 -1.3740  0.1065 -2.6782
  186DOPC   H8S22892   7.032   3.625   6.353 -1.4921  0.4839 -1.8155
  186DOPC   C2922893   7.038   3.513   6.535  0.2733  0.5427  0.2414
  186DOPC   H9R22894   7.147   3.522   6.529  0.2053  1.2219 -0.0357
  186DOPC  C21022895   6.984   3.479   6.650 -0.4709 -0.2395 -0.0954
  186DOPC  H10R22896   7.054   3.454   6.732  1.4406 -0.9807 -1.8660
  186DOPC  C21122897   6.837   3.470   6.691 -0.3889  0.2960 -0.8219
  186DOPC  H11R22898   6.791   3.395   6.623  0.4434 -0.5234 -0.5090
  186DOPC  H11S22899   6.788   3.568   6.681 -0.7050  0.3970  1.3428
  186DOPC  C21222900   6.823   3.401   6.828  0.6677 -1.1747 -0.2798
  186DOPC  H12R22901   6.899   3.320   6.830  0.8800 -0.9805 -0.4329
  186DOPC  H12S22902   6.717   3.367   6.831 -0.1466  1.1826  0.1066
  186DOPC  C21322903   6.853   3.495   6.943 -0.5973  0.6871 -0.0266
  186DOPC  H13R22904   6.762   3.558   6.955 -1.3675 -0.2959 -0.5665
  186DOPC  H13S22905   6.942   3.561   6.931  0.8769 -1.5631 -2.2511
  186DOPC  C21422906   6.879   3.423   7.078  1.0237  0.3479 -1.0329
  186DOPC  H14R22907   6.936   3.328   7.064  1.1999  0.1584  0.7637
  186DOPC  H14S22908   6.788   3.383   7.128  1.9618 -0.6288 -0.0560
  186DOPC  C21522909   6.941   3.524   7.177  0.3729 -0.4967 -0.9989
  186DOPC  H15R22910   6.939   3.468   7.273 -2.7321 -1.7607 -1.6724
  186DOPC  H15S22911   6.875   3.614   7.171 -0.3573 -0.8902  0.5011
  186DOPC  C21622912   7.089   3.553   7.163 -0.4637 -0.2345 -0.2297
  186DOPC  H16R22913   7.108   3.640   7.229  0.1367 -1.2477  0.9991
  186DOPC  H16S22914   7.115   3.578   7.058 -3.3460  1.3889 -0.6384
  186DOPC  C21722915   7.182   3.438   7.198  1.3132 -0.4028  0.0799
  186DOPC  H17R22916   7.283   3.460   7.157  1.8419 -0.0765  1.4914
  186DOPC  H17S22917   7.135   3.344   7.164  0.3899  1.1709 -3.4354
  186DOPC  C21822918   7.221   3.430   7.348 -0.4667  0.3493  0.4052
  186DOPC  H18R22919   7.131   3.406   7.409 -1.0955  0.3255 -0.5098
  186DOPC  H18S22920   7.261   3.529   7.377 -1.9637  1.7115 -1.8908
  186DOPC  H18T22921   7.293   3.346   7.359 -1.0926 -0.3607 -0.7161
  186DOPC   C3322922   6.494   2.619   5.781  0.2407  0.1054  0.3009
  186DOPC   H3X22923   6.457   2.658   5.878 -0.6797 -2.8022  1.2398
  186DOPC   H3Y22924   6.603   2.605   5.796 -0.1179 -2.1025  1.2820
  186DOPC   C3422925   6.426   2.483   5.747 -0.3644 -0.0677 -0.2796
  186DOPC   H4X22926   6.454   2.452   5.644 -0.7795  2.0810 -1.1125
  186DOPC   H4Y22927   6.316   2.496   5.745 -0.4761 -0.8689  0.3751
  186DOPC   C3522928   6.466   2.369   5.843  0.4444 -0.7055 -0.2684
  186DOPC   H5X22929   6.576   2.354   5.840  0.3253 -2.2087  1.1023
  186DOPC   H5Y22930   6.438   2.267   5.808  2.5953 -1.5089  0.1528
  186DOPC   C3622931   6.409   2.394   5.987 -1.5173  0.3323 -0.2435
  186DOPC   H6X22932   6.444   2.497   6.012 -0.5797 -0.1589  0.5208
  186DOPC   H6Y22933   6.299   2.399   5.968 -1.5171 -2.1911 -1.3104
  186DOPC   C3722934   6.449   2.294   6.103  0.0903  0.3660 -0.1063
  186DOPC   H7X22935   6.409   2.194   6.073 -0.6210  0.5313  0.2719
  186DOPC   H7Y22936   6.559   2.283   6.117 -0.0710 -1.1487  0.2209
  186DOPC   C3822937   6.393   2.338   6.235 -0.4884  0.4442  0.2507
  186DOPC   H8X22938   6.289   2.376   6.227 -0.1907  1.9644  2.5952
  186DOPC   H8Y22939   6.455   2.422   6.272  0.1095 -0.3952  1.2302
  186DOPC   C3922940   6.391   2.222   6.328  0.0286  1.3116 -1.4265
  186DOPC   H9X22941   6.366   2.128   6.276 -3.7710  1.5561 -0.3716
  186DOPC  C31022942   6.430   2.224   6.463 -0.6201 -0.3636  0.3131
  186DOPC  H10X22943   6.428   2.131   6.523  2.3793  0.3053  1.6535
  186DOPC  C31122944   6.479   2.341   6.547  0.2612 -0.5265 -0.2317
  186DOPC  H11X22945   6.388   2.392   6.584  0.7463  0.8551 -0.8582
  186DOPC  H11Y22946   6.536   2.411   6.482  1.8770 -0.3733  1.2801
  186DOPC  C31222947   6.576   2.308   6.665 -0.0076  0.9293  0.8125
  186DOPC  H12X22948   6.630   2.402   6.691 -0.1213  0.5780  2.4613
  186DOPC  H12Y22949   6.642   2.237   6.611 -1.8823 -0.4565  0.2432
  186DOPC  C31322950   6.521   2.232   6.791  0.3212 -1.1910  0.0549
  186DOPC  H13X22951   6.413   2.251   6.808  0.6708 -1.0323  2.2850
  186DOPC  H13Y22952   6.537   2.123   6.777 -3.7269 -2.3562  2.7656
  186DOPC  C31422953   6.584   2.282   6.920 -0.1612  0.1798 -0.2890
  186DOPC  H14X22954   6.689   2.252   6.899 -0.6163 -0.2220 -2.1410
  186DOPC  H14Y22955   6.575   2.392   6.933 -1.7665 -0.1277  1.9489
  186DOPC  C31522956   6.544   2.203   7.045  0.5709  0.1544 -0.4589
  186DOPC  H15X22957   6.535   2.096   7.016  2.1516  0.3830 -1.9194
  186DOPC  H15Y22958   6.446   2.246   7.077  0.9628 -0.1059  1.2109
  186DOPC  C31622959   6.636   2.210   7.165 -0.2710 -0.4856  0.1185
  186DOPC  H16X22960   6.740   2.177   7.145 -0.8898 -1.7348 -1.1743
  186DOPC  H16Y22961   6.631   2.316   7.199 -1.5567 -0.3908 -0.3153
  186DOPC  C31722962   6.585   2.122   7.283 -0.1698 -0.3053  0.5564
  186DOPC  H17X22963   6.475   2.139   7.281 -0.2862 -0.9978  1.0029
  186DOPC  H17Y22964   6.604   2.019   7.246 -1.2038 -0.0393 -0.7716
  186DOPC  C31822965   6.661   2.160   7.406  0.5037  0.0204  0.3750
  186DOPC  H18X22966   6.611   2.116   7.495 -2.4332  1.7374 -0.2911
  186DOPC  H18Y22967   6.768   2.133   7.395  0.2015 -0.7689 -0.8111
  186DOPC  H18Z22968   6.657   2.270   7.418 -1.7044 -0.0095  0.4115
  187DOPC     N22969   5.455   0.501   5.270 -0.0917 -0.2667 -0.7539
  187DOPC   C1222970   5.477   0.651   5.306 -0.5328 -0.1707 -0.2414
  187DOPC  H12A22971   5.415   0.680   5.389  0.7065  0.0728  0.6171
  187DOPC  H12B22972   5.454   0.711   5.219 -1.8027 -0.0425  0.1641
  187DOPC   C1322973   5.501   0.407   5.379  0.8480  0.0619  0.2856
  187DOPC  H13A22974   5.498   0.302   5.354 -2.9119  0.0058  0.3973
  187DOPC  H13B22975   5.607   0.424   5.382  1.0871 -0.4150 -2.4331
  187DOPC  H13C22976   5.454   0.425   5.475 -1.1056 -1.4814 -0.3071
  187DOPC   C1422977   5.541   0.475   5.148 -0.7204  0.0199  0.5318
  187DOPC  H14A22978   5.645   0.491   5.173 -0.6923 -1.3102  1.3695
  187DOPC  H14B22979   5.531   0.376   5.105 -0.3856  1.1722 -2.4568
  187DOPC  H14C22980   5.522   0.546   5.069  0.7537  1.4585  1.4071
  187DOPC   C1522981   5.306   0.483   5.243 -0.5868  0.5142  0.3316
  187DOPC  H15A22982   5.237   0.506   5.322 -0.9162  1.2893 -0.1763
  187DOPC  H15B22983   5.288   0.383   5.206 -0.8356  0.4568  0.6048
  187DOPC  H15C22984   5.280   0.548   5.161  1.1072 -0.5299 -1.1319
  187DOPC   C1122985   5.615   0.682   5.353  0.6585  0.1808  0.6836
  187DOPC  H11A22986   5.609   0.789   5.382  2.0631  0.4687  0.0112
  187DOPC  H11B22987   5.656   0.613   5.430  2.2209 -1.3207 -1.3753
  187DOPC     P22988   5.854   0.718   5.276 -0.1387  0.2810  0.0419
  187DOPC   O1322989   5.863   0.849   5.335 -0.5472 -0.3293 -0.3627
  187DOPC   O1422990   5.931   0.692   5.155 -0.7956  0.3184  0.0071
  187DOPC   O1222991   5.700   0.686   5.234  0.2692 -0.2785  0.1511
  187DOPC   O1122992   5.895   0.616   5.392 -0.4204  0.0832  0.4351
  187DOPC    C122993   6.036   0.608   5.429  0.0241  0.1347 -0.9055
  187DOPC    HA22994   6.103   0.677   5.372 -1.9802  0.7891 -2.5864
  187DOPC    HB22995   6.071   0.503   5.415 -0.7335 -0.2428 -0.0716
  187DOPC    C222996   6.060   0.627   5.579  0.0868 -0.4350  0.2324
  187DOPC    HS22997   5.990   0.567   5.641 -0.1080 -2.0809 -1.5025
  187DOPC   O2122998   6.035   0.761   5.608  0.2587  0.2787 -0.1125
  187DOPC   C2122999   5.910   0.807   5.626  0.2284 -0.5230  0.3883
  187DOPC   O2223000   5.804   0.743   5.630  0.0470  0.4480  0.0119
  187DOPC   C2223001   5.916   0.962   5.651 -0.7920  0.7855  0.1494
  187DOPC   H2R23002   5.813   0.997   5.676 -0.7521 -0.7533  2.8486
  187DOPC   H2S23003   5.960   1.004   5.558  0.4209  0.1201  0.4087
  187DOPC    C323004   6.201   0.596   5.630  0.2281  0.0472 -0.1434
  187DOPC    HX23005   6.272   0.670   5.588 -0.0347  0.1438 -0.4226
  187DOPC    HY23006   6.241   0.500   5.594  1.7353  1.0475 -1.2435
  187DOPC   O3123007   6.212   0.602   5.775 -0.2865  0.4790  0.1546
  187DOPC   C3123008   6.179   0.506   5.855  0.4576  0.6428 -0.3058
  187DOPC   O3223009   6.125   0.399   5.826  0.7468 -0.1088 -0.4132
  187DOPC   C3223010   6.214   0.553   6.000 -0.1386 -0.2952 -0.1920
  187DOPC   H2X23011   6.317   0.515   6.018 -0.4148 -0.8194  0.3354
  187DOPC   H2Y23012   6.224   0.663   6.007 -1.7497 -0.2226  1.6432
  187DOPC   C2323013   6.007   0.999   5.772 -0.5029 -0.4348 -0.1307
  187DOPC   H3R23014   6.002   1.110   5.775  0.2247 -0.3975 -0.1733
  187DOPC   H3S23015   6.108   0.962   5.744 -0.4416  1.0060 -1.9735
  187DOPC   C2423016   5.949   0.951   5.910 -0.6970 -0.1364  0.4602
  187DOPC   H4R23017   5.960   0.841   5.905  0.5957 -0.0005  0.1471
  187DOPC   H4S23018   5.844   0.986   5.900 -0.7753 -0.6773 -0.7871
  187DOPC   C2523019   6.024   1.015   6.026 -0.0987  0.8140  0.3468
  187DOPC   H5R23020   6.028   1.125   6.009 -2.1546  1.2386  2.0683
  187DOPC   H5S23021   6.130   0.984   6.021  0.3019  1.4730  3.0564
  187DOPC   C2623022   5.951   0.987   6.160  0.7601 -0.5529 -0.1271
  187DOPC   H6R23023   5.971   0.884   6.197  0.9571 -0.0866  1.0903
  187DOPC   H6S23024   5.841   0.998   6.151  0.7013 -0.7548  0.3043
  187DOPC   C2723025   5.999   1.079   6.277 -0.2133 -0.0394  0.0131
  187DOPC   H7R23026   5.968   1.183   6.253  0.1549  0.3057  0.9883
  187DOPC   H7S23027   6.110   1.080   6.282 -0.1924  2.0025  0.0063
  187DOPC   C2823028   5.936   1.035   6.403  0.1322  0.3004 -0.3921
  187DOPC   H8R23029   5.948   0.928   6.428 -0.5006 -0.4699 -3.0580
  187DOPC   H8S23030   5.827   1.048   6.382 -0.0065 -0.3858 -0.1105
  187DOPC   C2923031   5.968   1.125   6.520 -0.3373 -0.1111 -0.2195
  187DOPC   H9R23032   5.955   1.233   6.501 -0.5842  0.0402  0.7267
  187DOPC  C21023033   5.993   1.083   6.647 -0.7477 -0.5942 -0.0681
  187DOPC  H10R23034   6.009   1.159   6.725 -0.0794 -2.4022  1.6426
  187DOPC  C21123035   6.005   0.943   6.698 -0.6545  0.1105 -0.6123
  187DOPC  H11R23036   6.106   0.926   6.740 -2.1493  1.8167  4.4548
  187DOPC  H11S23037   6.000   0.863   6.622 -1.5145 -0.8769  0.4377
  187DOPC  C21223038   5.904   0.904   6.814  0.7329 -0.0018  0.8673
  187DOPC  H12R23039   5.894   0.794   6.811 -0.4504  0.1063 -0.6682
  187DOPC  H12S23040   5.804   0.933   6.775  1.1458 -1.8111 -1.8728
  187DOPC  C21323041   5.933   0.954   6.958 -0.0945  0.3908 -0.0300
  187DOPC  H13R23042   5.929   1.065   6.952  1.3038  0.3713 -3.3110
  187DOPC  H13S23043   6.033   0.921   6.992 -0.4190  0.6041  1.1906
  187DOPC  C21423044   5.831   0.897   7.063  0.0437 -0.0736  0.0834
  187DOPC  H14R23045   5.842   0.787   7.056 -1.1882 -0.1503 -1.1689
  187DOPC  H14S23046   5.722   0.911   7.043  0.1564 -1.4367 -1.7623
  187DOPC  C21523047   5.860   0.945   7.204  0.2776  0.2214  0.0594
  187DOPC  H15R23048   5.888   1.053   7.204  0.5004  0.1665  0.2406
  187DOPC  H15S23049   5.947   0.887   7.241  1.3842  0.7725 -1.5651
  187DOPC  C21623050   5.752   0.915   7.312 -0.9982  0.4993 -0.2912
  187DOPC  H16R23051   5.711   0.812   7.298  0.4633  0.0717 -1.7775
  187DOPC  H16S23052   5.671   0.990   7.302  0.3805  2.0492 -0.3533
  187DOPC  C21723053   5.789   0.925   7.459 -0.2271 -0.8353 -0.5365
  187DOPC  H17R23054   5.700   0.909   7.522  0.2369  0.1145  0.3937
  187DOPC  H17S23055   5.815   1.028   7.491  0.3254 -0.6858 -1.4283
  187DOPC  C21823056   5.895   0.832   7.520  0.3573  0.5709  0.1299
  187DOPC  H18R23057   5.863   0.784   7.615 -0.4592 -0.2870 -0.5668
  187DOPC  H18S23058   5.994   0.883   7.521  0.9499 -0.5542  0.9694
  187DOPC  H18T23059   5.896   0.740   7.458 -3.5652  0.7657 -0.4307
  187DOPC   C3323060   6.113   0.511   6.105  0.1032 -0.1008  0.1068
  187DOPC   H3X23061   6.120   0.401   6.113  0.7235 -0.1138 -0.4938
  187DOPC   H3Y23062   6.011   0.525   6.064  0.0862 -0.7820 -0.0952
  187DOPC   C3423063   6.129   0.573   6.249 -0.3838 -0.4003  0.1745
  187DOPC   H4X23064   6.138   0.682   6.230 -0.2073 -0.2214  1.2143
  187DOPC   H4Y23065   6.220   0.528   6.294  0.1264  0.3077 -0.1113
  187DOPC   C3523066   6.013   0.538   6.341 -0.3728  0.1557 -0.1310
  187DOPC   H5X23067   5.989   0.430   6.348 -2.5754  0.6111  0.1507
  187DOPC   H5Y23068   5.925   0.587   6.293  1.1436  1.2812 -1.8628
  187DOPC   C3623069   6.026   0.603   6.484 -0.0525 -0.5781 -0.4992
  187DOPC   H6X23070   6.070   0.705   6.472 -2.0558  0.4920  0.7492
  187DOPC   H6Y23071   5.922   0.619   6.519  0.5968  0.5643  1.0524
  187DOPC   C3723072   6.110   0.529   6.584 -0.2036  0.7058  0.0239
  187DOPC   H7X23073   6.091   0.421   6.564  0.7785  0.9401 -2.6561
  187DOPC   H7Y23074   6.214   0.538   6.547 -0.1201 -1.0615 -0.2888
  187DOPC   C3823075   6.088   0.573   6.730 -0.2588  0.6416 -0.3774
  187DOPC   H8X23076   6.084   0.684   6.732  2.3763  0.8160  1.7639
  187DOPC   H8Y23077   6.175   0.544   6.794 -0.3091  2.4325  0.5785
  187DOPC   C3923078   5.963   0.525   6.786  0.4401  0.0283  0.5737
  187DOPC   H9X23079   5.877   0.507   6.720  1.9291  2.9189 -2.4697
  187DOPC  C31023080   5.938   0.496   6.912 -0.2457 -0.5021 -0.1179
  187DOPC  H10X23081   5.842   0.445   6.930 -1.2910  0.3932 -2.6121
  187DOPC  C31123082   6.046   0.512   7.015  0.0394  0.4773 -0.5903
  187DOPC  H11X23083   6.057   0.619   7.043 -0.0750 -0.3764  3.2936
  187DOPC  H11Y23084   6.146   0.467   6.995 -0.9118 -2.0585 -0.0604
  187DOPC  C31223085   6.012   0.422   7.137 -0.2469  0.0429 -0.8840
  187DOPC  H12X23086   6.020   0.316   7.105 -1.7214 -0.1090 -0.8235
  187DOPC  H12Y23087   5.904   0.429   7.162  0.3781  0.5774  2.0419
  187DOPC  C31323088   6.100   0.439   7.258  0.4587 -0.3854 -0.2111
  187DOPC  H13X23089   6.207   0.437   7.228  0.7726 -0.2673  0.8362
  187DOPC  H13Y23090   6.078   0.529   7.320 -1.2550 -1.6834  1.1883
  187DOPC  C31423091   6.083   0.319   7.360  0.5812  0.2617 -0.3701
  187DOPC  H14X23092   5.976   0.295   7.372  0.7975 -0.1649  0.9017
  187DOPC  H14Y23093   6.138   0.228   7.327  0.2384 -0.4059  0.8265
  187DOPC  C31523094   6.135   0.352   7.505  0.3731  0.4081  0.6326
  187DOPC  H15X23095   6.143   0.265   7.573  0.0200  0.4565  0.7427
  187DOPC  H15Y23096   6.060   0.428   7.537 -0.9994 -0.1677 -1.0668
  187DOPC  C31623097   6.286   0.402   7.504 -0.3145  0.7526 -0.0839
  187DOPC  H16X23098   6.348   0.334   7.441 -3.1094 -1.9709 -0.1549
  187DOPC  H16Y23099   6.292   0.503   7.458 -2.4697  1.0939  0.2893
  187DOPC  C31723100   6.354   0.418   7.643 -0.3395 -0.1497  0.2358
  187DOPC  H17X23101   6.358   0.316   7.687  2.0855 -0.2631 -0.1360
  187DOPC  H17Y23102   6.458   0.459   7.639 -0.7960  1.1366  0.9060
  187DOPC  C31823103   6.273   0.511   7.731 -0.8180  0.6392 -0.4131
  187DOPC  H18X23104   6.286   0.618   7.705 -0.2118  1.4659  2.8123
  187DOPC  H18Y23105   6.164   0.491   7.719 -0.5550 -1.3437  0.1136
  187DOPC  H18Z23106   6.300   0.515   7.839 -0.8400  0.2797 -0.3940
  188DOPC     N23107   2.571   0.360   4.646 -0.0344 -0.3585  0.1121
  188DOPC   C1223108   2.574   0.377   4.797  0.0905 -0.3440  0.2899
  188DOPC  H12A23109   2.502   0.449   4.835 -0.3255 -0.8387  0.4540
  188DOPC  H12B23110   2.668   0.425   4.818  0.5899  0.1682 -2.6611
  188DOPC   C1323111   2.435   0.322   4.614  0.7537  0.1766  0.4770
  188DOPC  H13A23112   2.374   0.404   4.650 -0.4373  0.0653 -1.1380
  188DOPC  H13B23113   2.425   0.322   4.506  1.0017 -0.5905  0.4502
  188DOPC  H13C23114   2.407   0.224   4.649  2.4512  0.1919  2.0011
  188DOPC   C1423115   2.667   0.262   4.598  0.2565  0.2732 -0.0997
  188DOPC  H14A23116   2.668   0.255   4.490  0.8072  0.3798 -0.1024
  188DOPC  H14B23117   2.769   0.270   4.632  0.0423 -2.2327  1.3444
  188DOPC  H14C23118   2.641   0.169   4.647  0.4769  0.1740 -0.1679
  188DOPC   C1523119   2.603   0.493   4.585  0.2280  0.0638 -0.3875
  188DOPC  H15A23120   2.586   0.486   4.479 -2.5770  0.3260 -0.0476
  188DOPC  H15B23121   2.705   0.526   4.597  0.1245  0.7440 -1.2925
  188DOPC  H15C23122   2.544   0.578   4.616  1.5977  1.3552 -1.2161
  188DOPC   C1123123   2.553   0.252   4.886  0.2030 -0.5597 -0.2364
  188DOPC  H11A23124   2.557   0.289   4.990  0.5667  0.6930 -0.6769
  188DOPC  H11B23125   2.449   0.214   4.876 -0.0602  0.0364  0.1391
  188DOPC     P23126   2.776   0.127   4.943 -0.3994  0.3910 -0.2117
  188DOPC   O1323127   2.847   0.255   4.932 -0.3316  0.1480 -0.0697
  188DOPC   O1423128   2.832   0.001   4.890 -0.4448 -0.9425 -0.0703
  188DOPC   O1223129   2.640   0.139   4.869 -0.3807  0.3587  0.2193
  188DOPC   O1123130   2.733   0.105   5.090 -0.5854  0.3552  0.6368
  188DOPC    C123131   2.654  -0.006   5.129  0.0833  0.0174  0.4010
  188DOPC    HA23132   2.712  -0.100   5.141 -1.3383 -0.7677  1.4014
  188DOPC    HB23133   2.574  -0.025   5.055  0.8705  2.0344 -1.0418
  188DOPC    C223134   2.579   0.014   5.257  0.1900 -0.6360  0.2959
  188DOPC    HS23135   2.502  -0.064   5.276 -0.8817  0.8155  2.1821
  188DOPC   O2123136   2.523   0.145   5.246 -0.4342 -0.4790  0.9447
  188DOPC   C2123137   2.399   0.147   5.206 -0.1372 -0.2923 -0.6053
  188DOPC   O2223138   2.330   0.053   5.176 -0.5761  0.1132  0.0597
  188DOPC   C2223139   2.346   0.290   5.218  0.2035 -0.3836 -0.2001
  188DOPC   H2R23140   2.350   0.336   5.117 -0.0367 -0.8067 -0.4044
  188DOPC   H2S23141   2.429   0.340   5.272  1.8118 -2.1528 -0.9162
  188DOPC    C323142   2.680   0.018   5.382  0.7640  0.0682  0.0631
  188DOPC    HX23143   2.745   0.104   5.357 -0.2589  0.4222 -1.5229
  188DOPC    HY23144   2.741  -0.075   5.376  1.3281  0.5267 -3.6304
  188DOPC   O3123145   2.605   0.040   5.512  0.1383  0.3887  0.1344
  188DOPC   C3123146   2.643   0.138   5.588  0.1775 -0.6763  0.3206
  188DOPC   O3223147   2.746   0.202   5.577 -0.5358  0.1852 -0.6855
  188DOPC   C3223148   2.551   0.151   5.710  0.7206 -0.2925 -0.2060
  188DOPC   H2X23149   2.447   0.183   5.685  1.6192  1.7882 -1.5125
  188DOPC   H2Y23150   2.540   0.056   5.767 -1.1837 -0.2086 -0.3765
  188DOPC   C2323151   2.205   0.303   5.283  0.1349  0.0085  0.5814
  188DOPC   H3R23152   2.124   0.240   5.241 -0.0464 -0.0842  1.0688
  188DOPC   H3S23153   2.173   0.410   5.279 -0.2756 -0.1470 -0.7284
  188DOPC   C2423154   2.202   0.272   5.439 -0.3344  0.8193  0.6179
  188DOPC   H4R23155   2.249   0.360   5.488  3.0470 -1.1341  1.1955
  188DOPC   H4S23156   2.263   0.182   5.459 -0.1597  0.8467  0.2280
  188DOPC   C2523157   2.057   0.252   5.480  0.9055  0.3329 -0.1628
  188DOPC   H5R23158   2.004   0.169   5.428  2.3255 -0.1797 -0.8623
  188DOPC   H5S23159   2.007   0.347   5.453 -1.2042 -1.1146 -1.7880
  188DOPC   C2623160   2.035   0.235   5.626 -0.6540  0.1114 -0.8188
  188DOPC   H6R23161   2.100   0.155   5.667 -1.3645  0.2340  0.6246
  188DOPC   H6S23162   1.939   0.184   5.653 -0.8102 -0.5318 -2.4879
  188DOPC   C2723163   2.065   0.367   5.702 -0.2331  0.4000  0.5884
  188DOPC   H7R23164   1.967   0.417   5.717  0.6552  2.3737  0.1993
  188DOPC   H7S23165   2.124   0.445   5.648 -2.2483  2.1644  0.8219
  188DOPC   C2823166   2.135   0.340   5.842  0.2193  0.4369  0.8271
  188DOPC   H8R23167   2.236   0.306   5.810  0.1694  1.1153 -0.0886
  188DOPC   H8S23168   2.105   0.246   5.892  1.8559 -0.9156 -0.5753
  188DOPC   C2923169   2.136   0.464   5.935 -0.3273 -0.3957  0.5453
  188DOPC   H9R23170   2.210   0.542   5.915 -1.1948  0.1069 -0.8232
  188DOPC  C21023171   2.053   0.481   6.036 -0.5420 -0.5036 -0.4768
  188DOPC  H10R23172   2.061   0.579   6.085  0.9676 -1.7432  1.9882
  188DOPC  C21123173   1.952   0.394   6.097  0.0908  0.4284 -0.1267
  188DOPC  H11R23174   1.933   0.309   6.028  0.8039 -0.4256  0.6894
  188DOPC  H11S23175   1.858   0.451   6.113  0.3500  0.8297 -0.0140
  188DOPC  C21223176   1.993   0.326   6.237  0.3817  0.0912 -0.8205
  188DOPC  H12R23177   2.082   0.260   6.227  0.5992  0.1758  0.4531
  188DOPC  H12S23178   1.901   0.265   6.254 -0.8192  1.1070 -3.1805
  188DOPC  C21323179   2.008   0.422   6.358  0.0510  0.4389  0.3277
  188DOPC  H13R23180   1.922   0.493   6.346  0.9369  1.4607 -0.1683
  188DOPC  H13S23181   2.105   0.475   6.345 -0.7193  2.6718  2.7383
  188DOPC  C21423182   2.012   0.354   6.498  0.1425 -0.4195 -0.3413
  188DOPC  H14R23183   2.008   0.442   6.566 -2.7750 -2.0092  1.8049
  188DOPC  H14S23184   2.114   0.315   6.521  1.7408  2.3802 -2.1789
  188DOPC  C21523185   1.898   0.259   6.529  0.5780  0.1888  0.4706
  188DOPC  H15R23186   1.910   0.172   6.462 -0.6992 -0.1224  0.6089
  188DOPC  H15S23187   1.800   0.307   6.507  0.1276 -1.6919 -2.0645
  188DOPC  C21623188   1.892   0.197   6.668 -0.4365 -0.7600  0.1756
  188DOPC  H16R23189   1.988   0.144   6.687  0.6710  1.3616  0.7783
  188DOPC  H16S23190   1.810   0.122   6.678  1.3490 -3.0867 -1.6222
  188DOPC  C21723191   1.870   0.312   6.771 -0.3930  0.6982  0.0794
  188DOPC  H17R23192   1.781   0.375   6.752  1.1398  2.8146 -0.4926
  188DOPC  H17S23193   1.957   0.380   6.761 -1.2803  1.8850  0.2188
  188DOPC  C21823194   1.870   0.253   6.913 -0.2911 -0.4020  0.1205
  188DOPC  H18R23195   1.825   0.325   6.985 -0.9593 -0.3925 -0.3046
  188DOPC  H18S23196   1.970   0.214   6.943 -1.0636 -1.8886  0.8695
  188DOPC  H18T23197   1.807   0.162   6.901 -0.6507  0.0633 -1.9327
  188DOPC   C3323198   2.612   0.250   5.815  0.1528  0.2523  0.0265
  188DOPC   H3X23199   2.608   0.350   5.767  1.2066 -0.3282 -1.3101
  188DOPC   H3Y23200   2.714   0.208   5.824  0.4099  0.6190 -1.0495
  188DOPC   C3423201   2.546   0.239   5.951  0.0168 -0.3182  0.6588
  188DOPC   H4X23202   2.624   0.196   6.019  0.2749  1.1507  1.3207
  188DOPC   H4Y23203   2.465   0.163   5.946  2.5240 -3.1510 -0.5221
  188DOPC   C3523204   2.514   0.373   6.010  0.1490 -0.6258  0.5317
  188DOPC   H5X23205   2.421   0.398   5.954  0.7776  0.3901 -0.0895
  188DOPC   H5Y23206   2.596   0.445   5.992  1.3893 -1.8278  1.1923
  188DOPC   C3623207   2.487   0.362   6.163 -0.5468 -0.6851  0.6466
  188DOPC   H6X23208   2.411   0.289   6.195 -1.1594 -2.2275 -3.6954
  188DOPC   H6Y23209   2.583   0.326   6.205 -0.1028 -1.0249 -0.6198
  188DOPC   C3723210   2.422   0.492   6.217  0.2716  0.5346 -0.2946
  188DOPC   H7X23211   2.466   0.584   6.174 -2.4380  1.3002 -1.6623
  188DOPC   H7Y23212   2.317   0.469   6.188  0.3336 -2.9686  1.7477
  188DOPC   C3823213   2.418   0.494   6.372  0.2582 -0.8506  0.3514
  188DOPC   H8X23214   2.528   0.510   6.379  0.2132  2.5320 -3.1746
  188DOPC   H8Y23215   2.387   0.396   6.413 -2.5846 -0.6857 -1.1875
  188DOPC   C3923216   2.355   0.616   6.437  0.3234  0.3966  0.1181
  188DOPC   H9X23217   2.333   0.704   6.375 -4.1895 -1.9529 -2.0857
  188DOPC  C31023218   2.306   0.628   6.565  0.1905  0.4083  0.1526
  188DOPC  H10X23219   2.277   0.729   6.599  0.4739  1.4842 -2.5393
  188DOPC  C31123220   2.290   0.517   6.667 -0.3336 -0.2792 -0.0395
  188DOPC  H11X23221   2.367   0.441   6.640  0.7032  0.1965  1.4207
  188DOPC  H11Y23222   2.189   0.472   6.660 -0.5237  0.1679 -0.1981
  188DOPC  C31223223   2.305   0.575   6.815 -0.2285  0.4403 -0.2646
  188DOPC  H12X23224   2.267   0.679   6.820  0.7612  0.7572  2.2874
  188DOPC  H12Y23225   2.414   0.580   6.834 -0.2714  0.4100 -0.0109
  188DOPC  C31323226   2.239   0.494   6.925  0.6182  1.0041  0.0609
  188DOPC  H13X23227   2.129   0.501   6.918  0.6829  0.9779 -1.2672
  188DOPC  H13Y23228   2.251   0.387   6.899 -1.2074  0.7288  0.2191
  188DOPC  C31423229   2.274   0.531   7.070 -0.2968 -0.3984  0.4767
  188DOPC  H14X23230   2.251   0.453   7.146 -1.6171  1.3058  1.9280
  188DOPC  H14Y23231   2.385   0.535   7.076 -0.1759  3.5917 -1.2667
  188DOPC  C31523232   2.216   0.669   7.101 -0.3473  0.3288  0.0435
  188DOPC  H15X23233   2.244   0.724   7.009  0.1910 -2.5229 -1.6359
  188DOPC  H15Y23234   2.280   0.698   7.187  1.1053 -2.8319  0.1610
  188DOPC  C31623235   2.063   0.675   7.121 -0.0935 -0.1100  0.0576
  188DOPC  H16X23236   2.056   0.784   7.136  0.5263  0.2200 -1.7773
  188DOPC  H16Y23237   2.006   0.652   7.028 -2.1848  2.0526  0.7232
  188DOPC  C31723238   2.003   0.598   7.239  0.0032  0.2036 -0.0929
  188DOPC  H17X23239   1.908   0.646   7.270 -0.6015 -0.8049 -0.3534
  188DOPC  H17Y23240   1.970   0.497   7.207 -0.3649  0.5849 -0.9495
  188DOPC  C31823241   2.092   0.589   7.368  0.3128 -0.0555  0.4102
  188DOPC  H18X23242   2.044   0.532   7.451  0.4475 -2.6429 -1.1755
  188DOPC  H18Y23243   2.183   0.531   7.341  0.3447  1.1713 -2.4626
  188DOPC  H18Z23244   2.117   0.692   7.402  0.5043 -0.1528  0.5701
  189DOPC     N23245   3.483   1.090   5.016  0.6061  0.1276 -0.6125
  189DOPC   C1223246   3.531   0.994   5.126 -0.3909  1.3314  0.4200
  189DOPC  H12A23247   3.588   1.050   5.198  2.7784  0.3146 -1.0977
  189DOPC  H12B23248   3.607   0.931   5.082 -2.0240 -0.9951  0.7206
  189DOPC   C1323249   3.589   1.203   4.993 -0.2688 -0.1440  0.2605
  189DOPC  H13A23250   3.559   1.272   4.916  2.0427  1.7752  0.9515
  189DOPC  H13B23251   3.595   1.256   5.087  0.7197 -2.5005  1.6356
  189DOPC  H13C23252   3.689   1.168   4.970  0.4200 -0.5628  3.3787
  189DOPC   C1423253   3.356   1.153   5.069  0.3628 -0.0567  0.2806
  189DOPC  H14A23254   3.284   1.073   5.077  0.9722 -0.4698  2.1259
  189DOPC  H14B23255   3.365   1.197   5.167  0.6415  2.1268 -0.6460
  189DOPC  H14C23256   3.319   1.232   5.005  0.5861  0.3402  0.6288
  189DOPC   C1523257   3.455   1.009   4.895  0.2056  0.1741 -0.2697
  189DOPC  H15A23258   3.550   0.970   4.861  0.8154 -0.5602  2.0889
  189DOPC  H15B23259   3.414   1.071   4.817  1.7997 -0.6925 -1.8762
  189DOPC  H15C23260   3.392   0.923   4.911  0.8055 -0.9180 -3.1228
  189DOPC   C1123261   3.431   0.900   5.197  0.2958 -0.4437  0.0186
  189DOPC  H11A23262   3.492   0.860   5.280  0.9392  1.2983  0.4243
  189DOPC  H11B23263   3.348   0.956   5.245 -1.4965 -1.4902 -1.6667
  189DOPC     P23264   3.457   0.655   5.098 -0.3434 -0.4482  0.6038
  189DOPC   O1323265   3.598   0.679   5.109 -0.1581  0.3578  0.5982
  189DOPC   O1423266   3.409   0.583   4.977  0.3100 -0.0173 -0.2256
  189DOPC   O1223267   3.382   0.792   5.114  0.5083 -0.0246 -0.7894
  189DOPC   O1123268   3.422   0.580   5.228 -0.4249  0.0422  0.3237
  189DOPC    C123269   3.295   0.583   5.295 -0.0759  0.4482 -0.6218
  189DOPC    HA23270   3.223   0.523   5.236  1.0491 -0.8298 -0.7581
  189DOPC    HB23271   3.252   0.685   5.303 -1.5870 -0.1088 -1.2731
  189DOPC    C223272   3.300   0.516   5.444 -0.2489  0.0118  1.1172
  189DOPC    HS23273   3.197   0.526   5.483 -1.7064  0.3003 -2.4559
  189DOPC   O2123274   3.391   0.595   5.519 -0.3390  0.0431 -0.3358
  189DOPC   C2123275   3.347   0.705   5.581  0.3446  0.4422 -0.1849
  189DOPC   O2223276   3.230   0.749   5.587  0.5799  0.3108 -0.7282
  189DOPC   C2223277   3.465   0.767   5.655  0.8093  0.0638 -0.7703
  189DOPC   H2R23278   3.442   0.876   5.654  0.7561  0.0516 -0.8662
  189DOPC   H2S23279   3.557   0.761   5.593  2.1773  0.4376  1.1144
  189DOPC    C323280   3.342   0.366   5.452  0.4922  0.2004  0.1149
  189DOPC    HX23281   3.438   0.346   5.399  1.8507  0.8531  2.2129
  189DOPC    HY23282   3.267   0.304   5.399 -0.4887  2.8335 -1.7961
  189DOPC   O3123283   3.340   0.310   5.587 -0.0568  0.2731  0.5117
  189DOPC   C3123284   3.459   0.296   5.650  0.0502  0.3905 -0.2888
  189DOPC   O3223285   3.570   0.325   5.599  0.0937  0.2808 -0.0300
  189DOPC   C3223286   3.434   0.269   5.801  0.4394 -0.5666  0.2931
  189DOPC   H2X23287   3.331   0.232   5.821  0.2619  0.6099  1.6778
  189DOPC   H2Y23288   3.497   0.180   5.820  1.2938  0.3265  1.8098
  189DOPC   C2323289   3.496   0.711   5.796 -0.3019  0.5553  0.2303
  189DOPC   H3R23290   3.593   0.753   5.830  0.0268  1.7212 -1.9615
  189DOPC   H3S23291   3.526   0.605   5.779 -0.2576  0.1648  2.4065
  189DOPC   C2423292   3.392   0.740   5.898 -0.0231  0.0910  0.6288
  189DOPC   H4R23293   3.305   0.676   5.871  0.3261  0.3957 -1.4219
  189DOPC   H4S23294   3.366   0.846   5.879  0.0966 -0.2940 -2.1870
  189DOPC   C2523295   3.426   0.725   6.046 -0.7811 -0.1652 -0.4452
  189DOPC   H5R23296   3.526   0.772   6.058 -0.6879 -0.2751 -0.7766
  189DOPC   H5S23297   3.443   0.622   6.081 -0.7861 -0.1190 -0.3068
  189DOPC   C2623298   3.325   0.791   6.146 -0.3272 -0.2651  0.0912
  189DOPC   H6R23299   3.227   0.738   6.141  0.4916 -1.9098  0.5239
  189DOPC   H6S23300   3.323   0.901   6.134  0.7959 -0.0336  1.6921
  189DOPC   C2723301   3.384   0.758   6.283  0.5112 -0.5682 -0.1963
  189DOPC   H7R23302   3.494   0.770   6.274  0.1303  2.6282 -2.3533
  189DOPC   H7S23303   3.365   0.651   6.309  0.9891 -0.6353 -0.1091
  189DOPC   C2823304   3.338   0.849   6.400 -0.1372 -0.3528 -0.3832
  189DOPC   H8R23305   3.372   0.950   6.368  1.9315 -1.5087 -2.0209
  189DOPC   H8S23306   3.397   0.822   6.490  1.6278  0.5797 -1.2171
  189DOPC   C2923307   3.183   0.842   6.407 -0.3451  0.4831  0.2525
  189DOPC   H9R23308   3.136   0.886   6.318  1.4379 -0.2098 -1.0794
  189DOPC  C21023309   3.107   0.799   6.509 -0.6298  0.2370 -0.0513
  189DOPC  H10R23310   2.998   0.790   6.495 -0.5731  1.3287 -1.4332
  189DOPC  C21123311   3.159   0.748   6.633 -0.2212 -0.7813 -0.0307
  189DOPC  H11R23312   3.262   0.707   6.631 -0.4545 -1.5652  1.8120
  189DOPC  H11S23313   3.089   0.672   6.676 -2.0605  1.4857  1.2060
  189DOPC  C21223314   3.170   0.858   6.743 -0.0073 -0.0004 -0.8612
  189DOPC  H12R23315   3.201   0.798   6.830 -1.4337  0.5189  0.0339
  189DOPC  H12S23316   3.071   0.904   6.765 -0.0211 -1.3352  2.3835
  189DOPC  C21323317   3.265   0.970   6.707 -0.3283  0.2320 -0.0983
  189DOPC  H13R23318   3.216   1.055   6.654 -2.2628 -1.3590 -1.0087
  189DOPC  H13S23319   3.342   0.938   6.633  0.3750 -1.8310  1.4491
  189DOPC  C21423320   3.343   1.012   6.832 -0.1345 -0.8070 -0.7448
  189DOPC  H14R23321   3.412   1.092   6.798 -0.4716 -0.5311 -0.7860
  189DOPC  H14S23322   3.407   0.924   6.855 -0.7576 -1.8798 -2.7830
  189DOPC  C21523323   3.263   1.047   6.961 -0.4870  0.0393  0.8500
  189DOPC  H15R23324   3.154   1.035   6.945 -0.1534 -0.2816 -1.6360
  189DOPC  H15S23325   3.300   1.145   6.997  1.0547 -0.1131 -0.2100
  189DOPC  C21623326   3.297   0.941   7.072  0.2887 -0.6732 -0.2106
  189DOPC  H16R23327   3.405   0.948   7.097  0.1815  0.1569  0.0803
  189DOPC  H16S23328   3.271   0.838   7.041  1.6166 -1.4227  1.0456
  189DOPC  C21723329   3.236   0.977   7.210  0.0457 -0.2513  0.7999
  189DOPC  H17R23330   3.220   1.086   7.226  2.1599  0.6521 -2.2642
  189DOPC  H17S23331   3.302   0.944   7.293  0.5907 -1.6411 -0.1449
  189DOPC  C21823332   3.094   0.920   7.219 -0.0280  0.2426 -0.6343
  189DOPC  H18R23333   3.084   0.811   7.201 -0.8090  0.3053 -0.6088
  189DOPC  H18S23334   3.029   0.970   7.144 -0.4085 -0.7240 -0.9575
  189DOPC  H18T23335   3.049   0.946   7.318  2.2550  2.3020 -0.0357
  189DOPC   C3323336   3.473   0.376   5.898 -0.1446 -0.2018 -0.0277
  189DOPC   H3X23337   3.399   0.459   5.908 -0.4271 -0.3847 -0.6058
  189DOPC   H3Y23338   3.570   0.423   5.871 -0.3653  0.1312 -0.2460
  189DOPC   C3423339   3.491   0.326   6.041  0.2097 -0.3426  0.1879
  189DOPC   H4X23340   3.557   0.399   6.093  1.2027 -0.4272 -0.8920
  189DOPC   H4Y23341   3.548   0.231   6.050  0.6634 -0.0586  0.3612
  189DOPC   C3523342   3.360   0.308   6.125 -0.2488 -0.3845 -0.3920
  189DOPC   H5X23343   3.319   0.205   6.116  0.3264 -0.6429 -0.1358
  189DOPC   H5Y23344   3.283   0.385   6.102 -2.5007 -2.0477  1.2211
  189DOPC   C3623345   3.389   0.320   6.277  0.0483  0.4451 -0.5021
  189DOPC   H6X23346   3.465   0.246   6.309  0.5581  0.0175 -2.5477
  189DOPC   H6Y23347   3.434   0.419   6.300  1.5866 -0.0344 -1.3213
  189DOPC   C3723348   3.264   0.303   6.362 -0.0696  0.1898  0.3257
  189DOPC   H7X23349   3.185   0.370   6.321  0.3789  0.2051 -0.5360
  189DOPC   H7Y23350   3.225   0.199   6.363 -1.7299  0.7324  2.9458
  189DOPC   C3823351   3.286   0.335   6.511 -0.2367 -0.4227 -0.2631
  189DOPC   H8X23352   3.201   0.391   6.554  1.0629  1.0952  0.4542
  189DOPC   H8Y23353   3.372   0.406   6.515 -1.2221  0.7922  0.0629
  189DOPC   C3923354   3.313   0.210   6.597  0.2671 -0.0451 -0.4155
  189DOPC   H9X23355   3.419   0.182   6.590  1.1678  3.0397 -0.2769
  189DOPC  C31023356   3.230   0.141   6.683 -0.5127  0.4510  0.5805
  189DOPC  H10X23357   3.269   0.059   6.746  0.3453  0.0885 -0.3827
  189DOPC  C31123358   3.086   0.171   6.710 -0.0817  0.2629  0.5322
  189DOPC  H11X23359   3.030   0.076   6.722 -2.7551  1.6443 -0.2437
  189DOPC  H11Y23360   3.042   0.209   6.615  1.1755  0.2155 -0.0888
  189DOPC  C31223361   3.057   0.260   6.831 -0.2916 -0.6764 -0.1814
  189DOPC  H12X23362   2.948   0.274   6.847 -0.2215  0.0072 -0.2478
  189DOPC  H12Y23363   3.102   0.358   6.803 -1.2967  0.1237  0.8913
  189DOPC  C31323364   3.120   0.218   6.960  0.1476 -0.3574 -0.1813
  189DOPC  H13X23365   3.090   0.115   6.988  0.6981 -0.4523  0.0894
  189DOPC  H13Y23366   3.230   0.221   6.940 -0.0320 -0.4654 -1.2449
  189DOPC  C31423367   3.098   0.319   7.071 -0.2302 -0.3514 -0.0249
  189DOPC  H14X23368   3.158   0.410   7.047  1.1119 -1.2011 -0.0532
  189DOPC  H14Y23369   2.991   0.348   7.069 -0.5987 -1.4447  1.8427
  189DOPC  C31523370   3.118   0.257   7.209 -0.4862  0.6370  0.1565
  189DOPC  H15X23371   3.220   0.213   7.214 -0.8227 -0.1606  0.1778
  189DOPC  H15Y23372   3.050   0.169   7.211  0.1170  0.1755  0.9926
  189DOPC  C31623373   3.086   0.350   7.328  0.7284  0.2455 -0.1585
  189DOPC  H16X23374   2.991   0.402   7.307  0.2480  0.4148  2.1016
  189DOPC  H16Y23375   3.081   0.290   7.422  0.0899 -0.3169 -0.5484
  189DOPC  C31723376   3.190   0.465   7.345 -0.1946 -0.0328 -0.3908
  189DOPC  H17X23377   3.285   0.417   7.375 -0.3710 -1.0734 -1.3857
  189DOPC  H17Y23378   3.199   0.511   7.244 -1.3082 -0.2336 -0.6024
  189DOPC  C31823379   3.151   0.570   7.447  0.0453 -0.0654  0.1773
  189DOPC  H18X23380   3.140   0.524   7.548 -0.2386 -0.3075  0.0371
  189DOPC  H18Y23381   3.230   0.647   7.459 -0.2179  0.3797 -0.8905
  189DOPC  H18Z23382   3.067   0.629   7.406  1.4141  1.0993 -1.0573
  190DOPC     N23383   2.983   6.244   5.123 -0.6857 -0.9231  0.0857
  190DOPC   C1223384   2.866   6.273   5.210 -0.0793 -0.0491 -0.2890
  190DOPC  H12A23385   2.781   6.208   5.196  0.9342 -1.2594 -1.1684
  190DOPC  H12B23386   2.835   6.375   5.193  1.6773  0.6513  0.4394
  190DOPC   C1323387   3.090   6.350   5.133 -0.6617  0.5084  0.6808
  190DOPC  H13A23388   3.061   6.449   5.101 -0.7695  0.2757  0.0324
  190DOPC  H13B23389   3.127   6.361   5.234  1.6618  0.2387 -0.0909
  190DOPC  H13C23390   3.169   6.319   5.067 -1.5609 -0.6918  0.1384
  190DOPC   C1423391   2.942   6.230   4.985 -0.0948  0.1737  0.0767
  190DOPC  H14A23392   2.862   6.161   4.965 -1.4540  1.8938 -0.6825
  190DOPC  H14B23393   2.905   6.325   4.949 -1.6265  0.2250  1.6286
  190DOPC  H14C23394   3.024   6.212   4.917  0.1912  1.0923  0.1629
  190DOPC   C1523395   3.046   6.116   5.175 -0.0000  0.6127  0.2155
  190DOPC  H15A23396   2.974   6.040   5.149 -0.1356  0.6072  0.6022
  190DOPC  H15B23397   3.065   6.114   5.282 -0.0744 -1.8529  0.2243
  190DOPC  H15C23398   3.134   6.091   5.118  1.8625  3.3136  1.6697
  190DOPC   C1123399   2.881   6.250   5.363  0.0339 -0.0288 -0.4698
  190DOPC  H11A23400   2.979   6.294   5.393 -1.0921  1.4925  1.2131
  190DOPC  H11B23401   2.795   6.299   5.415 -1.5741 -1.6994 -1.4385
  190DOPC     P23402   2.742   6.030   5.394 -0.1903 -0.4262  0.0235
  190DOPC   O1323403   2.766   5.895   5.440  0.1547  0.7782 -0.0794
  190DOPC   O1423404   2.690   6.037   5.257 -0.4595 -0.3995  0.7174
  190DOPC   O1223405   2.882   6.112   5.403 -0.4910  0.1210  0.1995
  190DOPC   O1123406   2.640   6.110   5.488 -0.3371  0.2917  0.2654
  190DOPC    C123407   2.535   6.186   5.431 -0.2072 -0.2666 -0.3895
  190DOPC    HA23408   2.478   6.125   5.358  0.7005 -0.2970 -1.0933
  190DOPC    HB23409   2.587   6.272   5.382  2.8422 -2.8287 -2.0205
  190DOPC    C223410   2.427   6.235   5.540 -0.4292 -0.2588  0.0081
  190DOPC    HS23411   2.376   6.327   5.505  0.1810  0.3816  0.7910
  190DOPC   O2123412   2.488   6.243   5.668  0.1258  0.1880 -0.1764
  190DOPC   C2123413   2.585   6.333   5.683  0.1054  0.2553 -0.6848
  190DOPC   O2223414   2.620   6.418   5.602  0.0819  0.1660 -0.3063
  190DOPC   C2223415   2.641   6.329   5.828  0.2432  0.1156 -0.0084
  190DOPC   H2R23416   2.750   6.331   5.805  0.8887  2.9981  2.5972
  190DOPC   H2S23417   2.625   6.228   5.872  3.1437  0.1807  1.4775
  190DOPC    C323418   2.321   6.126   5.546 -0.3575  0.8786 -0.4466
  190DOPC    HX23419   2.357   6.028   5.584 -2.9025  0.2580  0.5383
  190DOPC    HY23420   2.287   6.113   5.441 -0.6127  0.2072 -0.2876
  190DOPC   O3123421   2.197   6.161   5.603  0.8856  0.0943 -0.0166
  190DOPC   C3123422   2.186   6.124   5.729  0.2349  0.7113 -0.1158
  190DOPC   O3223423   2.276   6.083   5.802  0.3235  0.3988  0.3105
  190DOPC   C3223424   2.042   6.141   5.775  0.0760 -0.6337  0.0889
  190DOPC   H2X23425   1.977   6.106   5.692  1.4427 -2.8574 -0.1518
  190DOPC   H2Y23426   2.024   6.077   5.865 -0.9564 -0.4005  0.0565
  190DOPC   C2323427   2.593   6.439   5.932  0.7655 -0.0394  0.2160
  190DOPC   H3R23428   2.489   6.418   5.965  1.0148 -0.7315  0.5855
  190DOPC   H3S23429   2.602   6.541   5.889 -1.8300  0.5609  0.9578
  190DOPC   C2423430   2.686   6.423   6.050 -0.3364 -0.8042  0.1477
  190DOPC   H4R23431   2.784   6.470   6.030 -0.4180  0.5410  2.5178
  190DOPC   H4S23432   2.690   6.314   6.074  0.9614 -0.7205  0.3926
  190DOPC   C2523433   2.623   6.501   6.170 -0.2172 -0.4789 -0.5327
  190DOPC   H5R23434   2.535   6.438   6.196 -0.1204  0.0302  1.1785
  190DOPC   H5S23435   2.606   6.607   6.140 -2.0391 -0.5240  0.2182
  190DOPC   C2623436   2.719   6.504   6.288  0.4646 -0.0165 -0.5670
  190DOPC   H6R23437   2.816   6.547   6.257 -0.6051  3.3829  0.3640
  190DOPC   H6S23438   2.737   6.401   6.327 -0.7747  0.5099  1.5802
  190DOPC   C2723439   2.661   6.587   6.405  0.4178  0.1865  0.4030
  190DOPC   H7R23440   2.577   6.529   6.448  0.2048 -0.2761 -0.6181
  190DOPC   H7S23441   2.621   6.683   6.366  2.5587  0.2113 -1.9467
  190DOPC   C2823442   2.773   6.603   6.511  0.1985 -0.2631 -0.1711
  190DOPC   H8R23443   2.869   6.626   6.460  1.4834 -0.1679  2.1515
  190DOPC   H8S23444   2.787   6.500   6.551 -1.7729 -1.0010 -1.2119
  190DOPC   C2923445   2.739   6.696   6.620  1.5476  0.1517  0.0695
  190DOPC   H9R23446   2.791   6.792   6.605 -1.7892  1.9613 -1.2029
  190DOPC  C21023447   2.656   6.670   6.724 -0.2849 -0.0793 -0.6664
  190DOPC  H10R23448   2.644   6.740   6.808  0.0075 -1.2534  0.3721
  190DOPC  C21123449   2.582   6.543   6.747  0.1781 -0.4925  0.1007
  190DOPC  H11R23450   2.584   6.476   6.658 -1.9492 -2.5567  1.4922
  190DOPC  H11S23451   2.473   6.565   6.758  0.1848 -0.2166 -0.3698
  190DOPC  C21223452   2.620   6.460   6.870  0.4430 -0.1746  0.7582
  190DOPC  H12R23453   2.723   6.423   6.850  0.8981  1.9810 -1.3531
  190DOPC  H12S23454   2.549   6.375   6.865 -1.0175  1.0252  0.2040
  190DOPC  C21323455   2.596   6.531   7.009 -0.3499 -0.5512  0.0761
  190DOPC  H13R23456   2.490   6.563   7.009 -0.3899 -0.6398 -1.3163
  190DOPC  H13S23457   2.660   6.621   7.023  0.0410 -0.7899 -0.1636
  190DOPC  C21423458   2.619   6.438   7.123  0.6186  0.2268  0.1665
  190DOPC  H14R23459   2.727   6.411   7.121  0.9314  1.4042  0.3522
  190DOPC  H14S23460   2.563   6.344   7.103 -1.3057  1.3089  0.2887
  190DOPC  C21523461   2.620   6.503   7.262  0.7477  0.1357  0.1710
  190DOPC  H15R23462   2.512   6.523   7.278  0.5691 -0.2137 -0.5787
  190DOPC  H15S23463   2.685   6.589   7.233 -0.7598  0.5376 -2.3342
  190DOPC  C21623464   2.687   6.415   7.369  0.4444  0.1786 -0.1549
  190DOPC  H16R23465   2.787   6.387   7.330  0.1913 -1.4285  0.2823
  190DOPC  H16S23466   2.632   6.319   7.374 -0.9219  0.9133 -0.4740
  190DOPC  C21723467   2.697   6.466   7.513 -0.3856 -0.6305 -0.3832
  190DOPC  H17R23468   2.594   6.488   7.548 -0.3909 -1.3832  0.0876
  190DOPC  H17S23469   2.748   6.565   7.504 -1.3275  0.3502  3.2792
  190DOPC  C21823470   2.772   6.370   7.600 -0.1536 -0.2514  0.3098
  190DOPC  H18R23471   2.774   6.427   7.695  1.0365 -1.9329  1.3563
  190DOPC  H18S23472   2.873   6.346   7.562  0.5365 -3.9038  3.8069
  190DOPC  H18T23473   2.729   6.269   7.615  1.0051 -0.8656 -0.3486
  190DOPC   C3323474   2.013   6.295   5.799  0.0570  0.0361 -0.4982
  190DOPC   H3X23475   1.903   6.310   5.797 -0.0102 -0.5162 -1.2548
  190DOPC   H3Y23476   2.072   6.373   5.746  0.4330  0.0310 -0.0938
  190DOPC   C3423477   2.047   6.327   5.947 -0.1862  0.2087  0.0842
  190DOPC   H4X23478   2.153   6.292   5.948 -1.0501 -2.7328  0.4233
  190DOPC   H4Y23479   2.001   6.250   6.013  0.0844 -0.8335 -0.8986
  190DOPC   C3523480   2.023   6.470   5.993  0.6101 -0.2628  0.4011
  190DOPC   H5X23481   1.918   6.501   5.975 -0.4868 -3.9910 -0.5257
  190DOPC   H5Y23482   2.080   6.551   5.942 -4.0200  3.1631 -0.0064
  190DOPC   C3623483   2.070   6.497   6.138 -0.2521 -0.2036 -0.2285
  190DOPC   H6X23484   2.170   6.450   6.147 -0.5041 -0.9443 -1.1225
  190DOPC   H6Y23485   2.084   6.606   6.155 -1.6570 -0.0132 -0.1298
  190DOPC   C3723486   1.978   6.445   6.249  0.2953 -0.0188 -0.1915
  190DOPC   H7X23487   1.880   6.492   6.227  1.7318  3.2546 -0.3122
  190DOPC   H7Y23488   1.979   6.334   6.241 -1.9324 -0.0243 -0.8120
  190DOPC   C3823489   2.039   6.480   6.382  0.2747  0.5096  0.2388
  190DOPC   H8X23490   2.146   6.451   6.386  0.2312  0.1533 -0.7735
  190DOPC   H8Y23491   1.989   6.408   6.450  0.7821 -1.4334 -1.3665
  190DOPC   C3923492   2.029   6.624   6.437  0.9487  0.0189  0.5834
  190DOPC   H9X23493   2.100   6.695   6.391  0.5043 -0.0194 -0.1797
  190DOPC  C31023494   1.968   6.664   6.544  1.1096 -0.7572 -0.1720
  190DOPC  H10X23495   1.986   6.768   6.571  1.1287 -1.2413  1.8193
  190DOPC  C31123496   1.889   6.586   6.640 -0.5326 -0.4493 -0.8117
  190DOPC  H11X23497   1.904   6.476   6.630  0.3445 -0.4858  0.6435
  190DOPC  H11Y23498   1.780   6.607   6.639 -0.4793 -0.1690 -0.6977
  190DOPC  C31223499   1.941   6.613   6.780 -0.5188 -0.4101  0.0995
  190DOPC  H12X23500   1.926   6.718   6.814  0.0076 -0.6834  1.2253
  190DOPC  H12Y23501   2.050   6.592   6.782 -0.8807 -3.0038 -2.1531
  190DOPC  C31323502   1.855   6.530   6.879 -0.0302 -0.2767 -0.1682
  190DOPC  H13X23503   1.750   6.564   6.861  0.5538  1.3027 -0.8196
  190DOPC  H13Y23504   1.861   6.422   6.853 -2.1487 -0.6399  0.6937
  190DOPC  C31423505   1.868   6.563   7.031  0.2222  0.0173 -0.2921
  190DOPC  H14X23506   1.796   6.494   7.080 -1.0662  1.8732  0.5880
  190DOPC  H14Y23507   1.967   6.551   7.080  0.2221  0.8386 -0.0727
  190DOPC  C31523508   1.820   6.700   7.063  0.6592 -0.8285 -0.3864
  190DOPC  H15X23509   1.737   6.732   6.996 -0.7137 -2.3762  0.5151
  190DOPC  H15Y23510   1.896   6.778   7.039  0.2258  0.7769  2.8937
  190DOPC  C31623511   1.770   6.714   7.206  0.4678 -0.3604 -0.0734
  190DOPC  H16X23512   1.740   6.821   7.218  0.8200 -0.4068  1.3846
  190DOPC  H16Y23513   1.669   6.669   7.219  1.0467 -2.3158 -1.9483
  190DOPC  C31723514   1.863   6.676   7.321  0.0138  0.7731  0.1521
  190DOPC  H17X23515   1.858   6.565   7.330  3.6756  0.2231 -2.5064
  190DOPC  H17Y23516   1.972   6.690   7.306 -0.1227  3.7292  1.2410
  190DOPC  C31823517   1.827   6.747   7.451 -0.1830 -0.0477  0.3576
  190DOPC  H18X23518   1.718   6.742   7.473 -0.3500  0.9733 -0.1716
  190DOPC  H18Y23519   1.880   6.697   7.535 -1.5343  1.1866  2.0443
  190DOPC  H18Z23520   1.854   6.855   7.461  0.7902 -0.2743  0.2598
  191DOPC     N23521   4.499   6.477   5.047 -0.0032  0.0727  0.6329
  191DOPC   C1223522   4.645   6.434   5.051 -0.2991 -0.9637 -0.3615
  191DOPC  H12A23523   4.708   6.519   5.072 -3.0343  1.1621 -0.1087
  191DOPC  H12B23524   4.678   6.374   4.968 -1.0685 -0.8831 -0.7377
  191DOPC   C1323525   4.486   6.550   4.917 -0.1498 -0.2823  0.4894
  191DOPC  H13A23526   4.390   6.598   4.910  1.2350  2.6891 -0.1845
  191DOPC  H13B23527   4.551   6.637   4.923 -0.7422  0.2276 -0.2425
  191DOPC  H13C23528   4.511   6.490   4.830 -0.1719 -1.7020  1.4314
  191DOPC   C1423529   4.462   6.564   5.158 -0.3241  0.0414  0.6460
  191DOPC  H14A23530   4.467   6.518   5.256  1.7008 -1.1786  0.0395
  191DOPC  H14B23531   4.528   6.650   5.164  0.7304 -0.5686 -1.4378
  191DOPC  H14C23532   4.361   6.599   5.148 -0.2254 -0.3701 -2.7366
  191DOPC   C1523533   4.413   6.349   5.038  0.3456 -0.3333 -1.1034
  191DOPC  H15A23534   4.443   6.289   4.954  1.5367  0.5712 -1.3509
  191DOPC  H15B23535   4.307   6.369   5.040  0.2931 -0.4360  1.4674
  191DOPC  H15C23536   4.417   6.293   5.131  0.1376 -0.5310 -1.2136
  191DOPC   C1123537   4.675   6.325   5.157 -0.3281 -0.6629  0.0802
  191DOPC  H11A23538   4.646   6.224   5.120 -0.3275 -0.3646 -0.7489
  191DOPC  H11B23539   4.786   6.323   5.164 -0.4029 -0.6622  1.5419
  191DOPC     P23540   4.559   6.264   5.374  0.3288  0.1672 -0.0615
  191DOPC   O1323541   4.658   6.174   5.434 -0.2718  0.5250  0.1080
  191DOPC   O1423542   4.455   6.199   5.294  0.1286 -0.2115 -0.2798
  191DOPC   O1223543   4.630   6.360   5.280  0.3386 -0.6344  0.2258
  191DOPC   O1123544   4.495   6.353   5.492  0.2306 -0.4989  0.2951
  191DOPC    C123545   4.527   6.486   5.516  0.0443 -0.5584 -0.2004
  191DOPC    HA23546   4.441   6.554   5.495 -1.5261 -2.4562 -0.1977
  191DOPC    HB23547   4.623   6.514   5.468  1.0368  1.0905  2.5448
  191DOPC    C223548   4.553   6.511   5.668  0.2337 -0.7393 -0.2402
  191DOPC    HS23549   4.608   6.424   5.710 -0.9269 -1.3844 -0.0128
  191DOPC   O2123550   4.428   6.523   5.727 -0.3393 -0.6028 -0.0477
  191DOPC   C2123551   4.411   6.480   5.852 -0.3441  0.3389 -0.0367
  191DOPC   O2223552   4.500   6.425   5.914 -0.3713 -0.2508  0.3597
  191DOPC   C2223553   4.266   6.499   5.889 -0.1689 -0.0848  0.1648
  191DOPC   H2R23554   4.236   6.392   5.884  0.7360 -0.3005 -1.0118
  191DOPC   H2S23555   4.223   6.556   5.804 -0.5371 -2.1308 -1.0851
  191DOPC    C323556   4.627   6.642   5.699 -0.6733 -0.0110 -0.1484
  191DOPC    HX23557   4.579   6.724   5.642  0.4342  1.7782  1.3722
  191DOPC    HY23558   4.732   6.624   5.665 -0.4469 -0.4076  0.7256
  191DOPC   O3123559   4.617   6.684   5.837 -0.2196 -0.3770  0.6298
  191DOPC   C3123560   4.712   6.628   5.913  0.4078  0.0880 -0.2405
  191DOPC   O3223561   4.818   6.579   5.877 -0.0539  0.1155 -0.1968
  191DOPC   C3223562   4.673   6.660   6.062 -0.5991  0.6612  0.7215
  191DOPC   H2X23563   4.638   6.765   6.069 -0.3087  0.7077  1.6707
  191DOPC   H2Y23564   4.590   6.594   6.096  0.5358 -1.1599  0.1217
  191DOPC   C2323565   4.250   6.580   6.023 -0.3966  0.6867  0.3680
  191DOPC   H3R23566   4.313   6.539   6.105  0.7390  3.6217  1.0783
  191DOPC   H3S23567   4.145   6.579   6.059 -0.2166 -0.2219  0.8988
  191DOPC   C2423568   4.284   6.723   6.012  0.1650 -0.7129  0.0458
  191DOPC   H4R23569   4.256   6.751   5.908 -1.5308 -1.4775  0.2610
  191DOPC   H4S23570   4.392   6.748   6.026 -0.1423  1.0524 -0.5101
  191DOPC   C2523571   4.202   6.806   6.110 -0.2860 -0.3963 -0.2070
  191DOPC   H5R23572   4.095   6.784   6.091 -0.2637 -0.7750  0.0947
  191DOPC   H5S23573   4.213   6.915   6.090  0.3745 -0.4343 -0.0764
  191DOPC   C2623574   4.214   6.759   6.257  0.1727 -0.0445  0.0293
  191DOPC   H6R23575   4.197   6.650   6.262 -0.5238 -0.0876 -2.0796
  191DOPC   H6S23576   4.141   6.825   6.308  0.5379 -0.5654  1.2693
  191DOPC   C2723577   4.352   6.796   6.321 -0.5778 -0.5473 -0.3095
  191DOPC   H7R23578   4.375   6.902   6.300  1.0325 -0.9002 -0.4085
  191DOPC   H7S23579   4.432   6.727   6.286 -0.9036 -1.3616  0.4955
  191DOPC   C2823580   4.350   6.788   6.477 -0.3881  0.7693  0.0452
  191DOPC   H8R23581   4.264   6.847   6.516 -0.2122 -0.5154  2.6192
  191DOPC   H8S23582   4.442   6.845   6.500  1.9356 -1.8808 -2.0026
  191DOPC   C2923583   4.359   6.646   6.522 -0.1820 -0.0984 -0.3022
  191DOPC   H9R23584   4.280   6.582   6.479 -0.7430  0.3864  0.0051
  191DOPC  C21023585   4.440   6.589   6.615  0.5984  0.5435 -0.3633
  191DOPC  H10R23586   4.437   6.479   6.619  1.5393  0.5195  2.7471
  191DOPC  C21123587   4.543   6.640   6.711 -0.1631  0.2175 -0.3889
  191DOPC  H11R23588   4.499   6.737   6.743 -0.7637  0.3512 -1.5501
  191DOPC  H11S23589   4.637   6.668   6.657  0.8460  1.6521  1.9158
  191DOPC  C21223590   4.568   6.546   6.828  0.4223  0.0147  0.8402
  191DOPC  H12R23591   4.633   6.468   6.782 -3.1026 -1.2249 -2.6397
  191DOPC  H12S23592   4.475   6.492   6.853  0.3859 -0.5088 -0.3365
  191DOPC  C21323593   4.628   6.630   6.942  0.3334 -0.4259  0.3711
  191DOPC  H13R23594   4.551   6.709   6.954  0.7597 -0.2147  2.0240
  191DOPC  H13S23595   4.726   6.672   6.912  0.0266 -0.2298 -0.3733
  191DOPC  C21423596   4.646   6.560   7.075 -0.0985  0.0536 -0.7132
  191DOPC  H14R23597   4.696   6.613   7.159  0.9495  0.3950 -1.5304
  191DOPC  H14S23598   4.710   6.470   7.064 -0.4558 -0.3166  0.1082
  191DOPC  C21523599   4.516   6.509   7.137 -0.4915 -0.6328 -0.5427
  191DOPC  H15R23600   4.466   6.425   7.085 -1.5667 -0.1191 -0.3581
  191DOPC  H15S23601   4.444   6.593   7.132  0.9854  0.7138 -0.0292
  191DOPC  C21623602   4.532   6.475   7.278 -0.4675 -0.0501  0.5866
  191DOPC  H16R23603   4.580   6.561   7.329  0.0675  1.1182 -1.7657
  191DOPC  H16S23604   4.596   6.387   7.298  0.1783  0.1800 -0.4557
  191DOPC  C21723605   4.397   6.435   7.348 -0.3215 -0.1592 -0.1789
  191DOPC  H17R23606   4.370   6.341   7.295 -0.0731 -0.0579 -0.4861
  191DOPC  H17S23607   4.318   6.513   7.337  0.7644  1.1326  0.8025
  191DOPC  C21823608   4.415   6.420   7.496  0.4842 -0.3369  0.1901
  191DOPC  H18R23609   4.322   6.374   7.536 -0.4753 -0.6087 -2.2359
  191DOPC  H18S23610   4.444   6.512   7.552  0.1255  0.5779 -1.0958
  191DOPC  H18T23611   4.491   6.343   7.521  0.3615  0.0205  1.7653
  191DOPC   C3323612   4.795   6.633   6.153  0.1002 -0.2137  0.0627
  191DOPC   H3X23613   4.885   6.685   6.112  1.6225 -2.4851  0.3554
  191DOPC   H3Y23614   4.825   6.526   6.158  2.3331  0.3561 -0.0503
  191DOPC   C3423615   4.779   6.679   6.293  0.1148  1.0434 -0.0614
  191DOPC   H4X23616   4.688   6.633   6.337  0.2814 -0.7984 -1.5005
  191DOPC   H4Y23617   4.763   6.789   6.288 -1.0524  0.9379  0.8256
  191DOPC   C3523618   4.903   6.673   6.369 -0.1933 -0.4102 -0.5917
  191DOPC   H5X23619   4.980   6.706   6.296 -2.2236 -0.4013 -2.8142
  191DOPC   H5Y23620   4.928   6.571   6.405  0.6207 -0.1839 -0.4816
  191DOPC   C3623621   4.901   6.766   6.495  0.5141  0.7260  0.0853
  191DOPC   H6X23622   4.889   6.873   6.470  0.5684  0.5683 -0.6143
  191DOPC   H6Y23623   4.823   6.736   6.570  1.7639  1.5535  1.7876
  191DOPC   C3723624   5.029   6.750   6.566 -0.7988  0.2735 -0.3606
  191DOPC   H7X23625   5.057   6.642   6.568 -0.2472  0.4046  1.9429
  191DOPC   H7Y23626   5.107   6.797   6.501 -2.0352  0.1284 -2.0059
  191DOPC   C3823627   5.025   6.794   6.711  0.0784 -0.0685 -0.1009
  191DOPC   H8X23628   4.939   6.743   6.760  1.0735  0.8900  2.8341
  191DOPC   H8Y23629   5.004   6.904   6.711  2.5519  0.4578  0.2093
  191DOPC   C3923630   5.159   6.772   6.783  0.4440 -0.1202 -0.4726
  191DOPC   H9X23631   5.224   6.713   6.717  0.0373  0.9586 -1.9076
  191DOPC  C31023632   5.199   6.833   6.903 -0.2045  0.8915  0.7130
  191DOPC  H10X23633   5.305   6.820   6.929  0.2366  1.1073 -0.9088
  191DOPC  C31123634   5.113   6.932   6.979 -0.1131 -0.3969 -0.6773
  191DOPC  H11X23635   5.006   6.935   6.949 -0.1560  0.1162 -0.4820
  191DOPC  H11Y23636   5.170   7.026   6.963 -0.0548 -0.2845  0.1305
  191DOPC  C31223637   5.115   6.921   7.132 -0.0939  0.3710  0.4637
  191DOPC  H12X23638   5.216   6.941   7.175 -0.3105 -0.1683  1.2486
  191DOPC  H12Y23639   5.088   6.814   7.146 -2.0265  0.4477 -2.0502
  191DOPC  C31323640   5.030   7.020   7.207 -0.3296 -0.9289 -0.8560
  191DOPC  H13X23641   5.085   7.117   7.203  2.7918 -2.5837 -2.2137
  191DOPC  H13Y23642   4.933   7.031   7.154  0.2720 -1.7016 -2.1713
  191DOPC  C31423643   5.000   6.987   7.356  0.0221  0.0376 -0.4224
  191DOPC  H14X23644   5.095   6.972   7.411  1.1236  0.6596 -2.0958
  191DOPC  H14Y23645   4.947   7.072   7.405 -1.4252 -0.5678 -0.8760
  191DOPC  C31523646   4.903   6.875   7.362  0.2970 -0.9268  0.3228
  191DOPC  H15X23647   4.952   6.782   7.328 -1.9926 -1.4818 -1.7505
  191DOPC  H15Y23648   4.814   6.896   7.298  0.9765  1.3894  0.0301
  191DOPC  C31623649   4.857   6.848   7.506 -0.3601  0.4036 -0.2117
  191DOPC  H16X23650   4.811   6.926   7.571  1.7070  0.6984  0.9918
  191DOPC  H16Y23651   4.776   6.774   7.490 -1.5125  0.5388  3.7647
  191DOPC  C31723652   4.973   6.795   7.594  0.0462  0.2101  0.3331
  191DOPC  H17X23653   5.046   6.745   7.526  0.4653 -0.0685  0.9733
  191DOPC  H17Y23654   5.025   6.886   7.632  0.3055 -0.2264  1.0641
  191DOPC  C31823655   4.923   6.702   7.706 -0.5400 -0.1869 -0.1707
  191DOPC  H18X23656   4.844   6.749   7.769 -1.1566  0.6314 -1.5136
  191DOPC  H18Y23657   4.897   6.599   7.674  2.0518 -1.5810  1.8670
  191DOPC  H18Z23658   5.012   6.678   7.767 -1.0882  1.2262  1.2695
  192DOPC     N23659   0.245   5.200   4.930 -0.7053 -1.0793  0.5629
  192DOPC   C1223660   0.171   5.121   5.031  0.0211  0.5879  0.3362
  192DOPC  H12A23661   0.159   5.019   4.996  1.2651 -0.0060  1.5373
  192DOPC  H12B23662   0.074   5.167   5.046 -1.4748 -2.8397  2.4276
  192DOPC   C1323663   0.358   5.108   4.889 -0.4474 -0.6670 -0.3252
  192DOPC  H13A23664   0.427   5.091   4.970 -0.7845  0.0335  0.1201
  192DOPC  H13B23665   0.300   5.026   4.849 -1.3042  0.7597 -2.1941
  192DOPC  H13C23666   0.412   5.140   4.801  1.1976 -2.5361 -0.0593
  192DOPC   C1423667   0.297   5.321   4.988 -0.6463 -0.6237 -0.3578
  192DOPC  H14A23668   0.355   5.286   5.072 -1.9328 -1.1140  0.3483
  192DOPC  H14B23669   0.361   5.383   4.926 -1.6599  2.0006  1.0498
  192DOPC  H14C23670   0.226   5.392   5.029  1.2605  1.1048  0.1228
  192DOPC   C1523671   0.174   5.232   4.805 -0.1919  0.3817  0.6355
  192DOPC  H15A23672   0.236   5.291   4.739 -1.7367  0.3832 -0.8685
  192DOPC  H15B23673   0.084   5.291   4.817 -0.9672 -0.0227 -2.3939
  192DOPC  H15C23674   0.146   5.144   4.750 -1.3324  0.5305  0.9481
  192DOPC   C1123675   0.226   5.102   5.173  0.2734  0.1148 -0.0910
  192DOPC  H11A23676   0.219   5.199   5.226 -1.6573 -0.3531  0.5945
  192DOPC  H11B23677   0.169   5.031   5.237  0.8517  0.1663  0.4983
  192DOPC     P23678   0.486   5.113   5.246 -0.2149  0.0539 -0.0813
  192DOPC   O1323679   0.484   5.260   5.222  0.6689  0.3257  0.0902
  192DOPC   O1423680   0.602   5.045   5.198 -0.0675  0.9930  0.4021
  192DOPC   O1223681   0.361   5.044   5.176  0.5083 -0.0630  0.0890
  192DOPC   O1123682   0.476   5.082   5.408  0.2517  0.2145  0.5674
  192DOPC    C123683   0.356   5.022   5.463  1.0991 -0.1176 -0.1397
  192DOPC    HA23684   0.320   4.939   5.400 -0.7437 -0.3661  1.1835
  192DOPC    HB23685   0.283   5.104   5.478 -0.2216 -1.3174  0.1271
  192DOPC    C223686   0.395   4.957   5.600  0.3270 -0.0321  0.1337
  192DOPC    HS23687   0.301   4.922   5.648  0.5934 -1.4974 -0.3539
  192DOPC   O2123688   0.476   5.047   5.687  0.0084  0.2402  0.2188
  192DOPC   C2123689   0.401   5.142   5.743 -0.5807  0.3955 -0.1555
  192DOPC   O2223690   0.276   5.143   5.744 -0.2412  0.3980 -0.1330
  192DOPC   C2223691   0.496   5.234   5.821 -0.1036 -0.5118 -0.7584
  192DOPC   H2R23692   0.479   5.340   5.794 -1.1578 -0.4842 -0.0449
  192DOPC   H2S23693   0.600   5.201   5.800  0.3050 -0.1774  0.6183
  192DOPC    C323694   0.477   4.830   5.573 -0.4655  0.0520  0.1759
  192DOPC    HX23695   0.579   4.864   5.543 -0.8553  0.9862 -0.1236
  192DOPC    HY23696   0.430   4.785   5.483 -0.9784 -1.6090  1.2218
  192DOPC   O3123697   0.471   4.739   5.685  0.4586 -0.2837  0.5816
  192DOPC   C3123698   0.547   4.632   5.673  0.1797 -0.0265 -0.1590
  192DOPC   O3223699   0.639   4.620   5.592  0.1494  0.7150 -0.1640
  192DOPC   C3223700   0.502   4.527   5.777  0.2204 -0.2571  0.5106
  192DOPC   H2X23701   0.440   4.581   5.851 -0.2489 -2.5367  1.8841
  192DOPC   H2Y23702   0.435   4.453   5.730 -0.8494 -0.5645  2.4103
  192DOPC   C2323703   0.467   5.210   5.975 -0.2097 -0.3349  0.0965
  192DOPC   H3R23704   0.488   5.102   5.989  0.2082 -0.8911 -3.6912
  192DOPC   H3S23705   0.360   5.236   5.990 -0.1221 -0.8882  1.7661
  192DOPC   C2423706   0.545   5.305   6.064  0.4435 -0.2257 -0.5630
  192DOPC   H4R23707   0.553   5.402   6.010  0.6710 -1.2095 -2.3893
  192DOPC   H4S23708   0.639   5.259   6.103 -0.9973 -1.0070  2.2445
  192DOPC   C2523709   0.466   5.348   6.195  0.5997  0.2981  0.6657
  192DOPC   H5R23710   0.364   5.379   6.164 -0.8763 -2.9201  1.9083
  192DOPC   H5S23711   0.512   5.436   6.245 -1.3195  0.4968  2.1817
  192DOPC   C2623712   0.446   5.232   6.294  0.1794  1.0133  0.7719
  192DOPC   H6R23713   0.549   5.197   6.319  0.9693  2.5921 -0.1328
  192DOPC   H6S23714   0.393   5.150   6.243 -1.1796  1.4446  1.4572
  192DOPC   C2723715   0.371   5.282   6.419  0.1102 -0.2690  0.2622
  192DOPC   H7R23716   0.275   5.321   6.378  1.5534  1.7593 -1.4368
  192DOPC   H7S23717   0.413   5.369   6.473 -0.1137 -0.2513  0.4109
  192DOPC   C2823718   0.342   5.169   6.518  0.2454  0.2375  0.0648
  192DOPC   H8R23719   0.313   5.081   6.456 -1.4502  0.1607  0.9098
  192DOPC   H8S23720   0.251   5.182   6.580 -0.2434  1.2942 -0.8354
  192DOPC   C2923721   0.469   5.135   6.601  0.1406 -0.0152 -0.5979
  192DOPC   H9R23722   0.560   5.109   6.545 -0.4225  0.0999 -1.5823
  192DOPC  C21023723   0.480   5.121   6.735  0.5910 -0.1181  1.0393
  192DOPC  H10R23724   0.575   5.078   6.772  1.6599  0.2250 -1.1119
  192DOPC  C21123725   0.371   5.129   6.838 -0.4746 -0.5691  0.3257
  192DOPC  H11R23726   0.377   5.045   6.911  2.1022  0.7232  1.7201
  192DOPC  H11S23727   0.267   5.127   6.798 -0.8930  1.4560  1.2081
  192DOPC  C21223728   0.379   5.261   6.930 -0.2423 -0.0824  0.0381
  192DOPC  H12R23729   0.375   5.347   6.860 -2.9228 -0.8347 -0.8461
  192DOPC  H12S23730   0.480   5.262   6.977 -0.7102  1.4378  1.0824
  192DOPC  C21323731   0.260   5.277   7.020  0.4677 -0.6793  0.3985
  192DOPC  H13R23732   0.239   5.181   7.072  0.8210 -0.6219  0.6559
  192DOPC  H13S23733   0.179   5.301   6.948  0.4906  2.4464  1.2703
  192DOPC  C21423734   0.272   5.392   7.121 -0.2761  0.0996  0.1433
  192DOPC  H14R23735   0.289   5.485   7.062 -2.0346  0.7650  0.6131
  192DOPC  H14S23736   0.360   5.378   7.187  0.2496 -0.2674 -0.6091
  192DOPC  C21523737   0.154   5.407   7.214 -0.4283 -0.0757  0.6360
  192DOPC  H15R23738   0.118   5.318   7.270 -0.6105  0.4263  1.3353
  192DOPC  H15S23739   0.072   5.468   7.170 -0.0429 -1.5699 -2.3653
  192DOPC  C21623740   0.203   5.489   7.338  0.5423  0.7108 -0.5634
  192DOPC  H16R23741   0.275   5.425   7.394 -1.9236 -0.2434  1.7522
  192DOPC  H16S23742   0.115   5.476   7.404  1.8910  0.4115  1.2502
  192DOPC  C21723743   0.255   5.626   7.317  0.7148 -0.6034 -0.4578
  192DOPC  H17R23744   0.172   5.688   7.276  0.7448 -0.4263 -0.2514
  192DOPC  H17S23745   0.336   5.624   7.241  1.9968 -0.9070  0.8846
  192DOPC  C21823746   0.302   5.704   7.442  0.0485 -0.0229  0.0330
  192DOPC  H18R23747   0.216   5.722   7.510  1.6441  0.1511  2.1399
  192DOPC  H18S23748   0.339   5.797   7.395  1.7532 -0.9874 -0.6464
  192DOPC  H18T23749   0.377   5.644   7.498  0.2944  1.0793  0.9223
  192DOPC   C3323750   0.618   4.448   5.848 -0.0330 -0.7695 -0.0764
  192DOPC   H3X23751   0.694   4.419   5.772  0.5455  0.3660  0.0334
  192DOPC   H3Y23752   0.581   4.351   5.887 -1.9856  0.8325  2.4142
  192DOPC   C3423753   0.675   4.523   5.976 -0.3617  0.5510  0.1406
  192DOPC   H4X23754   0.699   4.625   5.939 -1.0400  0.5279 -0.3709
  192DOPC   H4Y23755   0.763   4.466   6.015 -1.6037  0.3904  2.9845
  192DOPC   C3523756   0.568   4.537   6.088 -0.7074 -0.3125  0.1054
  192DOPC   H5X23757   0.487   4.603   6.050  0.7093  0.4818 -1.6854
  192DOPC   H5Y23758   0.625   4.578   6.174 -1.6289 -3.0784  2.1932
  192DOPC   C3623759   0.505   4.402   6.137 -0.3182 -0.7390  1.1132
  192DOPC   H6X23760   0.447   4.354   6.054  1.0461  1.1804 -1.0874
  192DOPC   H6Y23761   0.587   4.328   6.150  0.4983 -0.2591 -0.8792
  192DOPC   C3723762   0.418   4.432   6.255  0.2333  0.0405  0.0984
  192DOPC   H7X23763   0.477   4.490   6.329 -1.0601 -0.1819  1.3627
  192DOPC   H7Y23764   0.327   4.491   6.230 -0.6436 -1.0114  0.6846
  192DOPC   C3823765   0.387   4.299   6.326  0.6584  0.0052 -0.2008
  192DOPC   H8X23766   0.478   4.249   6.366 -0.3748 -0.9697  1.0132
  192DOPC   H8Y23767   0.351   4.234   6.243 -2.2916  2.8240 -1.3410
  192DOPC   C3923768   0.281   4.310   6.433 -0.7884  0.3099 -0.4424
  192DOPC   H9X23769   0.181   4.313   6.390  0.5290  0.4630 -3.7604
  192DOPC  C31023770   0.318   4.294   6.561  0.3898  0.1750 -1.3158
  192DOPC  H10X23771   0.239   4.303   6.637  0.1713 -0.8851 -1.3967
  192DOPC  C31123772   0.458   4.275   6.617 -0.8282 -0.3259  0.6885
  192DOPC  H11X23773   0.538   4.301   6.545 -0.1759 -0.2550  1.4318
  192DOPC  H11Y23774   0.478   4.166   6.620  0.7024 -0.1135 -0.5458
  192DOPC  C31223775   0.484   4.328   6.755  0.5146  0.1600 -0.5663
  192DOPC  H12X23776   0.475   4.438   6.770  0.7492  0.0561  0.4285
  192DOPC  H12Y23777   0.589   4.307   6.784  0.3100  0.7784  0.7109
  192DOPC  C31323778   0.393   4.263   6.862  0.2398  0.0553 -0.2946
  192DOPC  H13X23779   0.293   4.312   6.861 -0.3968 -1.1933 -1.1820
  192DOPC  H13Y23780   0.379   4.156   6.836 -0.4057  0.4288 -1.5469
  192DOPC  C31423781   0.469   4.264   6.992  0.5280 -0.0899  0.1231
  192DOPC  H14X23782   0.572   4.223   6.979  0.2385 -1.0369  0.7133
  192DOPC  H14Y23783   0.477   4.369   7.027 -1.2081  0.3328 -0.6516
  192DOPC  C31523784   0.397   4.181   7.101 -0.9574  0.3047  0.4889
  192DOPC  H15X23785   0.373   4.079   7.065  1.1798 -1.1434  2.8570
  192DOPC  H15Y23786   0.300   4.227   7.132 -1.5491 -0.9144  0.5050
  192DOPC  C31623787   0.471   4.175   7.238  0.0826 -1.1078 -0.0575
  192DOPC  H16X23788   0.550   4.097   7.229 -0.2376 -1.2405 -2.0471
  192DOPC  H16Y23789   0.512   4.276   7.260 -0.1886 -1.3790  1.9564
  192DOPC  C31723790   0.372   4.148   7.345 -0.4066  0.3288 -0.5618
  192DOPC  H17X23791   0.316   4.242   7.358  0.8503  1.3300 -2.0052
  192DOPC  H17Y23792   0.291   4.077   7.315 -1.5762  0.6995  1.5527
  192DOPC  C31823793   0.422   4.092   7.477 -0.3905  0.2844  0.7323
  192DOPC  H18X23794   0.349   4.080   7.559  0.1837  0.3910  1.2620
  192DOPC  H18Y23795   0.462   3.992   7.448 -2.4761 -1.4641  3.3513
  192DOPC  H18Z23796   0.513   4.150   7.503 -0.2152  0.2905  0.1224
  193DOPC     N23797   0.408   1.287   4.369  0.5047 -0.1035 -0.4661
  193DOPC   C1223798   0.460   1.317   4.510 -0.2667  0.0322 -0.4923
  193DOPC  H12A23799   0.460   1.424   4.524 -3.0443  0.2846 -1.7137
  193DOPC  H12B23800   0.560   1.278   4.525 -0.6223 -0.6385  0.2339
  193DOPC   C1323801   0.430   1.142   4.333 -0.5348 -0.7239  0.3959
  193DOPC  H13A23802   0.372   1.078   4.399 -2.6346  0.8591  0.1805
  193DOPC  H13B23803   0.407   1.131   4.228  0.5101  1.6433 -0.1288
  193DOPC  H13C23804   0.536   1.121   4.337 -0.5748 -1.0796 -0.3257
  193DOPC   C1423805   0.480   1.369   4.265  0.4058 -0.1778 -1.2686
  193DOPC  H14A23806   0.587   1.361   4.268  1.0022  4.7776  1.3407
  193DOPC  H14B23807   0.439   1.355   4.166 -0.1395 -1.2965 -0.9097
  193DOPC  H14C23808   0.475   1.475   4.286  2.0844 -0.5258  1.3356
  193DOPC   C1523809   0.261   1.316   4.365 -0.8805  0.8847 -0.2113
  193DOPC  H15A23810   0.246   1.423   4.367  2.2735  1.4218  2.0782
  193DOPC  H15B23811   0.216   1.279   4.455 -0.4961 -2.4487 -1.2322
  193DOPC  H15C23812   0.220   1.288   4.269 -0.0101  2.2628 -1.0211
  193DOPC   C1123813   0.366   1.274   4.628  0.6291  0.8662 -0.0445
  193DOPC  H11A23814   0.319   1.175   4.608  0.2520  0.8258  0.9780
  193DOPC  H11B23815   0.423   1.266   4.723 -0.5098 -0.0647  0.5940
  193DOPC     P23816   0.242   1.494   4.715  0.3035 -0.3940  0.2378
  193DOPC   O1323817   0.111   1.555   4.694 -0.1149 -0.4733 -0.2427
  193DOPC   O1423818   0.358   1.575   4.662  0.2611  0.0986 -0.5376
  193DOPC   O1223819   0.242   1.355   4.638 -0.2886  0.4329 -0.1528
  193DOPC   O1123820   0.264   1.467   4.863  0.2628  0.0059 -0.2456
  193DOPC    C123821   0.192   1.363   4.931  0.6625 -0.3010  0.5506
  193DOPC    HA23822   0.267   1.283   4.949  1.6721  0.4490 -0.1993
  193DOPC    HB23823   0.106   1.318   4.877  0.2236 -1.7059  2.3263
  193DOPC    C223824   0.132   1.418   5.062  0.8380  0.0072 -0.1859
  193DOPC    HS23825   0.222   1.447   5.120  0.4338 -0.9883  0.9811
  193DOPC   O2123826   0.053   1.320   5.131 -0.9603 -0.1557  0.4934
  193DOPC   C2123827   0.064   1.306   5.266 -0.7601  0.1613 -0.8034
  193DOPC   O2223828   0.164   1.342   5.329  0.5816 -0.3459 -0.1094
  193DOPC   C2223829  -0.058   1.237   5.316  0.1972  0.1102 -0.9065
  193DOPC   H2R23830  -0.116   1.182   5.239 -2.3738  0.7089  0.4894
  193DOPC   H2S23831  -0.135   1.311   5.346  0.0875  0.0085 -0.9320
  193DOPC    C323832   0.040   1.546   5.035  0.1278  0.0921  0.4409
  193DOPC    HX23833  -0.044   1.524   4.965  0.0033  1.1509  0.2327
  193DOPC    HY23834   0.112   1.612   4.982  0.5465 -0.5070  0.2688
  193DOPC   O3123835  -0.017   1.600   5.157  0.0999 -0.4176  0.2440
  193DOPC   C3123836   0.060   1.676   5.236  0.1475 -0.2272  0.5024
  193DOPC   O3223837   0.177   1.697   5.213 -0.4459 -0.3474 -0.2358
  193DOPC   C3223838  -0.018   1.741   5.354  0.1763  0.6697  0.2771
  193DOPC   H2X23839  -0.037   1.846   5.321  0.6401  0.3326 -1.1059
  193DOPC   H2Y23840  -0.117   1.692   5.354  1.4519 -2.1061  1.1962
  193DOPC   C2323841  -0.031   1.138   5.429 -0.3143 -1.2430 -0.2723
  193DOPC   H3R23842   0.015   1.199   5.510  1.4471 -1.8014 -0.8238
  193DOPC   H3S23843   0.040   1.059   5.399  0.8913 -0.2571 -0.1023
  193DOPC   C2423844  -0.152   1.068   5.486 -0.7240 -0.5603 -0.4315
  193DOPC   H4R23845  -0.216   1.031   5.404 -0.0099 -0.7371 -0.9181
  193DOPC   H4S23846  -0.202   1.150   5.543  0.8591 -0.4192  0.8590
  193DOPC   C2523847  -0.106   0.952   5.575  0.0047 -0.0220  0.5666
  193DOPC   H5R23848  -0.044   0.887   5.510 -1.2380 -1.7677  1.0688
  193DOPC   H5S23849  -0.192   0.890   5.609  0.0245 -1.6429 -2.0780
  193DOPC   C2623850  -0.040   1.008   5.694  0.4704  0.8682 -0.5028
  193DOPC   H6R23851  -0.102   1.090   5.737  3.0367  1.2900  2.7831
  193DOPC   H6S23852   0.061   1.042   5.663  1.5876 -1.6868  0.0915
  193DOPC   C2723853  -0.010   0.903   5.805  0.3900  0.5748 -0.7391
  193DOPC   H7R23854   0.051   0.825   5.756 -0.6356 -0.1104 -0.9483
  193DOPC   H7S23855  -0.100   0.845   5.833  0.3138  0.4658 -1.1946
  193DOPC   C2823856   0.049   0.951   5.933  0.5400 -0.8526 -0.2796
  193DOPC   H8R23857   0.149   0.996   5.915  0.7655 -1.6588 -1.1269
  193DOPC   H8S23858   0.058   0.855   5.987 -1.5515  1.6495  5.2028
  193DOPC   C2923859  -0.038   1.050   6.010 -0.2436 -0.6933  0.2957
  193DOPC   H9R23860  -0.083   1.133   5.955 -2.4276 -1.3177  1.0355
  193DOPC  C21023861  -0.071   1.049   6.143 -0.5089 -0.2125  0.0459
  193DOPC  H10R23862  -0.116   1.142   6.182  1.1334  0.7671 -0.3312
  193DOPC  C21123863  -0.004   0.953   6.241  0.3766  0.4994  0.1222
  193DOPC  H11R23864   0.076   0.892   6.194 -1.2560 -1.8905  0.2785
  193DOPC  H11S23865  -0.081   0.880   6.274  1.0207 -0.2117  0.0775
  193DOPC  C21223866   0.055   1.028   6.363  0.5407 -0.6272  0.2254
  193DOPC  H12R23867   0.117   1.110   6.322 -0.9252 -0.0374 -0.9088
  193DOPC  H12S23868   0.128   0.959   6.410 -0.6423 -0.4861  2.4160
  193DOPC  C21323869  -0.053   1.065   6.464 -0.2000  0.4878  0.1233
  193DOPC  H13R23870  -0.112   0.978   6.500  0.8147 -0.2585  0.0361
  193DOPC  H13S23871  -0.116   1.135   6.405  0.1069  0.0173 -0.7910
  193DOPC  C21423872  -0.002   1.139   6.592  0.3845  0.1763  0.2504
  193DOPC  H14R23873  -0.091   1.184   6.640  1.1365  0.8081  1.0958
  193DOPC  H14S23874   0.065   1.222   6.562  0.6582 -0.5620 -1.2802
  193DOPC  C21523875   0.074   1.047   6.692  0.1235  0.2112 -0.4727
  193DOPC  H15R23876   0.179   1.024   6.664  0.1639 -0.1549 -0.0358
  193DOPC  H15S23877   0.012   0.956   6.709 -1.6554  1.4837  0.0941
  193DOPC  C21623878   0.085   1.111   6.831  0.5535  0.3107  0.8136
  193DOPC  H16R23879   0.146   1.203   6.826 -1.6741  1.7790 -1.2490
  193DOPC  H16S23880   0.143   1.039   6.894 -0.4407 -1.2192  0.0449
  193DOPC  C21723881  -0.054   1.113   6.908 -0.0237  0.6885 -0.3341
  193DOPC  H17R23882  -0.077   1.005   6.907  0.2220  0.6351 -1.0606
  193DOPC  H17S23883  -0.136   1.168   6.856 -1.1209 -0.8676 -0.2991
  193DOPC  C21823884  -0.050   1.164   7.053 -0.0208  0.0130 -0.0173
  193DOPC  H18R23885   0.013   1.091   7.107 -1.0720 -0.2950  0.8267
  193DOPC  H18S23886  -0.149   1.165   7.104 -0.1322 -1.8279 -0.1483
  193DOPC  H18T23887  -0.007   1.267   7.055  0.0541 -0.0164 -0.1665
  193DOPC   C3323888   0.058   1.742   5.488 -0.0138 -0.1645  0.6605
  193DOPC   H3X23889  -0.012   1.796   5.556 -1.4811 -0.8716 -0.2361
  193DOPC   H3Y23890   0.152   1.798   5.474  1.6493 -2.4761  1.8182
  193DOPC   C3423891   0.104   1.610   5.555  0.2594 -0.7728 -0.1492
  193DOPC   H4X23892   0.170   1.636   5.641  1.5620 -0.3560 -1.2512
  193DOPC   H4Y23893   0.176   1.557   5.490  1.7897  0.5966  0.3585
  193DOPC   C3523894  -0.010   1.523   5.611  0.1690  0.2325 -0.3392
  193DOPC   H5X23895   0.041   1.438   5.660  0.5314  0.8570  0.4029
  193DOPC   H5Y23896  -0.063   1.477   5.525  1.2543 -2.4248  0.3134
  193DOPC   C3623897  -0.102   1.587   5.718  0.1046 -0.1902 -0.2212
  193DOPC   H6X23898  -0.152   1.673   5.670  2.8145 -0.0568 -3.1342
  193DOPC   H6Y23899  -0.180   1.511   5.742  0.5319  0.0200  1.9915
  193DOPC   C3723900  -0.033   1.647   5.839  0.0294  0.5244 -0.5089
  193DOPC   H7X23901   0.039   1.728   5.813  1.0397  0.1651  1.0557
  193DOPC   H7Y23902  -0.107   1.702   5.901 -0.5455 -0.1038 -0.6250
  193DOPC   C3823903   0.037   1.544   5.929  0.3947  0.4772  0.0472
  193DOPC   H8X23904   0.083   1.595   6.016  0.2670  1.4468 -0.4469
  193DOPC   H8Y23905   0.115   1.491   5.870 -0.0364  0.2854 -0.3610
  193DOPC   C3923906  -0.053   1.436   5.977  0.0339 -0.9870 -0.0218
  193DOPC   H9X23907  -0.089   1.369   5.898 -1.1515  1.4213 -1.6562
  193DOPC  C31023908  -0.072   1.408   6.106  0.4107  0.1280 -0.1176
  193DOPC  H10X23909  -0.143   1.329   6.135  0.0969  0.6001  0.4044
  193DOPC  C31123910   0.004   1.465   6.223 -0.1368  0.5836 -0.7697
  193DOPC  H11X23911   0.091   1.530   6.198 -0.8139  2.3325  1.1117
  193DOPC  H11Y23912   0.043   1.382   6.286 -0.6243  1.2771  0.5044
  193DOPC  C31223913  -0.078   1.559   6.304 -0.6297  0.5528  0.8616
  193DOPC  H12X23914  -0.162   1.504   6.351 -1.6698  1.6871  0.3888
  193DOPC  H12Y23915  -0.136   1.637   6.249 -2.7112  0.3780  2.6964
  193DOPC  C31323916   0.001   1.630   6.415  0.3199 -0.2385  0.0633
  193DOPC  H13X23917   0.101   1.664   6.379  0.1116 -0.3751 -0.6707
  193DOPC  H13Y23918  -0.063   1.718   6.439  3.1372  1.6060  1.2862
  193DOPC  C31423919   0.022   1.552   6.543 -0.5141 -0.3082 -0.1500
  193DOPC  H14X23920  -0.076   1.530   6.589 -0.1786 -1.4228  0.0605
  193DOPC  H14Y23921   0.080   1.460   6.519  0.6549  0.7215 -1.4653
  193DOPC  C31523922   0.094   1.638   6.650 -0.0509 -0.0419  0.5690
  193DOPC  H15X23923   0.020   1.713   6.686  0.7033  1.4307 -0.8327
  193DOPC  H15Y23924   0.172   1.709   6.617 -0.1985  0.9231  2.1619
  193DOPC  C31623925   0.151   1.554   6.763  0.0531  0.2790 -0.0033
  193DOPC  H16X23926   0.061   1.512   6.813  0.4366  0.9836  1.3332
  193DOPC  H16Y23927   0.200   1.467   6.716  0.3036  0.9140 -0.9426
  193DOPC  C31723928   0.241   1.627   6.863 -0.6343 -0.3946  0.2742
  193DOPC  H17X23929   0.347   1.645   6.833 -0.5627 -0.7447  0.3158
  193DOPC  H17Y23930   0.208   1.733   6.860 -1.4359 -0.5383  2.6293
  193DOPC  C31823931   0.223   1.577   7.013  0.1813 -0.0866 -0.3796
  193DOPC  H18X23932   0.116   1.584   7.045  0.3473 -0.0953  0.1877
  193DOPC  H18Y23933   0.258   1.474   7.035 -0.3842  0.1442  1.8962
  193DOPC  H18Z23934   0.279   1.649   7.078  1.7789  0.5003 -2.3236
  194DOPC     N23935   2.305   6.429   4.837  0.2682 -0.6661 -0.0763
  194DOPC   C1223936   2.394   6.503   4.941  0.6550 -0.4627  0.2996
  194DOPC  H12A23937   2.477   6.552   4.893  2.0177 -2.4944  0.4728
  194DOPC  H12B23938   2.440   6.427   5.001  0.8678  0.6478  1.6054
  194DOPC   C1323939   2.212   6.329   4.898  0.6980 -0.4498 -0.7102
  194DOPC  H13A23940   2.124   6.388   4.919  0.1959 -0.9600 -1.3318
  194DOPC  H13B23941   2.186   6.246   4.835 -0.8630  1.2383 -2.4386
  194DOPC  H13C23942   2.252   6.293   4.991  0.3539 -2.4583 -1.3062
  194DOPC   C1423943   2.410   6.344   4.753  0.3024  0.1051  0.3082
  194DOPC  H14A23944   2.352   6.291   4.678 -2.8805  2.4361  0.9098
  194DOPC  H14B23945   2.486   6.406   4.707 -1.2374  1.3000 -0.7258
  194DOPC  H14C23946   2.451   6.264   4.813  1.4829  1.5531  1.5155
  194DOPC   C1523947   2.225   6.522   4.744 -0.2338 -0.7798  0.0484
  194DOPC  H15A23948   2.288   6.594   4.695  1.8187 -2.2947  0.3164
  194DOPC  H15B23949   2.149   6.570   4.804 -0.9077  0.6483 -1.8368
  194DOPC  H15C23950   2.178   6.471   4.661  1.4721 -0.3213 -1.2682
  194DOPC   C1123951   2.312   6.591   5.033 -0.3357  0.2731 -0.2633
  194DOPC  H11A23952   2.384   6.653   5.091  0.6874 -2.0316  1.0557
  194DOPC  H11B23953   2.269   6.658   4.955  0.8302 -1.0113 -2.0894
  194DOPC     P23954   2.253   6.437   5.239 -0.2049 -0.3554  0.5319
  194DOPC   O1323955   2.372   6.351   5.206  0.3778  0.1727 -0.2775
  194DOPC   O1423956   2.134   6.361   5.277 -0.2715 -0.3283 -0.0562
  194DOPC   O1223957   2.216   6.524   5.112 -0.1180 -0.0526 -0.2131
  194DOPC   O1123958   2.296   6.543   5.346 -0.1445 -0.3151  0.5360
  194DOPC    C123959   2.239   6.667   5.376  0.2268 -0.0690  0.6706
  194DOPC    HA23960   2.196   6.708   5.282 -1.7846  2.7278  2.6713
  194DOPC    HB23961   2.321   6.742   5.386  1.5011 -1.0855 -1.3599
  194DOPC    C223962   2.150   6.665   5.502 -0.0042  0.3910 -0.6476
  194DOPC    HS23963   2.110   6.768   5.513  0.8558  0.6449  0.2916
  194DOPC   O2123964   2.225   6.619   5.616  0.4277 -0.8988  0.4549
  194DOPC   C2123965   2.282   6.717   5.683  0.0526  0.2294  0.3268
  194DOPC   O2223966   2.293   6.836   5.646  0.3374  0.2193  0.0290
  194DOPC   C2223967   2.338   6.664   5.820  0.3692 -0.0993  0.1772
  194DOPC   H2R23968   2.448   6.667   5.813  0.3281  1.6981  0.0041
  194DOPC   H2S23969   2.290   6.566   5.843  0.6137 -0.8080 -2.1245
  194DOPC    C323970   2.022   6.586   5.491  0.4194  0.3618 -0.2954
  194DOPC    HX23971   2.049   6.479   5.482  0.0556  0.3242 -1.0692
  194DOPC    HY23972   1.972   6.606   5.393 -0.6067  1.2738  0.3784
  194DOPC   O3123973   1.929   6.617   5.598 -0.0258 -0.0181  0.4005
  194DOPC   C3123974   1.848   6.724   5.586  0.4894  0.0129 -0.7367
  194DOPC   O3223975   1.837   6.797   5.493  0.0694 -0.4287  0.2314
  194DOPC   C3223976   1.781   6.758   5.724  0.2683  0.1873  0.5676
  194DOPC   H2X23977   1.713   6.843   5.705  0.5837  0.1505 -0.8060
  194DOPC   H2Y23978   1.734   6.660   5.747  2.6389 -1.0664  0.4336
  194DOPC   C2323979   2.292   6.772   5.921  0.0668 -0.6541 -0.9835
  194DOPC   H3R23980   2.181   6.772   5.927 -0.0103  0.3499 -2.1275
  194DOPC   H3S23981   2.318   6.872   5.881  3.2768  0.1706  2.5081
  194DOPC   C2423982   2.371   6.766   6.058  0.2641  0.4677  0.2695
  194DOPC   H4R23983   2.475   6.800   6.040  0.3819  0.1192  0.2991
  194DOPC   H4S23984   2.378   6.659   6.086 -0.9221  0.0229 -0.9863
  194DOPC   C2523985   2.311   6.854   6.176  0.1519  1.1510  0.0395
  194DOPC   H5R23986   2.202   6.837   6.189  0.0911 -0.0165 -1.6329
  194DOPC   H5S23987   2.334   6.959   6.148 -0.4156  1.0785 -0.7396
  194DOPC   C2623988   2.378   6.817   6.307 -0.5893  0.2570 -0.4696
  194DOPC   H6R23989   2.489   6.809   6.299 -0.7348 -0.4359 -2.2553
  194DOPC   H6S23990   2.352   6.716   6.345 -0.2512  0.4346  0.2414
  194DOPC   C2723991   2.361   6.919   6.424  0.4124 -0.7913  0.1810
  194DOPC   H7R23992   2.254   6.918   6.452  0.6289 -1.5276  1.0321
  194DOPC   H7S23993   2.396   7.021   6.396  1.7937 -1.0845  0.7533
  194DOPC   C2823994   2.438   6.866   6.540 -0.1501 -0.1044  0.0044
  194DOPC   H8R23995   2.542   6.844   6.505 -0.4705 -1.1416 -0.3111
  194DOPC   H8S23996   2.397   6.774   6.587  0.5258  0.3501  1.5684
  194DOPC   C2923997   2.445   6.972   6.655  0.1162 -0.0859  0.2289
  194DOPC   H9R23998   2.518   7.050   6.628 -0.8370  0.1145 -1.9424
  194DOPC  C21023999   2.382   6.976   6.769 -0.4787 -0.1493 -0.0060
  194DOPC  H10R24000   2.394   7.066   6.830  1.1123 -0.1100 -0.3261
  194DOPC  C21124001   2.278   6.874   6.810 -0.1892 -0.4745 -0.0427
  194DOPC  H11R24002   2.316   6.769   6.804  0.7316 -0.3138  2.0258
  194DOPC  H11S24003   2.189   6.876   6.743 -0.0975 -1.4048 -0.2088
  194DOPC  C21224004   2.229   6.902   6.949  0.4539  0.1104  0.2345
  194DOPC  H12R24005   2.146   6.840   6.989  0.7982 -0.3681  0.2141
  194DOPC  H12S24006   2.184   7.003   6.956  2.0760  0.7670  2.6251
  194DOPC  C21324007   2.342   6.893   7.059 -0.4653 -0.4856  0.3745
  194DOPC  H13R24008   2.397   6.989   7.069  1.0020 -1.3720  1.1028
  194DOPC  H13S24009   2.418   6.820   7.023  0.4752 -0.3525  1.9942
  194DOPC  C21424010   2.300   6.840   7.191  0.1058  0.0012  0.1405
  194DOPC  H14R24011   2.206   6.893   7.217 -0.6197 -0.6643 -1.0687
  194DOPC  H14S24012   2.379   6.867   7.265  0.0289 -0.4074  0.3763
  194DOPC  C21524013   2.281   6.690   7.205  0.1827 -0.4752 -0.1839
  194DOPC  H15R24014   2.372   6.635   7.173 -0.3214  0.0263 -2.6507
  194DOPC  H15S24015   2.198   6.655   7.140 -0.8176 -3.0049  2.2283
  194DOPC  C21624016   2.245   6.644   7.354  0.6173 -0.3527  0.7498
  194DOPC  H16R24017   2.161   6.707   7.392  1.3133  0.3534  1.1327
  194DOPC  H16S24018   2.322   6.656   7.434 -1.4056 -0.7959  2.8941
  194DOPC  C21724019   2.197   6.501   7.363 -0.3866  0.0462  0.3388
  194DOPC  H17R24020   2.278   6.433   7.330 -1.9687 -1.0351 -1.5640
  194DOPC  H17S24021   2.118   6.481   7.287 -1.4279  0.7805  1.1862
  194DOPC  C21824022   2.138   6.474   7.508  0.4002 -0.5958 -1.2091
  194DOPC  H18R24023   2.228   6.475   7.572 -0.8033 -3.3331  0.7443
  194DOPC  H18S24024   2.095   6.371   7.506 -0.0088 -0.4951  0.6636
  194DOPC  H18T24025   2.058   6.547   7.533  0.3915 -0.4563 -1.6351
  194DOPC   C3324026   1.892   6.799   5.822  0.0258 -0.7057  0.0144
  194DOPC   H3X24027   1.966   6.862   5.767 -0.4579 -0.2885 -0.1708
  194DOPC   H3Y24028   1.955   6.718   5.866 -0.6949 -1.5778 -0.5117
  194DOPC   C3424029   1.839   6.879   5.938  0.2794  0.4177  1.2775
  194DOPC   H4X24030   1.803   6.979   5.907 -1.5339 -0.5431  0.0837
  194DOPC   H4Y24031   1.929   6.889   6.002  1.1232 -0.3325  0.2563
  194DOPC   C3524032   1.745   6.793   6.019  0.1831  0.3788 -0.5281
  194DOPC   H5X24033   1.780   6.693   6.053  1.1612  1.2852  1.2561
  194DOPC   H5Y24034   1.650   6.782   5.963  0.9837 -0.3187 -1.7911
  194DOPC   C3624035   1.702   6.849   6.157  0.1541 -1.0614 -0.2898
  194DOPC   H6X24036   1.784   6.848   6.232  1.1434  1.0432 -1.2361
  194DOPC   H6Y24037   1.683   6.958   6.140  0.8386 -1.0815 -1.2488
  194DOPC   C3724038   1.576   6.784   6.221  0.0501 -0.1648  0.2364
  194DOPC   H7X24039   1.525   6.865   6.277 -0.2527  0.7239 -1.2497
  194DOPC   H7Y24040   1.501   6.752   6.146 -0.4104  0.1907  0.5376
  194DOPC   C3824041   1.608   6.655   6.308 -0.4189  0.6714  0.7649
  194DOPC   H8X24042   1.698   6.666   6.372  0.8481  1.5884 -1.0661
  194DOPC   H8Y24043   1.630   6.570   6.240  0.0981  1.3150  0.1143
  194DOPC   C3924044   1.480   6.621   6.381  0.2577 -0.3462 -0.6535
  194DOPC   H9X24045   1.424   6.537   6.338 -0.8969 -0.2371  0.5661
  194DOPC  C31024046   1.440   6.673   6.503 -0.1660  0.4091  0.0189
  194DOPC  H10X24047   1.339   6.646   6.537  0.5042  0.6127  2.3763
  194DOPC  C31124048   1.506   6.773   6.596 -0.3528  0.3561  0.0581
  194DOPC  H11X24049   1.448   6.868   6.600 -1.9030 -0.5223 -0.4946
  194DOPC  H11Y24050   1.605   6.794   6.550 -0.1328  0.2022  0.4589
  194DOPC  C31224051   1.519   6.728   6.739  1.0579  0.1848  0.6365
  194DOPC  H12X24052   1.587   6.798   6.792  2.5846 -0.3609 -0.5070
  194DOPC  H12Y24053   1.562   6.625   6.740  2.6349  0.8026 -0.1517
  194DOPC  C31324054   1.383   6.728   6.812  0.2157  0.1780 -0.2972
  194DOPC  H13X24055   1.335   6.828   6.818 -0.3107 -0.0931  0.0856
  194DOPC  H13Y24056   1.309   6.657   6.769 -0.2371 -1.2012  2.5303
  194DOPC  C31424057   1.414   6.691   6.963  0.1444  0.0010 -0.6581
  194DOPC  H14X24058   1.449   6.586   6.953 -1.1879 -0.4688 -0.6577
  194DOPC  H14Y24059   1.484   6.760   7.014  2.0826 -2.4218  0.1467
  194DOPC  C31524060   1.290   6.688   7.053 -0.1719  0.3803  0.3748
  194DOPC  H15X24061   1.211   6.647   6.987  0.1349 -1.9255  1.3478
  194DOPC  H15Y24062   1.262   6.791   7.086  0.8995  1.2182 -1.1990
  194DOPC  C31624063   1.311   6.608   7.174 -0.3391  0.5220  0.2602
  194DOPC  H16X24064   1.304   6.498   7.155  0.9711  0.5300 -0.3797
  194DOPC  H16Y24065   1.415   6.619   7.210  0.3234 -0.1655 -1.3458
  194DOPC  C31724066   1.219   6.645   7.293 -0.6485 -0.0798 -0.0207
  194DOPC  H17X24067   1.205   6.754   7.309  2.8570  0.6117 -0.8056
  194DOPC  H17Y24068   1.125   6.589   7.272 -1.6504  1.0824  1.2153
  194DOPC  C31824069   1.270   6.578   7.418  0.0578 -0.2486 -0.1735
  194DOPC  H18X24070   1.303   6.474   7.396 -0.5486 -0.8070  1.3756
  194DOPC  H18Y24071   1.353   6.637   7.460 -1.0715 -0.1147  2.0674
  194DOPC  H18Z24072   1.185   6.560   7.488  0.6324  0.4582  0.7261
  195DOPC     N24073   4.497   0.323   5.163  0.3616 -0.0959  0.2686
  195DOPC   C1224074   4.539   0.229   5.276 -0.0038  0.4176  0.9124
  195DOPC  H12A24075   4.496   0.135   5.243  0.5404  0.3674  0.3251
  195DOPC  H12B24076   4.498   0.256   5.372  0.0081  1.2316  0.6946
  195DOPC   C1324077   4.552   0.454   5.163 -0.5794  0.3074 -0.0582
  195DOPC  H13A24078   4.659   0.450   5.145 -0.7311 -1.2620 -0.8237
  195DOPC  H13B24079   4.514   0.523   5.089 -0.9030 -2.1587 -2.3507
  195DOPC  H13C24080   4.553   0.503   5.259  0.5835 -1.8894  1.1163
  195DOPC   C1424081   4.351   0.338   5.172  0.1165 -0.4417  0.1422
  195DOPC  H14A24082   4.313   0.392   5.087 -2.2059  0.4322  1.6694
  195DOPC  H14B24083   4.305   0.240   5.167 -0.1850 -0.3230  0.5751
  195DOPC  H14C24084   4.319   0.400   5.254 -0.1197  0.7805 -0.8430
  195DOPC   C1524085   4.534   0.268   5.035  0.2918 -0.1691 -0.2846
  195DOPC  H15A24086   4.496   0.168   5.024 -0.4397  0.2755 -2.1195
  195DOPC  H15B24087   4.641   0.264   5.022  0.4846 -0.3794  1.1834
  195DOPC  H15C24088   4.488   0.320   4.953 -0.9124 -1.2299 -0.2985
  195DOPC   C1124089   4.690   0.207   5.302  0.2323  0.4866 -0.6202
  195DOPC  H11A24090   4.718   0.313   5.320 -1.6286  1.1420 -1.2538
  195DOPC  H11B24091   4.710   0.158   5.399  0.8845  0.9773 -0.5017
  195DOPC     P24092   4.743   0.005   5.148 -0.0937 -0.5028 -0.2772
  195DOPC   O1324093   4.791  -0.008   5.006 -1.0076  0.1932  0.0625
  195DOPC   O1424094   4.608  -0.034   5.191 -0.4419 -0.3526 -0.1333
  195DOPC   O1224095   4.764   0.154   5.192 -0.3472  0.0432  0.3268
  195DOPC   O1124096   4.845  -0.074   5.231  0.1269 -0.1939 -0.5674
  195DOPC    C124097   4.818  -0.142   5.358  0.2018  0.1052 -0.0264
  195DOPC    HA24098   4.719  -0.192   5.357 -0.9005  2.1343  0.9283
  195DOPC    HB24099   4.821  -0.066   5.440  2.2928  1.6857 -1.4348
  195DOPC    C224100   4.923  -0.254   5.377  0.0972 -0.6229 -0.2742
  195DOPC    HS24101   4.915  -0.319   5.287  0.1646 -0.8856 -0.0902
  195DOPC   O2124102   4.883  -0.336   5.492 -0.2821  0.1966  0.2909
  195DOPC   C2124103   4.956  -0.451   5.497 -0.4724  0.0929 -0.3968
  195DOPC   O2224104   5.044  -0.484   5.418 -0.0551 -0.1010  0.9076
  195DOPC   C2224105   4.924  -0.524   5.629  0.0250  0.1826  0.3023
  195DOPC   H2R24106   4.827  -0.577   5.622  0.9141 -1.7107  1.5299
  195DOPC   H2S24107   4.913  -0.446   5.708  2.8628 -1.1630  2.1753
  195DOPC    C324108   5.071  -0.214   5.402 -0.4489  0.1046 -0.8532
  195DOPC    HX24109   5.094  -0.135   5.327  0.8313  0.8063  0.2488
  195DOPC    HY24110   5.155  -0.284   5.385  0.0523 -0.0306  1.7403
  195DOPC   O3124111   5.082  -0.150   5.528  0.4937 -0.0502  0.0264
  195DOPC   C3124112   5.149  -0.207   5.623  0.4846  0.4221 -0.5590
  195DOPC   O3224113   5.216  -0.309   5.617  0.3148 -0.1612 -0.5617
  195DOPC   C3224114   5.151  -0.114   5.738 -0.9910 -0.4396 -1.1445
  195DOPC   H2X24115   5.252  -0.067   5.736  0.3920 -3.2316 -1.9819
  195DOPC   H2Y24116   5.067  -0.042   5.740  1.1961  2.4220  3.2959
  195DOPC   C2324117   5.031  -0.629   5.663 -0.2564 -0.1348 -0.6175
  195DOPC   H3R24118   5.132  -0.594   5.632  0.4132 -0.5314  1.0240
  195DOPC   H3S24119   5.008  -0.716   5.598 -1.1685 -0.5810  0.2811
  195DOPC   C2424120   5.056  -0.664   5.805 -0.2930  0.2431  0.3469
  195DOPC   H4R24121   5.137  -0.740   5.813  0.9993  1.5355  0.0372
  195DOPC   H4S24122   4.965  -0.705   5.852  0.3786 -1.7164  0.0229
  195DOPC   C2524123   5.099  -0.539   5.887  0.7607 -0.3735 -0.0364
  195DOPC   H5R24124   5.007  -0.484   5.916  0.8342 -0.5882  0.6291
  195DOPC   H5S24125   5.161  -0.467   5.829  1.1975  0.4497  1.4018
  195DOPC   C2624126   5.185  -0.587   6.010  0.4907  0.7977 -0.3724
  195DOPC   H6R24127   5.290  -0.618   5.989  0.7386  0.0541  1.6896
  195DOPC   H6S24128   5.148  -0.684   6.050  1.8132  0.1304 -0.6979
  195DOPC   C2724129   5.181  -0.498   6.133  0.3357 -0.5487  0.5243
  195DOPC   H7R24130   5.078  -0.457   6.140 -0.2731 -1.4799 -1.9972
  195DOPC   H7S24131   5.237  -0.404   6.114  0.7408 -0.4610  2.0106
  195DOPC   C2824132   5.244  -0.561   6.262  0.3916  0.0061  0.9131
  195DOPC   H8R24133   5.350  -0.588   6.243 -0.0682 -0.5536 -1.1153
  195DOPC   H8S24134   5.202  -0.662   6.281  0.7290 -0.8255 -2.1133
  195DOPC   C2924135   5.250  -0.476   6.388 -0.0529  0.3072 -0.1836
  195DOPC   H9R24136   5.318  -0.391   6.377  1.8617 -1.0619  0.5984
  195DOPC  C21024137   5.182  -0.487   6.500  0.5757  0.3735  0.4184
  195DOPC  H10R24138   5.199  -0.413   6.579  0.3123 -0.0130  0.8442
  195DOPC  C21124139   5.104  -0.601   6.557 -0.0312  0.5402  0.2393
  195DOPC  H11R24140   5.154  -0.695   6.524 -0.1399  0.0872  1.2992
  195DOPC  H11S24141   5.001  -0.600   6.515  0.5197 -0.8363 -1.2334
  195DOPC  C21224142   5.095  -0.601   6.711 -0.1358  0.0313 -0.4492
  195DOPC  H12R24143   5.201  -0.608   6.744 -0.3691  1.9810  0.8276
  195DOPC  H12S24144   5.047  -0.699   6.730 -1.8685  1.1284  1.1706
  195DOPC  C21324145   5.040  -0.471   6.777 -0.9261  0.5901 -0.3869
  195DOPC  H13R24146   4.985  -0.409   6.703 -0.8512 -1.0943 -1.9449
  195DOPC  H13S24147   5.124  -0.413   6.819 -0.9030 -2.1447  4.0965
  195DOPC  C21424148   4.950  -0.496   6.906  0.0854  0.2167  0.0648
  195DOPC  H14R24149   4.872  -0.563   6.863  1.0204 -0.8331 -0.0588
  195DOPC  H14S24150   4.903  -0.400   6.935  0.3813  0.3170  0.2092
  195DOPC  C21524151   5.024  -0.572   7.014 -1.1605 -0.5027 -0.2195
  195DOPC  H15R24152   5.103  -0.639   6.972  1.0734  0.5216  2.0860
  195DOPC  H15S24153   4.947  -0.641   7.054  0.1342 -1.5488  0.5830
  195DOPC  C21624154   5.108  -0.493   7.122 -0.9945  0.3933 -0.4830
  195DOPC  H16R24155   5.161  -0.412   7.068 -0.9330 -0.0311 -1.0689
  195DOPC  H16S24156   5.190  -0.559   7.156 -2.3457 -1.2105 -0.1695
  195DOPC  C21724157   5.022  -0.438   7.239  0.3956 -1.0831  0.2458
  195DOPC  H17R24158   4.976  -0.524   7.292 -3.0907 -0.7136 -1.8962
  195DOPC  H17S24159   4.931  -0.390   7.197  0.7787 -0.3190  0.2767
  195DOPC  C21824160   5.080  -0.339   7.332  0.2584 -0.6214 -0.4364
  195DOPC  H18R24161   5.114  -0.248   7.277 -0.1926 -1.2051 -1.7308
  195DOPC  H18S24162   5.162  -0.391   7.386  1.1518  1.1489  0.0029
  195DOPC  H18T24163   5.008  -0.310   7.412  0.5391 -0.7800 -0.1282
  195DOPC   C3324164   5.152  -0.187   5.872  0.3575 -0.2634 -0.6551
  195DOPC   H3X24165   5.239  -0.256   5.881  1.1359  0.6524 -0.9925
  195DOPC   H3Y24166   5.069  -0.261   5.870  0.2262 -0.1074 -1.0455
  195DOPC   C3424167   5.138  -0.101   5.999  0.3481  0.2689  0.4882
  195DOPC   H4X24168   5.152  -0.166   6.088  2.7869 -0.2076 -0.1810
  195DOPC   H4Y24169   5.033  -0.063   6.000 -0.7329 -2.2789 -1.6862
  195DOPC   C3524170   5.233   0.017   6.016  0.6625 -0.7163  0.3551
  195DOPC   H5X24171   5.215   0.086   5.930  0.3553  0.6270  1.4695
  195DOPC   H5Y24172   5.335  -0.025   6.022 -0.0976 -2.9431 -0.8551
  195DOPC   C3624173   5.218   0.091   6.147 -0.0630 -0.1475 -0.0298
  195DOPC   H6X24174   5.116   0.135   6.149 -0.0097  0.0196  1.9689
  195DOPC   H6Y24175   5.231   0.022   6.234  0.6929 -2.0829 -1.6080
  195DOPC   C3724176   5.314   0.213   6.155  0.0519  0.6603  0.9259
  195DOPC   H7X24177   5.415   0.180   6.123 -0.1982  0.8528 -0.1054
  195DOPC   H7Y24178   5.278   0.282   6.076 -1.9284 -3.5217 -2.2344
  195DOPC   C3824179   5.344   0.271   6.292  0.4790  0.2963 -0.6379
  195DOPC   H8X24180   5.442   0.323   6.286 -0.0494  1.8195  2.0483
  195DOPC   H8Y24181   5.340   0.186   6.365  0.0948  0.4632 -0.4597
  195DOPC   C3924182   5.244   0.376   6.331 -0.4104 -0.1889 -0.4552
  195DOPC   H9X24183   5.193   0.418   6.244  0.4138 -1.3766 -1.5543
  195DOPC  C31024184   5.212   0.421   6.455  0.2644 -0.3019  0.0956
  195DOPC  H10X24185   5.164   0.518   6.474  2.6966  1.1595 -0.7612
  195DOPC  C31124186   5.259   0.363   6.586 -0.3825 -0.1336 -0.0455
  195DOPC  H11X24187   5.351   0.419   6.616  1.1119 -1.4745 -1.8805
  195DOPC  H11Y24188   5.293   0.263   6.553  1.7465  1.1182 -1.9660
  195DOPC  C31224189   5.146   0.349   6.689 -0.1018  0.6975 -0.1386
  195DOPC  H12X24190   5.205   0.302   6.771 -1.0951  1.5340  1.0915
  195DOPC  H12Y24191   5.064   0.282   6.656  0.7250 -1.3407  1.7355
  195DOPC  C31324192   5.083   0.474   6.746 -0.2935 -0.3576  1.2408
  195DOPC  H13X24193   5.162   0.552   6.737 -1.4598  0.7185 -0.1583
  195DOPC  H13Y24194   4.999   0.513   6.684  1.6467  0.1905 -1.2215
  195DOPC  C31424195   5.026   0.451   6.894  0.1956 -0.1919  0.4662
  195DOPC  H14X24196   4.963   0.360   6.899 -2.4814  1.5965  1.1864
  195DOPC  H14Y24197   5.120   0.449   6.953  0.8307  3.2495 -0.2112
  195DOPC  C31524198   4.947   0.570   6.951  0.2427  0.1762 -0.2267
  195DOPC  H15X24199   4.846   0.565   6.905  0.8246 -1.2782 -1.4307
  195DOPC  H15Y24200   4.991   0.668   6.921  3.5760 -0.8563  0.8487
  195DOPC  C31624201   4.926   0.552   7.105 -0.6181 -0.3681  0.3082
  195DOPC  H16X24202   4.936   0.442   7.119 -0.1700 -0.4722 -0.7126
  195DOPC  H16Y24203   5.006   0.598   7.167  0.4184 -0.8634 -0.6146
  195DOPC  C31724204   4.796   0.610   7.152 -0.4795 -0.0684 -0.4658
  195DOPC  H17X24205   4.808   0.717   7.127 -1.1625  0.2854  0.6777
  195DOPC  H17Y24206   4.717   0.569   7.085 -0.9995  1.4100 -0.7851
  195DOPC  C31824207   4.776   0.590   7.300  0.2102 -0.4503 -0.0220
  195DOPC  H18X24208   4.865   0.615   7.362  0.7756 -4.0842  0.8689
  195DOPC  H18Y24209   4.686   0.647   7.333 -0.0896 -0.8573 -0.1144
  195DOPC  H18Z24210   4.749   0.486   7.330 -1.1446  0.5194  2.4597
  196DOPC     N24211   1.251   1.160   4.810  0.6647 -0.9941  0.1980
  196DOPC   C1224212   1.338   1.214   4.925 -0.3241 -0.0168 -0.2906
  196DOPC  H12A24213   1.358   1.316   4.896 -0.3987 -0.5099 -2.2599
  196DOPC  H12B24214   1.434   1.166   4.937 -0.6780 -1.0194 -1.2152
  196DOPC   C1324215   1.224   1.019   4.816  0.1680  0.5640 -0.3869
  196DOPC  H13A24216   1.154   0.995   4.738 -0.6907 -0.8045  0.7595
  196DOPC  H13B24217   1.314   0.959   4.816 -1.0677 -1.3811  0.2349
  196DOPC  H13C24218   1.177   0.996   4.910  1.0073 -2.9243 -0.6819
  196DOPC   C1424219   1.327   1.186   4.684  0.0365 -0.3533  0.2508
  196DOPC  H14A24220   1.424   1.140   4.681  1.1328  1.8528 -1.5355
  196DOPC  H14B24221   1.275   1.149   4.597  3.6083  0.6220 -2.5307
  196DOPC  H14C24222   1.349   1.292   4.676 -1.3325 -0.1404 -1.1034
  196DOPC   C1524223   1.124   1.244   4.808 -0.2239 -0.1730  0.0461
  196DOPC  H15A24224   1.147   1.348   4.791  0.1151 -0.1162  0.8107
  196DOPC  H15B24225   1.070   1.232   4.901 -1.2444 -0.5168 -0.5777
  196DOPC  H15C24226   1.050   1.222   4.733 -0.6334 -1.6021  0.8341
  196DOPC   C1124227   1.289   1.208   5.064  0.7582 -0.6439 -0.3399
  196DOPC  H11A24228   1.235   1.111   5.072 -0.7631  0.2989  2.4959
  196DOPC  H11B24229   1.378   1.207   5.131  0.0810  1.5840  0.6759
  196DOPC     P24230   1.099   1.301   5.209 -0.1903 -0.0763 -0.3415
  196DOPC   O1324231   0.966   1.285   5.151  0.3277 -0.2509 -0.6352
  196DOPC   O1424232   1.126   1.414   5.298  0.2148  0.0939 -0.0040
  196DOPC   O1224233   1.199   1.316   5.086 -0.4046  0.2816  0.6979
  196DOPC   O1124234   1.141   1.169   5.290  0.0452 -0.5784 -0.2812
  196DOPC    C124235   1.096   1.040   5.295  0.3194 -0.3331  0.3101
  196DOPC    HA24236   1.139   0.988   5.207  2.0429  1.1217  0.2187
  196DOPC    HB24237   0.990   1.031   5.265 -0.0072  1.9095  0.5867
  196DOPC    C224238   1.135   0.981   5.436  1.1739  0.1159 -0.2911
  196DOPC    HS24239   1.134   0.874   5.406  0.9996  0.0845 -0.1733
  196DOPC   O2124240   1.042   1.015   5.537 -0.2859 -0.0565 -0.6051
  196DOPC   C2124241   0.919   0.955   5.527 -0.3971  0.1340 -0.3516
  196DOPC   O2224242   0.893   0.862   5.457  0.0737  0.0128  0.3054
  196DOPC   C2224243   0.826   1.009   5.643 -0.0904  0.2591  0.4250
  196DOPC   H2R24244   0.750   1.063   5.583  0.1832 -0.6539 -0.7861
  196DOPC   H2S24245   0.894   1.073   5.704 -0.4118 -1.5058  2.7480
  196DOPC    C324246   1.280   1.016   5.476  0.0363  0.2722 -0.8084
  196DOPC    HX24247   1.279   1.127   5.482 -1.9473  0.3681 -1.9543
  196DOPC    HY24248   1.345   0.967   5.400  2.6716 -1.7569  2.4922
  196DOPC   O3124249   1.322   0.946   5.594 -0.1704  0.1900  0.7931
  196DOPC   C3124250   1.437   0.982   5.649  0.5840 -0.7765 -0.1749
  196DOPC   O3224251   1.511   1.073   5.617 -0.6425  0.3004 -0.6473
  196DOPC   C3224252   1.461   0.899   5.776 -0.0357 -0.1889  0.6273
  196DOPC   H2X24253   1.380   0.824   5.789 -2.0873  1.7288 -0.2686
  196DOPC   H2Y24254   1.559   0.850   5.760 -0.0723  0.7727 -3.7092
  196DOPC   C2324255   0.744   0.902   5.721 -0.5153  0.1120  0.1854
  196DOPC   H3R24256   0.808   0.815   5.745 -0.1133 -1.1106 -4.3779
  196DOPC   H3S24257   0.676   0.856   5.647 -0.0004 -1.4130  0.6375
  196DOPC   C2424258   0.669   0.959   5.842 -0.3911  0.0473 -0.3452
  196DOPC   H4R24259   0.570   1.006   5.823  0.2456  3.1373  2.8659
  196DOPC   H4S24260   0.721   1.048   5.882  0.1726 -1.0046  1.3804
  196DOPC   C2524261   0.654   0.858   5.961  0.0767  0.1228 -0.1353
  196DOPC   H5R24262   0.755   0.818   5.982 -0.2316 -1.3126 -1.2183
  196DOPC   H5S24263   0.600   0.775   5.910 -0.6156  0.5646 -0.1335
  196DOPC   C2624264   0.606   0.901   6.103  0.4292  0.1962  0.1811
  196DOPC   H6R24265   0.502   0.940   6.090  0.6925  1.3875  1.3478
  196DOPC   H6S24266   0.680   0.978   6.134  0.3770  1.3688 -2.3802
  196DOPC   C2724267   0.608   0.783   6.197  0.4624  0.4308  0.3122
  196DOPC   H7R24268   0.715   0.751   6.201 -0.2094 -2.4399 -1.8691
  196DOPC   H7S24269   0.553   0.706   6.139  0.4626  0.6628  0.0031
  196DOPC   C2824270   0.540   0.804   6.335  0.1508 -0.0067  0.2274
  196DOPC   H8R24271   0.541   0.713   6.398  1.0524  0.3471  0.7378
  196DOPC   H8S24272   0.432   0.812   6.313  0.1661 -1.1793 -0.3509
  196DOPC   C2924273   0.587   0.925   6.410 -0.7681  0.4596  0.2406
  196DOPC   H9R24274   0.583   1.011   6.341 -4.4191 -1.1818 -1.9565
  196DOPC  C21024275   0.643   0.939   6.532  0.3184 -0.0411  0.1593
  196DOPC  H10R24276   0.676   1.039   6.563  0.2426  0.0283  0.0183
  196DOPC  C21124277   0.657   0.820   6.625  0.2584  1.0984 -0.2589
  196DOPC  H11R24278   0.763   0.822   6.656  0.7657 -1.3035 -1.6019
  196DOPC  H11S24279   0.641   0.724   6.572  2.7629  1.1730 -1.2597
  196DOPC  C21224280   0.559   0.821   6.739  0.3715 -0.4214  0.0802
  196DOPC  H12R24281   0.570   0.732   6.805  0.7516 -0.5926 -0.2076
  196DOPC  H12S24282   0.461   0.828   6.689  0.5720 -0.0537 -0.2632
  196DOPC  C21324283   0.564   0.945   6.830 -0.0328  0.0991 -0.0282
  196DOPC  H13R24284   0.519   1.019   6.760  2.0525 -2.1198 -4.0760
  196DOPC  H13S24285   0.667   0.977   6.860 -1.6335  2.8020  3.1867
  196DOPC  C21424286   0.473   0.932   6.954  0.0788 -0.9018 -0.1107
  196DOPC  H14R24287   0.516   0.849   7.014  2.3969  0.6522  0.4972
  196DOPC  H14S24288   0.365   0.913   6.938 -0.8398  1.7008  2.2005
  196DOPC  C21524289   0.481   1.068   7.036 -0.5054  0.2998  0.5765
  196DOPC  H15R24290   0.432   1.145   6.973  0.7673  0.4960 -0.2177
  196DOPC  H15S24291   0.588   1.096   7.049 -0.1477 -0.7504  0.0547
  196DOPC  C21624292   0.416   1.053   7.172 -0.1881 -0.9644  0.7379
  196DOPC  H16R24293   0.332   0.981   7.158 -0.2983 -0.5696 -0.8521
  196DOPC  H16S24294   0.369   1.153   7.187 -1.4451 -1.5244  0.7056
  196DOPC  C21724295   0.491   1.019   7.299 -0.2255 -0.2156  0.2233
  196DOPC  H17R24296   0.421   1.042   7.382 -2.4038  1.3042 -1.8882
  196DOPC  H17S24297   0.583   1.076   7.325  0.2529 -1.0318  0.3643
  196DOPC  C21824298   0.523   0.870   7.313 -0.3333  0.1239  0.8716
  196DOPC  H18R24299   0.439   0.805   7.280  1.5058 -1.5595 -0.7273
  196DOPC  H18S24300   0.541   0.847   7.420  0.4312  2.2151  1.2424
  196DOPC  H18T24301   0.611   0.850   7.249 -0.6576 -0.4163  0.5838
  196DOPC   C3324302   1.461   0.983   5.906 -0.7285  0.1010 -0.1430
  196DOPC   H3X24303   1.373   1.051   5.909  0.0247  1.0690  0.5672
  196DOPC   H3Y24304   1.550   1.049   5.897  0.1564 -1.0765 -0.2131
  196DOPC   C3424305   1.482   0.899   6.036  0.1460 -0.6367  0.3682
  196DOPC   H4X24306   1.570   0.832   6.024 -0.4247 -1.0417 -2.2155
  196DOPC   H4Y24307   1.396   0.834   6.060  1.8069 -3.3239 -0.5385
  196DOPC   C3524308   1.503   0.993   6.153  0.4888 -0.2626  0.2250
  196DOPC   H5X24309   1.452   1.091   6.139  0.0185 -0.2031  2.0581
  196DOPC   H5Y24310   1.610   1.021   6.163 -0.0596  2.3548 -0.3829
  196DOPC   C3624311   1.459   0.934   6.278  0.6038 -0.9504  0.0226
  196DOPC   H6X24312   1.348   0.927   6.286  0.1600  2.8125 -0.8940
  196DOPC   H6Y24313   1.502   0.831   6.281 -1.0420 -1.6574  0.8616
  196DOPC   C3724314   1.500   1.010   6.400  0.3062 -0.4235 -0.1021
  196DOPC   H7X24315   1.610   1.024   6.397  0.0031  2.7797 -0.2685
  196DOPC   H7Y24316   1.445   1.106   6.399  1.4859  0.2725 -0.7574
  196DOPC   C3824317   1.468   0.934   6.532  0.4107  0.1532  0.2982
  196DOPC   H8X24318   1.514   0.833   6.544  1.4424  0.9091  4.4161
  196DOPC   H8Y24319   1.359   0.917   6.532  0.4895 -0.3772 -0.2148
  196DOPC   C3924320   1.516   1.015   6.649 -0.5955  0.7770  0.1704
  196DOPC   H9X24321   1.606   1.070   6.620  0.8062 -0.7720  1.3666
  196DOPC  C31024322   1.467   1.004   6.773  0.0988  0.8450  0.3133
  196DOPC  H10X24323   1.526   1.058   6.849  2.1062 -0.4014 -0.2713
  196DOPC  C31124324   1.361   0.903   6.816 -0.1036  0.2916  0.4378
  196DOPC  H11X24325   1.328   0.838   6.732 -0.8922 -0.0048  0.9614
  196DOPC  H11Y24326   1.269   0.949   6.857 -0.4772 -0.8287  0.8865
  196DOPC  C31224327   1.429   0.808   6.915  0.0091 -0.3586 -0.9996
  196DOPC  H12X24328   1.534   0.789   6.882 -0.1232  0.5944 -2.0352
  196DOPC  H12Y24329   1.372   0.713   6.917  0.1135 -0.4316 -1.3715
  196DOPC  C31324330   1.437   0.873   7.056  0.1944 -0.1878 -0.2827
  196DOPC  H13X24331   1.491   0.970   7.049  1.8351 -0.7398  2.7373
  196DOPC  H13Y24332   1.340   0.904   7.099 -0.5232 -0.5832 -1.5783
  196DOPC  C31424333   1.532   0.794   7.144  0.0435 -0.2982 -0.4325
  196DOPC  H14X24334   1.529   0.686   7.118 -1.3923 -0.0839 -1.2393
  196DOPC  H14Y24335   1.638   0.818   7.120  0.8092 -2.5119  0.4854
  196DOPC  C31524336   1.499   0.819   7.293  0.4580  0.1939 -0.2301
  196DOPC  H15X24337   1.397   0.778   7.307  0.7386 -0.4994 -0.2071
  196DOPC  H15Y24338   1.501   0.929   7.309 -1.6559  0.0171  1.7988
  196DOPC  C31624339   1.595   0.758   7.395 -0.2850 -0.2285  0.1942
  196DOPC  H16X24340   1.551   0.786   7.493  0.0864  1.7250 -0.1706
  196DOPC  H16Y24341   1.623   0.651   7.380  2.1819  0.1450  1.6689
  196DOPC  C31724342   1.723   0.840   7.401 -0.3851 -0.6670 -0.5037
  196DOPC  H17X24343   1.784   0.821   7.309 -0.7589  1.2212 -1.1824
  196DOPC  H17Y24344   1.695   0.947   7.400 -0.3331 -0.6398 -2.1597
  196DOPC  C31824345   1.820   0.815   7.517  0.9396  0.2565 -0.7869
  196DOPC  H18X24346   1.878   0.721   7.509  0.5635 -0.2674  1.7828
  196DOPC  H18Y24347   1.893   0.896   7.539  1.0706 -0.1999  0.5970
  196DOPC  H18Z24348   1.757   0.816   7.609 -1.3486  2.9763 -2.2042
  197DOPC     N24349   2.284   5.897   5.136  0.6880 -0.3233 -0.6948
  197DOPC   C1224350   2.235   5.764   5.199  0.2739  0.3408  0.3330
  197DOPC  H12A24351   2.281   5.687   5.139 -0.3959  1.5961 -1.9068
  197DOPC  H12B24352   2.128   5.752   5.189  0.4510 -2.0847  0.7160
  197DOPC   C1324353   2.220   6.013   5.200 -0.5100  0.4271  0.1356
  197DOPC  H13A24354   2.280   6.101   5.181 -0.9872  0.6964 -0.1319
  197DOPC  H13B24355   2.124   6.035   5.157 -0.5355 -0.1508 -0.1145
  197DOPC  H13C24356   2.214   5.994   5.306 -2.0478 -2.1868 -0.3409
  197DOPC   C1424357   2.251   5.905   4.988 -0.0728 -0.1291  0.2811
  197DOPC  H14A24358   2.145   5.912   4.967  0.3537  0.5247 -1.8979
  197DOPC  H14B24359   2.300   5.993   4.949 -2.6122  1.3587  0.2074
  197DOPC  H14C24360   2.284   5.819   4.931 -2.1352 -0.2683 -0.7833
  197DOPC   C1524361   2.434   5.909   5.146  1.0536  0.3027 -0.6045
  197DOPC  H15A24362   2.473   5.822   5.095 -0.3696 -0.7155 -0.0171
  197DOPC  H15B24363   2.466   5.895   5.248  0.2939 -0.2629 -0.4342
  197DOPC  H15C24364   2.483   6.002   5.123  1.2377  0.3274 -0.1192
  197DOPC   C1124365   2.270   5.736   5.347 -0.1567 -0.2706 -0.3052
  197DOPC  H11A24366   2.256   5.628   5.367  0.8859 -0.1895  0.9916
  197DOPC  H11B24367   2.379   5.753   5.361 -0.4262  1.4000 -0.0134
  197DOPC     P24368   2.053   5.793   5.486  0.4386 -0.0747 -0.2144
  197DOPC   O1324369   2.002   5.667   5.446  0.4447  0.5766  0.9712
  197DOPC   O1424370   1.965   5.910   5.453 -0.0024 -0.0518 -0.0515
  197DOPC   O1224371   2.198   5.822   5.431  0.5527  0.0496 -0.3616
  197DOPC   O1124372   2.077   5.783   5.646  0.1988 -0.3284 -0.2389
  197DOPC    C124373   2.143   5.672   5.698  0.2387  0.6561 -0.4939
  197DOPC    HA24374   2.251   5.671   5.672  1.0840 -0.3132  2.6504
  197DOPC    HB24375   2.106   5.575   5.660 -3.7946  1.2831  1.2801
  197DOPC    C224376   2.117   5.662   5.850 -0.3750 -0.2741  0.3747
  197DOPC    HS24377   2.189   5.588   5.891  0.1006  0.1980  0.3984
  197DOPC   O2124378   1.979   5.611   5.873 -0.0290 -0.2821  0.5865
  197DOPC   C2124379   1.964   5.483   5.864  0.2007 -0.2868 -0.0731
  197DOPC   O2224380   2.049   5.400   5.834 -0.2722  0.0951  0.2677
  197DOPC   C2224381   1.827   5.450   5.916  0.2503  0.8315 -0.4529
  197DOPC   H2R24382   1.770   5.447   5.821  0.1181 -1.7992 -0.3540
  197DOPC   H2S24383   1.775   5.528   5.976 -1.2309 -1.0916  0.8938
  197DOPC    C324384   2.145   5.791   5.928 -0.3922 -0.6394  0.5423
  197DOPC    HX24385   2.091   5.883   5.896  1.8431  1.0197  1.3028
  197DOPC    HY24386   2.251   5.823   5.925 -0.5433 -0.0225  1.5572
  197DOPC   O3124387   2.116   5.753   6.063 -0.9579  0.5012  0.5261
  197DOPC   C3124388   1.999   5.759   6.116  0.2991 -0.3030 -0.4618
  197DOPC   O3224389   1.895   5.807   6.078 -0.7491 -0.6528  0.4173
  197DOPC   C3224390   2.011   5.693   6.257 -0.2597 -0.4653  0.4653
  197DOPC   H2X24391   2.033   5.584   6.247 -0.1782 -0.3945 -0.2040
  197DOPC   H2Y24392   2.104   5.736   6.299 -0.7029  0.9308  0.0758
  197DOPC   C2324393   1.792   5.310   5.978  0.2519  0.6312 -1.1094
  197DOPC   H3R24394   1.858   5.238   5.926  3.5931  2.2830  0.5343
  197DOPC   H3S24395   1.689   5.271   5.963  0.6703 -1.3525  0.6956
  197DOPC   C2424396   1.815   5.318   6.127  0.4274 -0.3320  0.1659
  197DOPC   H4R24397   1.906   5.374   6.156 -0.2665 -0.0475  1.9409
  197DOPC   H4S24398   1.841   5.213   6.156 -0.2658 -0.2119  1.2944
  197DOPC   C2524399   1.698   5.372   6.209 -0.0405 -0.5314  0.1408
  197DOPC   H5R24400   1.610   5.309   6.184  0.8751 -1.2454 -1.4173
  197DOPC   H5S24401   1.663   5.470   6.171 -2.5460 -1.2134  0.4968
  197DOPC   C2624402   1.729   5.372   6.358  0.3773 -0.4311  0.0164
  197DOPC   H6R24403   1.807   5.450   6.376  0.3497  0.3448 -2.8633
  197DOPC   H6S24404   1.772   5.275   6.391  0.0671 -1.4797 -2.5060
  197DOPC   C2724405   1.602   5.406   6.439  0.0634  0.2020 -0.2240
  197DOPC   H7R24406   1.525   5.334   6.403  1.1089 -0.5341 -1.0227
  197DOPC   H7S24407   1.560   5.504   6.408 -0.8229 -0.0465  0.1489
  197DOPC   C2824408   1.621   5.416   6.592 -0.0273  0.2707 -0.2140
  197DOPC   H8R24409   1.552   5.489   6.640  0.8909  0.3414  1.0575
  197DOPC   H8S24410   1.722   5.458   6.612 -0.8676  2.3987 -0.2133
  197DOPC   C2924411   1.620   5.286   6.671  0.4191  0.4178  0.3058
  197DOPC   H9R24412   1.708   5.221   6.660 -0.4497 -0.4661 -2.0587
  197DOPC  C21024413   1.516   5.225   6.739  0.3635  0.7389  0.3280
  197DOPC  H10R24414   1.529   5.132   6.796 -0.2050  1.4394  1.6456
  197DOPC  C21124415   1.372   5.270   6.738  0.4724 -0.3001 -0.1964
  197DOPC  H11R24416   1.318   5.212   6.660  0.2739 -1.5040  0.8002
  197DOPC  H11S24417   1.365   5.379   6.716 -1.1349 -0.2685  0.3303
  197DOPC  C21224418   1.300   5.239   6.873  0.0062 -0.4820 -0.2554
  197DOPC  H12R24419   1.315   5.132   6.901 -0.8914 -0.5595 -0.0281
  197DOPC  H12S24420   1.194   5.269   6.855  0.3298  1.1861  0.5206
  197DOPC  C21324421   1.343   5.320   6.997 -0.5505 -0.6027  0.3454
  197DOPC  H13R24422   1.317   5.424   6.965 -0.0277 -0.8224 -0.8660
  197DOPC  H13S24423   1.454   5.319   6.998 -0.5330 -0.9156 -0.7968
  197DOPC  C21424424   1.277   5.276   7.128 -0.4516 -0.2458  0.6668
  197DOPC  H14R24425   1.294   5.167   7.143 -0.6425 -0.2627  0.7638
  197DOPC  H14S24426   1.171   5.308   7.120 -0.0995  1.0950  1.1476
  197DOPC  C21524427   1.335   5.353   7.248  0.0026  0.5880  0.1802
  197DOPC  H15R24428   1.308   5.461   7.247  0.1063  0.6633  2.0000
  197DOPC  H15S24429   1.444   5.331   7.250 -0.4819 -2.1658  0.4507
  197DOPC  C21624430   1.276   5.288   7.373  0.3294 -0.0570  0.2203
  197DOPC  H16R24431   1.167   5.301   7.383  0.3107 -0.0995  0.0715
  197DOPC  H16S24432   1.326   5.345   7.455  0.5728 -0.2844  0.2329
  197DOPC  C21724433   1.298   5.139   7.402 -1.0100 -0.4360  0.7161
  197DOPC  H17R24434   1.408   5.122   7.396 -0.4055  3.0849 -0.3935
  197DOPC  H17S24435   1.252   5.078   7.322  0.5654 -0.1209 -0.4566
  197DOPC  C21824436   1.240   5.100   7.535 -0.8127 -0.0845 -0.5964
  197DOPC  H18R24437   1.129   5.108   7.539 -0.7251  1.3160 -0.4859
  197DOPC  H18S24438   1.279   5.175   7.607 -1.1166 -1.8126  1.4519
  197DOPC  H18T24439   1.258   4.997   7.571 -1.1177  0.2792  0.6315
  197DOPC   C3324440   1.897   5.736   6.353  0.3564  0.4185  0.4426
  197DOPC   H3X24441   1.805   5.686   6.317  2.5457 -1.4303 -3.2088
  197DOPC   H3Y24442   1.887   5.847   6.346  2.0910  0.5237 -1.2345
  197DOPC   C3424443   1.922   5.699   6.497  0.8261 -0.7195 -0.5218
  197DOPC   H4X24444   2.021   5.741   6.524 -0.0919  1.7028 -0.6543
  197DOPC   H4Y24445   1.922   5.590   6.519  2.0992 -0.6527 -0.1263
  197DOPC   C3524446   1.814   5.756   6.591  0.7735  0.2844 -0.1402
  197DOPC   H5X24447   1.718   5.719   6.549 -0.6036  0.9601  2.2175
  197DOPC   H5Y24448   1.815   5.867   6.585 -2.2066  0.4216  0.4817
  197DOPC   C3624449   1.824   5.721   6.739 -0.8698  0.2837  0.4708
  197DOPC   H6X24450   1.805   5.612   6.746 -1.5125  0.4487  1.5155
  197DOPC   H6Y24451   1.923   5.747   6.780  0.3678 -1.2684 -1.3612
  197DOPC   C3724452   1.714   5.797   6.812 -0.4056  0.8331  0.1878
  197DOPC   H7X24453   1.735   5.902   6.782  1.2837  1.0160  1.8174
  197DOPC   H7Y24454   1.619   5.770   6.762  0.8523  0.2114 -2.0207
  197DOPC   C3824455   1.709   5.762   6.954  0.2019  0.0690 -0.5116
  197DOPC   H8X24456   1.809   5.759   7.004 -1.2703 -2.4377  2.6668
  197DOPC   H8Y24457   1.675   5.656   6.967 -1.2294  0.8404  3.7870
  197DOPC   C3924458   1.616   5.853   7.023  0.8151 -0.0001 -0.4037
  197DOPC   H9X24459   1.651   5.956   7.042 -1.9658  0.7024  1.6248
  197DOPC  C31024460   1.494   5.828   7.078 -0.4423  0.1988 -0.2329
  197DOPC  H10X24461   1.453   5.908   7.141  1.8621  3.2921 -2.3998
  197DOPC  C31124462   1.419   5.699   7.059  0.4488  0.4461 -0.1191
  197DOPC  H11X24463   1.464   5.624   7.128 -4.1283 -1.4915  1.1673
  197DOPC  H11Y24464   1.421   5.668   6.953 -0.5035  1.0459 -0.3200
  197DOPC  C31224465   1.272   5.716   7.093 -0.1147  0.4597 -0.5350
  197DOPC  H12X24466   1.231   5.613   7.103  3.6291 -1.1945 -0.3979
  197DOPC  H12Y24467   1.213   5.767   7.014  0.1811  2.0824  0.2379
  197DOPC  C31324468   1.243   5.767   7.237 -0.1234  0.6123  0.3266
  197DOPC  H13X24469   1.309   5.704   7.301  0.7695  0.7234 -0.4697
  197DOPC  H13Y24470   1.280   5.871   7.249  0.1829  0.4926  0.4339
  197DOPC  C31424471   1.099   5.764   7.286 -0.8015 -0.3115 -0.5006
  197DOPC  H14X24472   1.042   5.848   7.242 -0.4153  1.5565  2.3448
  197DOPC  H14Y24473   1.050   5.669   7.255 -0.8202 -0.8482  1.1067
  197DOPC  C31524474   1.095   5.764   7.443 -0.3055  0.0803 -0.4899
  197DOPC  H15X24475   0.995   5.805   7.470 -0.4260 -1.0804  0.9389
  197DOPC  H15Y24476   1.178   5.832   7.471 -3.2104  2.2215  4.1387
  197DOPC  C31624477   1.107   5.629   7.504  0.5053  0.9350 -0.2018
  197DOPC  H16X24478   1.013   5.572   7.493  2.3108 -3.0546  2.4996
  197DOPC  H16Y24479   1.193   5.573   7.461 -0.1514 -1.5986  1.5703
  197DOPC  C31724480   1.140   5.620   7.653 -0.0583 -0.0837  0.7857
  197DOPC  H17X24481   1.242   5.661   7.668 -0.2616  0.3587  0.9753
  197DOPC  H17Y24482   1.066   5.677   7.714 -2.1857  0.1427 -1.8424
  197DOPC  C31824483   1.137   5.479   7.716  0.0339 -0.0005  0.3210
  197DOPC  H18X24484   1.196   5.397   7.670 -1.3987 -0.5357 -0.6554
  197DOPC  H18Y24485   1.173   5.491   7.820 -0.7626 -1.6971  0.8336
  197DOPC  H18Z24486   1.036   5.435   7.735 -0.2313  1.1335  1.7266
  198DOPC     N24487   6.396   5.760   4.873  0.1697  0.7436 -0.0429
  198DOPC   C1224488   6.464   5.793   5.002  0.1940 -0.2472  0.3245
  198DOPC  H12A24489   6.540   5.864   4.973 -1.6772  1.6731 -0.1366
  198DOPC  H12B24490   6.509   5.704   5.044  1.0261 -0.8057 -1.6652
  198DOPC   C1324491   6.332   5.874   4.801 -0.1083 -0.5607 -0.2818
  198DOPC  H13A24492   6.276   5.934   4.872  1.6258 -1.9483  2.4140
  198DOPC  H13B24493   6.411   5.938   4.764 -0.0997 -0.4384 -0.0560
  198DOPC  H13C24494   6.273   5.841   4.717  0.0332  0.0143 -0.6108
  198DOPC   C1424495   6.290   5.655   4.893  0.3608  0.6086 -0.5879
  198DOPC  H14A24496   6.320   5.558   4.930  0.9578  1.7411  2.1481
  198DOPC  H14B24497   6.207   5.680   4.957  0.4354 -1.3929  0.3687
  198DOPC  H14C24498   6.240   5.636   4.799  0.1266 -1.2760 -0.1285
  198DOPC   C1524499   6.492   5.692   4.783 -0.8328  0.2205 -0.3343
  198DOPC  H15A24500   6.591   5.735   4.777  0.4139 -2.4695 -0.5949
  198DOPC  H15B24501   6.464   5.679   4.680  2.7265  0.0509 -1.3917
  198DOPC  H15C24502   6.523   5.596   4.822  1.0476 -0.2715 -2.8058
  198DOPC   C1124503   6.374   5.860   5.113 -0.4446 -0.7743 -0.0509
  198DOPC  H11A24504   6.284   5.794   5.112 -0.2498 -1.0439  0.0561
  198DOPC  H11B24505   6.420   5.848   5.214  0.1742  1.5904 -0.0041
  198DOPC     P24506   6.484   6.090   5.087  0.0395 -0.6262  0.5007
  198DOPC   O1324507   6.449   6.209   5.008 -0.7185 -0.4201 -0.1134
  198DOPC   O1424508   6.603   6.016   5.052  0.2671 -0.3962  0.0791
  198DOPC   O1224509   6.352   5.993   5.079  0.7970 -0.1544  0.1495
  198DOPC   O1124510   6.484   6.129   5.246 -0.1760 -0.2633  0.6075
  198DOPC    C124511   6.354   6.131   5.312 -0.2879  0.6627  0.4079
  198DOPC    HA24512   6.349   6.032   5.363  0.1309  0.1089 -0.6052
  198DOPC    HB24513   6.269   6.136   5.241  0.2091  0.7504 -0.1903
  198DOPC    C224514   6.327   6.237   5.429 -0.1934  0.2412 -0.2089
  198DOPC    HS24515   6.319   6.332   5.372 -2.2196  0.4824  0.3914
  198DOPC   O2124516   6.439   6.236   5.521  0.1049  0.0330 -0.0238
  198DOPC   C2124517   6.446   6.350   5.587  0.0531  0.9879 -0.2121
  198DOPC   O2224518   6.383   6.449   5.559 -0.1409 -0.3527 -0.0307
  198DOPC   C2224519   6.550   6.334   5.701 -0.6891 -0.5594 -0.0112
  198DOPC   H2R24520   6.654   6.358   5.668  0.2758 -3.3662  0.6659
  198DOPC   H2S24521   6.548   6.227   5.733  0.1397 -0.0504  1.8575
  198DOPC    C324522   6.201   6.199   5.506  0.3413 -0.4491  0.5503
  198DOPC    HX24523   6.221   6.098   5.547 -1.1683 -1.8951 -2.0003
  198DOPC    HY24524   6.116   6.177   5.437  0.4935  0.1755  0.1500
  198DOPC   O3124525   6.167   6.287   5.614  0.3607  0.7698  0.0694
  198DOPC   C3124526   6.061   6.368   5.615 -0.1701  0.3612  0.2041
  198DOPC   O3224527   5.979   6.369   5.530 -0.1036  0.7148 -0.2295
  198DOPC   C3224528   6.071   6.478   5.711 -0.7199  0.0981  0.7392
  198DOPC   H2X24529   6.180   6.492   5.722 -0.6885  1.0630 -0.5694
  198DOPC   H2Y24530   6.032   6.571   5.665  2.1553 -0.0749 -2.3526
  198DOPC   C2324531   6.518   6.427   5.816 -0.3870  0.7211  0.0425
  198DOPC   H3R24532   6.485   6.528   5.782  1.7348  0.7227 -2.3383
  198DOPC   H3S24533   6.614   6.423   5.871 -0.9739  0.9890  1.1219
  198DOPC   C2424534   6.413   6.360   5.902  0.5886 -0.4257 -0.0149
  198DOPC   H4R24535   6.463   6.270   5.945  0.9142 -1.1781 -1.8759
  198DOPC   H4S24536   6.329   6.323   5.840  1.7845 -0.8164 -1.4643
  198DOPC   C2524537   6.372   6.458   6.019 -0.8133  0.0174 -0.0360
  198DOPC   H5R24538   6.267   6.442   6.051 -0.2132 -0.6583  1.7149
  198DOPC   H5S24539   6.366   6.556   5.967 -1.5690  0.0288  0.0617
  198DOPC   C2624540   6.472   6.460   6.134  0.5408 -0.2763 -0.5135
  198DOPC   H6R24541   6.459   6.551   6.197  2.1942  0.2715 -0.9107
  198DOPC   H6S24542   6.579   6.459   6.104  0.5963  0.4196 -0.3469
  198DOPC   C2724543   6.452   6.338   6.232 -0.2429  0.1243 -1.0414
  198DOPC   H7R24544   6.491   6.245   6.185  0.1347 -0.6872  0.8069
  198DOPC   H7S24545   6.343   6.330   6.249 -0.0600  1.4757  1.1813
  198DOPC   C2824546   6.518   6.346   6.369 -0.6677  0.3815 -0.1472
  198DOPC   H8R24547   6.507   6.447   6.412  3.3079  0.6644  0.6099
  198DOPC   H8S24548   6.627   6.350   6.349 -1.0984  1.3713 -2.7853
  198DOPC   C2924549   6.489   6.234   6.463  0.4300  0.0334  0.1130
  198DOPC   H9R24550   6.446   6.149   6.410 -1.3867  0.9726  0.0201
  198DOPC  C21024551   6.514   6.222   6.595  0.1476  0.1422  0.0806
  198DOPC  H10R24552   6.491   6.125   6.642  1.5237  0.0852  0.6931
  198DOPC  C21124553   6.574   6.332   6.674 -0.4396 -0.5404  0.2493
  198DOPC  H11R24554   6.528   6.428   6.643  0.5123  0.0767  0.6849
  198DOPC  H11S24555   6.684   6.333   6.655 -0.7305  1.5876 -1.7337
  198DOPC  C21224556   6.553   6.316   6.827 -0.2038  0.8143  0.0164
  198DOPC  H12R24557   6.627   6.370   6.889 -0.2031  0.2425  0.5291
  198DOPC  H12S24558   6.554   6.208   6.855  0.7633  0.5858 -0.8412
  198DOPC  C21324559   6.414   6.365   6.884 -0.5972  0.1656  0.4608
  198DOPC  H13R24560   6.338   6.338   6.808  0.5920 -2.0859  0.0036
  198DOPC  H13S24561   6.421   6.476   6.888 -0.1743  0.1486  0.2729
  198DOPC  C21424562   6.382   6.298   7.014 -0.5801  0.5610  0.1074
  198DOPC  H14R24563   6.466   6.332   7.079 -0.1742  0.5395 -0.4045
  198DOPC  H14S24564   6.368   6.188   7.007 -1.8722  0.5725  1.7852
  198DOPC  C21524565   6.251   6.360   7.069 -0.0703 -0.0556 -0.2025
  198DOPC  H15R24566   6.176   6.337   6.991 -1.4920  0.7671  0.8843
  198DOPC  H15S24567   6.266   6.470   7.071 -1.1516  0.1184 -1.0420
  198DOPC  C21624568   6.208   6.309   7.212  0.5935 -0.6422  0.0627
  198DOPC  H16R24569   6.169   6.206   7.203 -0.9829 -0.1852  1.2223
  198DOPC  H16S24570   6.121   6.369   7.246  1.5542  1.4612 -0.9784
  198DOPC  C21724571   6.328   6.308   7.313 -0.3010 -0.0036  0.4246
  198DOPC  H17R24572   6.409   6.246   7.268 -1.5817 -0.3308 -1.5449
  198DOPC  H17S24573   6.308   6.260   7.411 -1.2562 -0.4167  0.0332
  198DOPC  C21824574   6.378   6.444   7.345  0.1415 -0.3536 -0.7381
  198DOPC  H18R24575   6.419   6.495   7.256  0.5314 -1.4561 -1.2083
  198DOPC  H18S24576   6.461   6.445   7.418 -0.0792  0.3898 -0.4905
  198DOPC  H18T24577   6.296   6.505   7.389  0.3604  0.0489 -0.8840
  198DOPC   C3324578   6.017   6.452   5.850  0.3688 -0.0994  0.0503
  198DOPC   H3X24579   6.084   6.375   5.895  1.8588  1.5577  0.7550
  198DOPC   H3Y24580   5.911   6.418   5.851  0.6485 -1.0335  1.0658
  198DOPC   C3424581   6.022   6.567   5.947 -0.4954 -0.0584  0.1082
  198DOPC   H4X24582   5.963   6.655   5.914  1.8335  0.7398 -2.2919
  198DOPC   H4Y24583   6.126   6.605   5.962 -0.4558  0.2853 -0.9699
  198DOPC   C3524584   5.979   6.517   6.091  0.2738 -0.0530 -0.3184
  198DOPC   H5X24585   6.017   6.418   6.126 -1.7606 -2.3586 -3.8832
  198DOPC   H5Y24586   5.874   6.481   6.085  0.0229  0.6784 -0.3609
  198DOPC   C3624587   5.992   6.627   6.198  0.3953 -0.7248 -0.3206
  198DOPC   H6X24588   5.968   6.726   6.153  1.3425 -0.0282  0.6654
  198DOPC   H6Y24589   5.914   6.608   6.275  1.4786  1.5222  1.4423
  198DOPC   C3724590   6.122   6.624   6.276 -0.0261  0.2345  0.7761
  198DOPC   H7X24591   6.198   6.578   6.209  0.3742  0.4898  1.0533
  198DOPC   H7Y24592   6.147   6.732   6.279  2.3500 -0.2962  2.1923
  198DOPC   C3824593   6.109   6.564   6.414 -0.2832 -0.7406 -0.1298
  198DOPC   H8X24594   6.112   6.454   6.399  0.9313 -0.6510 -0.6711
  198DOPC   H8Y24595   6.016   6.589   6.469  0.3409 -1.7317  1.4349
  198DOPC   C3924596   6.231   6.609   6.494  0.3943 -1.0100  0.6179
  198DOPC   H9X24597   6.320   6.562   6.449 -0.2733 -1.5000 -0.2244
  198DOPC  C31024598   6.228   6.686   6.602 -0.5269  0.4219 -0.5173
  198DOPC  H10X24599   6.325   6.716   6.646  0.6703  0.0190 -2.7374
  198DOPC  C31124600   6.110   6.735   6.684  0.3864 -0.0144  0.2792
  198DOPC  H11X24601   6.011   6.708   6.640  0.3031  2.6015 -1.3341
  198DOPC  H11Y24602   6.119   6.845   6.674 -0.8838  0.2177  1.4170
  198DOPC  C31224603   6.113   6.703   6.837 -0.1806  0.0804  0.1923
  198DOPC  H12X24604   6.209   6.737   6.883 -1.0738  0.0425  2.1807
  198DOPC  H12Y24605   6.106   6.593   6.846  1.1747 -0.5818 -4.1115
  198DOPC  C31324606   6.002   6.765   6.918 -0.3796  0.5056 -0.2253
  198DOPC  H13X24607   6.016   6.875   6.917 -1.1533  0.6773  2.2988
  198DOPC  H13Y24608   5.910   6.739   6.861 -0.4790 -3.6492  1.4990
  198DOPC  C31424609   5.973   6.709   7.062  0.4467  0.2038 -0.3154
  198DOPC  H14X24610   5.878   6.757   7.095 -0.1088 -1.1317  0.0984
  198DOPC  H14Y24611   5.956   6.600   7.054 -0.3514 -0.0411  3.1654
  198DOPC  C31524612   6.083   6.723   7.170 -0.3276 -0.8763  0.1429
  198DOPC  H15X24613   6.124   6.826   7.161  0.3937 -1.1868 -0.2142
  198DOPC  H15Y24614   6.172   6.665   7.138 -0.1572  0.7085 -2.5550
  198DOPC  C31624615   6.044   6.708   7.318 -0.2807 -0.2427  0.0726
  198DOPC  H16X24616   6.010   6.605   7.342  1.0216 -0.5498  0.6676
  198DOPC  H16Y24617   6.141   6.706   7.371 -0.2407  1.0567  0.0886
  198DOPC  C31724618   5.949   6.810   7.380  0.3542 -0.8820 -0.2374
  198DOPC  H17X24619   5.988   6.913   7.391 -2.7951  0.2838  1.2952
  198DOPC  H17Y24620   5.866   6.824   7.307 -0.6625  2.8117  1.3851
  198DOPC  C31824621   5.908   6.761   7.516  0.1180  0.0878 -0.4186
  198DOPC  H18X24622   5.840   6.836   7.561 -1.5692 -2.1358  1.0200
  198DOPC  H18Y24623   5.860   6.661   7.529 -0.2849  0.5328  1.8458
  198DOPC  H18Z24624   5.999   6.751   7.578  0.7730 -2.1697 -1.6135
  199DOPC     N24625   5.500   6.621   4.990 -0.0322 -0.2938 -0.3758
  199DOPC   C1224626   5.410   6.721   5.056  0.0481 -0.5214 -0.1028
  199DOPC  H12A24627   5.325   6.728   4.990  0.7946 -0.5579 -1.1026
  199DOPC  H12B24628   5.458   6.818   5.061  0.1768 -0.5388 -0.8102
  199DOPC   C1324629   5.635   6.607   5.049 -0.5564  0.1920  0.9786
  199DOPC  H13A24630   5.673   6.707   5.061 -0.4831  0.3346 -0.2550
  199DOPC  H13B24631   5.626   6.557   5.144  0.0291  0.2296  1.0600
  199DOPC  H13C24632   5.711   6.557   4.991  1.0902  0.4886  2.7668
  199DOPC   C1424633   5.529   6.669   4.849 -0.4138  0.2901  0.4467
  199DOPC  H14A24634   5.587   6.589   4.805  0.2928  0.6468  0.7145
  199DOPC  H14B24635   5.442   6.681   4.786 -0.0214 -2.0147 -0.6569
  199DOPC  H14C24636   5.597   6.752   4.843  1.5076 -1.2284  0.1911
  199DOPC   C1524637   5.430   6.490   4.996  0.2611 -0.0061  0.3712
  199DOPC  H15A24638   5.378   6.477   5.090  0.4542 -1.6980  0.2840
  199DOPC  H15B24639   5.488   6.399   4.986 -0.8415 -0.5758 -1.2843
  199DOPC  H15C24640   5.361   6.488   4.913  1.9226  0.7355 -1.0834
  199DOPC   C1124641   5.357   6.687   5.191 -0.1603  0.1103 -0.2795
  199DOPC  H11A24642   5.287   6.602   5.181  1.5190 -1.6353  1.7330
  199DOPC  H11B24643   5.434   6.656   5.265  0.6122  0.7165 -0.8039
  199DOPC     P24644   5.349   6.933   5.278 -0.0353  0.1388  0.3150
  199DOPC   O1324645   5.235   7.000   5.339 -0.7401 -0.4907  0.3206
  199DOPC   O1424646   5.433   6.989   5.172 -0.8277 -0.1937  0.1881
  199DOPC   O1224647   5.286   6.802   5.236 -0.2731 -0.1598  0.3569
  199DOPC   O1124648   5.445   6.905   5.400 -0.1727 -0.2410  0.3321
  199DOPC    C124649   5.406   6.829   5.511  0.2490 -0.3525  0.2292
  199DOPC    HA24650   5.374   6.728   5.480  0.6637 -0.4454  0.0914
  199DOPC    HB24651   5.334   6.890   5.569 -0.6341  1.5711 -2.6402
  199DOPC    C224652   5.532   6.824   5.597  0.0573  0.3014 -0.0434
  199DOPC    HS24653   5.618   6.796   5.533  1.3396  0.7987  1.4078
  199DOPC   O2124654   5.511   6.735   5.708  0.7383  0.1919 -0.4851
  199DOPC   C2124655   5.622   6.679   5.760 -0.4511 -0.5798 -0.0840
  199DOPC   O2224656   5.733   6.691   5.709 -0.1506 -0.1237 -0.4388
  199DOPC   C2224657   5.569   6.596   5.876 -0.0897  0.3715 -0.3600
  199DOPC   H2R24658   5.627   6.502   5.872 -1.3271 -0.4822  0.8881
  199DOPC   H2S24659   5.466   6.566   5.851  0.8002 -0.8699 -2.8170
  199DOPC    C324660   5.566   6.966   5.658 -0.5894 -0.0889 -0.8542
  199DOPC    HX24661   5.485   7.017   5.716  0.5072  0.7524 -0.0134
  199DOPC    HY24662   5.582   7.030   5.569  2.8081  0.5536  0.0682
  199DOPC   O3124663   5.697   6.966   5.719  0.3373  0.0788 -0.1720
  199DOPC   C3124664   5.707   6.985   5.848 -0.3693 -0.4980 -0.7827
  199DOPC   O3224665   5.614   7.002   5.923  0.1729  0.4352  0.0227
  199DOPC   C3224666   5.847   6.996   5.897  0.2033  0.0270 -0.0492
  199DOPC   H2X24667   5.916   6.964   5.816 -0.3656  0.5007 -0.7357
  199DOPC   H2Y24668   5.859   7.106   5.907 -1.8171  0.4511 -1.6423
  199DOPC   C2324669   5.582   6.661   6.019 -0.1271  0.1109  1.3493
  199DOPC   H3R24670   5.549   6.767   6.020 -0.0517  0.1842 -0.3392
  199DOPC   H3S24671   5.691   6.652   6.038  0.6736  0.9471 -2.1104
  199DOPC   C2424672   5.503   6.583   6.123 -0.2002  0.6421  0.5280
  199DOPC   H4R24673   5.548   6.483   6.136  0.9035  1.1055  0.4292
  199DOPC   H4S24674   5.405   6.565   6.075  0.0327 -0.1072  0.3176
  199DOPC   C2524675   5.476   6.658   6.254  0.4844  0.1367  0.1650
  199DOPC   H5R24676   5.374   6.630   6.285  0.2046 -0.3510 -1.1416
  199DOPC   H5S24677   5.480   6.768   6.239  2.1686  0.2547  1.1373
  199DOPC   C2624678   5.567   6.615   6.368  0.1123  0.4269 -0.4283
  199DOPC   H6R24679   5.672   6.614   6.334 -0.2629 -1.2549 -1.6428
  199DOPC   H6S24680   5.544   6.514   6.409 -1.2990  0.4680 -1.0883
  199DOPC   C2724681   5.553   6.708   6.491 -0.4148  0.5149 -0.3687
  199DOPC   H7R24682   5.450   6.700   6.532 -0.9274  0.6149 -1.5843
  199DOPC   H7S24683   5.570   6.813   6.457  0.6706  0.4721  0.0129
  199DOPC   C2824684   5.654   6.686   6.612 -0.8573 -0.0023 -0.3726
  199DOPC   H8R24685   5.620   6.756   6.692 -1.0125  0.3873 -0.7739
  199DOPC   H8S24686   5.755   6.719   6.580  0.4011 -1.5498  1.7474
  199DOPC   C2924687   5.673   6.541   6.653  0.3068  0.4667 -0.6995
  199DOPC   H9R24688   5.758   6.487   6.610  1.8436  0.9411  1.6070
  199DOPC  C21024689   5.584   6.467   6.714 -0.2123 -0.0298  0.3852
  199DOPC  H10R24690   5.611   6.363   6.741  1.5735 -0.0832 -1.3556
  199DOPC  C21124691   5.454   6.508   6.765  0.6102  0.0028 -0.2824
  199DOPC  H11R24692   5.380   6.451   6.704  2.2480 -0.7397 -1.6312
  199DOPC  H11S24693   5.440   6.615   6.740 -1.6379 -0.6801 -2.3882
  199DOPC  C21224694   5.435   6.481   6.921 -0.4658  0.0132  0.8382
  199DOPC  H12R24695   5.483   6.383   6.943 -1.2206 -1.0867 -1.9641
  199DOPC  H12S24696   5.328   6.460   6.945 -0.2380 -1.4227  0.7136
  199DOPC  C21324697   5.491   6.590   7.012 -0.6299 -0.1504 -0.7116
  199DOPC  H13R24698   5.446   6.683   6.972 -1.2023 -0.0853  0.0701
  199DOPC  H13S24699   5.599   6.587   6.986 -0.5754 -1.6068 -0.4176
  199DOPC  C21424700   5.452   6.571   7.159  0.1458 -0.0769 -0.2948
  199DOPC  H14R24701   5.497   6.481   7.206  1.3089  0.3789 -0.5038
  199DOPC  H14S24702   5.342   6.560   7.172 -0.0429  0.9864 -0.8794
  199DOPC  C21524703   5.488   6.700   7.239 -0.4625  0.1488 -0.3222
  199DOPC  H15R24704   5.443   6.793   7.200  0.7736  1.0527  0.3248
  199DOPC  H15S24705   5.595   6.715   7.214 -0.1620  0.3225  0.9880
  199DOPC  C21624706   5.477   6.677   7.392 -0.2221  0.4388 -0.4555
  199DOPC  H16R24707   5.526   6.581   7.419  3.7552  2.5041  0.4543
  199DOPC  H16S24708   5.370   6.664   7.418 -0.5534 -0.5582 -2.1297
  199DOPC  C21724709   5.550   6.790   7.470  0.2521  0.2357  0.4771
  199DOPC  H17R24710   5.643   6.735   7.497  0.9622  2.0114  1.8577
  199DOPC  H17S24711   5.491   6.818   7.560 -0.9136 -0.4241 -0.0569
  199DOPC  C21824712   5.593   6.921   7.395  0.4012 -0.5211  0.2606
  199DOPC  H18R24713   5.646   6.990   7.465  4.1554 -0.6221 -2.1625
  199DOPC  H18S24714   5.500   6.961   7.349  0.0175  0.4361  1.7862
  199DOPC  H18T24715   5.668   6.892   7.319 -0.2504  2.1985 -1.5346
  199DOPC   C3324716   5.862   6.944   6.039 -0.3141 -0.8793 -0.3049
  199DOPC   H3X24717   5.972   6.938   6.044 -0.4092 -1.8042  1.7905
  199DOPC   H3Y24718   5.823   6.840   6.047  0.8330 -1.2083  1.3234
  199DOPC   C3424719   5.814   7.034   6.148  0.5233  0.5801 -0.3889
  199DOPC   H4X24720   5.703   7.041   6.156  0.5181  0.9119 -0.6922
  199DOPC   H4Y24721   5.853   7.136   6.127  2.2856 -0.0366 -0.2864
  199DOPC   C3524722   5.861   7.001   6.291 -0.1008  0.8999 -0.6385
  199DOPC   H5X24723   5.966   7.035   6.297  0.0501  0.2511  0.7870
  199DOPC   H5Y24724   5.853   6.891   6.307  1.7234  0.9980  1.3585
  199DOPC   C3624725   5.775   7.058   6.410  0.2205 -0.3316 -0.2422
  199DOPC   H6X24726   5.783   7.169   6.408  1.7677 -0.2818  2.8421
  199DOPC   H6Y24727   5.672   7.020   6.396 -0.1852  0.5611  0.2458
  199DOPC   C3724728   5.823   7.024   6.555  0.0854  0.5421 -0.0982
  199DOPC   H7X24729   5.809   6.914   6.558 -1.3493  0.7203  0.5999
  199DOPC   H7Y24730   5.929   7.053   6.567 -0.1705  1.1085  0.8995
  199DOPC   C3824731   5.748   7.096   6.667  0.1259 -0.1912 -0.3019
  199DOPC   H8X24732   5.759   7.203   6.640  1.0333 -0.5551 -1.4236
  199DOPC   H8Y24733   5.801   7.082   6.763 -0.2530  0.5652  0.0275
  199DOPC   C3924734   5.601   7.063   6.676 -0.3641  0.2146  0.3124
  199DOPC   H9X24735   5.559   7.073   6.575 -0.8637  0.4270  0.5335
  199DOPC  C31024736   5.546   7.026   6.790  0.2748  0.4972 -0.4369
  199DOPC  H10X24737   5.436   7.020   6.794  0.3024  0.0790 -0.3336
  199DOPC  C31124738   5.611   7.014   6.925  0.0490 -0.2827  0.3641
  199DOPC  H11X24739   5.684   7.098   6.931  0.8058 -0.7144 -1.8529
  199DOPC  H11Y24740   5.664   6.918   6.937 -0.1959 -0.5645 -0.6973
  199DOPC  C31224741   5.516   7.045   7.040  0.2869  0.4701  0.0060
  199DOPC  H12X24742   5.552   7.010   7.139 -0.8484 -4.7528 -1.1310
  199DOPC  H12Y24743   5.424   6.985   7.029  0.5252 -0.1814  1.3948
  199DOPC  C31324744   5.474   7.192   7.042  0.1159  0.6009 -0.6770
  199DOPC  H13X24745   5.569   7.250   7.041  0.8387 -0.5313 -1.9733
  199DOPC  H13Y24746   5.425   7.209   6.943  0.3987 -1.3423 -1.1983
  199DOPC  C31424747   5.379   7.226   7.155  0.4622  0.0081  0.0267
  199DOPC  H14X24748   5.318   7.314   7.124 -0.8697  0.0085  2.4028
  199DOPC  H14Y24749   5.305   7.145   7.175  2.0863 -1.9642 -1.4706
  199DOPC  C31524750   5.446   7.252   7.293  0.6101 -0.0602 -0.3209
  199DOPC  H15X24751   5.474   7.359   7.290 -0.0696  0.1131 -0.6250
  199DOPC  H15Y24752   5.536   7.188   7.303  0.2531 -0.7380 -1.2976
  199DOPC  C31624753   5.346   7.231   7.405  0.1022 -0.6135  0.6664
  199DOPC  H16X24754   5.254   7.276   7.362 -0.4040 -0.3394  1.9921
  199DOPC  H16Y24755   5.335   7.123   7.430 -0.7918 -0.7231 -0.1632
  199DOPC  C31724756   5.383   7.297   7.543 -0.8431  0.3615 -0.4813
  199DOPC  H17X24757   5.460   7.228   7.583 -3.5793 -1.2296  2.5485
  199DOPC  H17Y24758   5.431   7.394   7.516 -0.8777  0.2261 -1.0434
  199DOPC  C31824759   5.266   7.310   7.644  0.5874 -0.1640 -0.0706
  199DOPC  H18X24760   5.206   7.402   7.628  2.7687  1.3488  0.0116
  199DOPC  H18Y24761   5.203   7.218   7.634  2.0936 -1.0196 -2.6544
  199DOPC  H18Z24762   5.301   7.318   7.749 -0.5269 -0.6162  0.3619
  200DOPC     N24763   1.244   6.627   4.856 -0.4055  0.4079 -0.0959
  200DOPC   C1224764   1.303   6.681   4.983  0.3292 -0.0745  0.0490
  200DOPC  H12A24765   1.409   6.664   4.979  0.3425  0.0323 -0.0545
  200DOPC  H12B24766   1.263   6.631   5.070 -0.2038  2.0630  1.1253
  200DOPC   C1324767   1.320   6.682   4.739 -0.2184  1.2155  0.2720
  200DOPC  H13A24768   1.417   6.636   4.723 -0.7089  0.2244  0.0743
  200DOPC  H13B24769   1.271   6.654   4.648  1.5902  0.9170 -0.6616
  200DOPC  H13C24770   1.310   6.789   4.741 -1.4645  1.1051  1.7851
  200DOPC   C1424771   1.105   6.674   4.836  0.1435 -0.3390  0.4493
  200DOPC  H14A24772   1.030   6.644   4.907 -0.8453  0.5305 -0.1962
  200DOPC  H14B24773   1.093   6.781   4.846 -1.1720 -0.1486 -2.2107
  200DOPC  H14C24774   1.067   6.648   4.738 -2.6933 -2.5218  1.9748
  200DOPC   C1524775   1.237   6.477   4.850 -0.1379 -0.0683  0.2398
  200DOPC  H15A24776   1.168   6.439   4.923 -2.2517  0.1588 -1.5527
  200DOPC  H15B24777   1.336   6.436   4.868  0.4032  0.2033 -1.8718
  200DOPC  H15C24778   1.216   6.442   4.750 -0.2243  1.1255 -0.1759
  200DOPC   C1124779   1.284   6.834   5.010  0.4327  0.4821  0.2980
  200DOPC  H11A24780   1.176   6.859   5.003 -0.0802 -1.9033 -3.0226
  200DOPC  H11B24781   1.329   6.859   5.108 -1.1663  1.6305  0.7738
  200DOPC     P24782   1.495   6.937   4.898  0.4503  0.1207 -0.3327
  200DOPC   O1324783   1.532   7.011   4.773  0.6491 -0.1900 -0.6489
  200DOPC   O1424784   1.573   6.810   4.926  0.3246 -0.3458  0.6990
  200DOPC   O1224785   1.345   6.919   4.914  0.1965  0.2676  0.0720
  200DOPC   O1124786   1.518   7.017   5.028 -0.1407 -0.0414 -0.3699
  200DOPC    C124787   1.430   7.109   5.093  0.2052  0.4390  0.6317
  200DOPC    HA24788   1.404   7.075   5.196 -0.7383 -0.5508  0.0969
  200DOPC    HB24789   1.336   7.136   5.041  0.7369  2.7621  0.7599
  200DOPC    C224790   1.488   7.248   5.105 -0.4594  0.6710  0.6419
  200DOPC    HS24791   1.538   7.275   5.010 -0.1869  0.0757  0.6124
  200DOPC   O2124792   1.591   7.249   5.209  1.0055 -0.4259 -0.1113
  200DOPC   C2124793   1.674   7.349   5.203 -0.1250 -0.5941  0.0495
  200DOPC   O2224794   1.674   7.435   5.117 -0.3039  0.6162 -0.4112
  200DOPC   C2224795   1.781   7.339   5.324  0.1083  0.7154  0.7240
  200DOPC   H2R24796   1.878   7.321   5.274  0.6979 -1.3083  2.4420
  200DOPC   H2S24797   1.774   7.242   5.378  2.2645  0.5912  0.8631
  200DOPC    C324798   1.384   7.349   5.153 -0.3189  0.1314 -0.5327
  200DOPC    HX24799   1.298   7.345   5.083 -0.4518 -1.1557 -0.3282
  200DOPC    HY24800   1.432   7.448   5.144 -0.3193  0.1268 -0.5834
  200DOPC   O3124801   1.336   7.334   5.285 -0.7315  0.3340 -0.8070
  200DOPC   C3124802   1.231   7.398   5.324  0.6937  0.0076  0.7787
  200DOPC   O3224803   1.153   7.465   5.257  0.2283 -0.2407 -0.1792
  200DOPC   C3224804   1.227   7.393   5.481 -0.3322 -0.2174  0.8004
  200DOPC   H2X24805   1.320   7.345   5.518  0.0546  0.0014  0.1304
  200DOPC   H2Y24806   1.228   7.500   5.511 -0.4948  0.6881 -2.0827
  200DOPC   C2324807   1.751   7.459   5.409 -0.1697 -0.6140  0.0001
  200DOPC   H3R24808   1.736   7.547   5.343 -1.5830 -0.1359  0.9165
  200DOPC   H3S24809   1.833   7.488   5.479 -0.6823  0.5142  0.1584
  200DOPC   C2424810   1.623   7.453   5.495 -0.5579 -0.5731  0.2370
  200DOPC   H4R24811   1.541   7.426   5.426 -0.2211 -0.6592 -0.1292
  200DOPC   H4S24812   1.605   7.557   5.531  0.7163  0.2434 -1.3626
  200DOPC   C2524813   1.639   7.359   5.613  0.0928 -0.0534  0.6579
  200DOPC   H5R24814   1.740   7.372   5.656  0.2779  1.7714 -0.2011
  200DOPC   H5S24815   1.627   7.253   5.583 -0.8041 -0.9314  3.8014
  200DOPC   C2624816   1.547   7.393   5.732 -0.1958 -0.1471  0.2197
  200DOPC   H6R24817   1.442   7.395   5.696 -0.4799 -3.0847  0.6818
  200DOPC   H6S24818   1.560   7.492   5.781 -1.6154  0.2545 -0.1662
  200DOPC   C2724819   1.564   7.283   5.837  0.1856 -0.0596 -0.3459
  200DOPC   H7R24820   1.669   7.264   5.867 -0.6520 -2.6036  1.2916
  200DOPC   H7S24821   1.528   7.185   5.800 -1.9085 -0.6093  2.7374
  200DOPC   C2824822   1.492   7.310   5.976 -0.0818  0.0521  0.5036
  200DOPC   H8R24823   1.382   7.325   5.963  0.0028 -1.3115 -2.4808
  200DOPC   H8S24824   1.542   7.403   6.011 -0.3327 -0.0029  1.0176
  200DOPC   C2924825   1.530   7.211   6.079  0.4559 -0.4340 -0.0185
  200DOPC   H9R24826   1.569   7.119   6.032 -1.3600 -0.3666 -1.7721
  200DOPC  C21024827   1.526   7.239   6.216 -0.1796 -0.4984 -0.0182
  200DOPC  H10R24828   1.550   7.152   6.280  2.4399 -0.2014 -0.4942
  200DOPC  C21124829   1.484   7.374   6.280 -0.1236  0.5209  0.3184
  200DOPC  H11R24830   1.375   7.392   6.264 -0.5305 -2.2282 -0.4146
  200DOPC  H11S24831   1.526   7.465   6.232 -1.9896  0.6586 -1.1811
  200DOPC  C21224832   1.522   7.372   6.431 -0.2012 -0.3189 -0.3251
  200DOPC  H12R24833   1.499   7.472   6.474 -1.5038 -1.6455  2.2952
  200DOPC  H12S24834   1.629   7.358   6.455 -0.4706 -1.6086  0.1915
  200DOPC  C21324835   1.436   7.276   6.514 -0.2746 -1.2008 -0.0205
  200DOPC  H13R24836   1.462   7.173   6.481  1.3706 -0.5305 -0.8816
  200DOPC  H13S24837   1.329   7.301   6.494 -0.6825 -3.5152 -1.0632
  200DOPC  C21424838   1.457   7.289   6.667  0.8018 -0.5658  0.2508
  200DOPC  H14R24839   1.461   7.398   6.691  0.6007 -0.6680  0.7570
  200DOPC  H14S24840   1.558   7.252   6.698  0.3730  0.2708  2.9711
  200DOPC  C21524841   1.357   7.226   6.759  0.4268  0.4062  0.2088
  200DOPC  H15R24842   1.324   7.126   6.723 -1.0176  0.6881  0.6642
  200DOPC  H15S24843   1.270   7.295   6.754 -0.7128 -1.0595 -1.0414
  200DOPC  C21624844   1.415   7.218   6.896  0.0137  0.0590  0.2364
  200DOPC  H16R24845   1.447   7.317   6.936  1.1985  0.0495 -0.6297
  200DOPC  H16S24846   1.499   7.148   6.880  0.6391  0.4390  1.7400
  200DOPC  C21724847   1.334   7.154   7.006  0.4999 -0.5348  0.3994
  200DOPC  H17R24848   1.322   7.046   6.986 -0.6104 -0.7770  2.1011
  200DOPC  H17S24849   1.231   7.196   7.000 -0.1601 -2.1666 -0.1525
  200DOPC  C21824850   1.414   7.186   7.141 -0.3589  0.0436  1.0641
  200DOPC  H18R24851   1.502   7.118   7.152  0.4221  0.6503 -0.9521
  200DOPC  H18S24852   1.343   7.171   7.225 -0.2836 -1.0921  0.9448
  200DOPC  H18T24853   1.438   7.294   7.140 -1.9245  0.4065  1.1375
  200DOPC   C3324854   1.109   7.318   5.545 -0.1430  0.0244 -0.3005
  200DOPC   H3X24855   1.104   7.212   5.512  1.4642 -0.1705 -0.0314
  200DOPC   H3Y24856   1.010   7.363   5.523 -1.6044 -2.2594  1.1021
  200DOPC   C3424857   1.132   7.319   5.695 -0.2661 -0.3755  0.7242
  200DOPC   H4X24858   1.236   7.284   5.710  0.0553 -0.7189 -1.9252
  200DOPC   H4Y24859   1.069   7.235   5.731 -0.7471  0.2945  1.4805
  200DOPC   C3524860   1.124   7.457   5.758  0.2487  0.5468 -0.3671
  200DOPC   H5X24861   1.058   7.519   5.694  2.7242  0.8023 -2.8681
  200DOPC   H5Y24862   1.229   7.489   5.744 -0.1626  0.8743 -3.2615
  200DOPC   C3624863   1.091   7.455   5.907  0.5803 -0.5376 -0.2369
  200DOPC   H6X24864   0.985   7.426   5.924  0.4284  0.2609  0.2265
  200DOPC   H6Y24865   1.143   7.368   5.953 -0.5598 -1.1745 -0.1184
  200DOPC   C3724866   1.119   7.596   5.972 -0.1887 -0.4950 -0.3692
  200DOPC   H7X24867   1.212   7.642   5.931 -2.0205  2.5706 -1.4483
  200DOPC   H7Y24868   1.032   7.657   5.939  1.6634  3.1049  0.8976
  200DOPC   C3824869   1.126   7.595   6.125 -0.0576 -0.0439  0.3377
  200DOPC   H8X24870   1.170   7.691   6.158  2.2842 -0.7622 -0.5148
  200DOPC   H8Y24871   1.205   7.518   6.138 -2.4125 -2.9637 -1.4077
  200DOPC   C3924872   0.997   7.566   6.201 -0.3683 -0.1730  0.8076
  200DOPC   H9X24873   0.908   7.552   6.138 -0.2775  1.5527  0.2520
  200DOPC  C31024874   0.995   7.556   6.336 -0.0549  0.3656 -0.5034
  200DOPC  H10X24875   0.901   7.533   6.387 -0.9857  0.4136 -2.1303
  200DOPC  C31124876   1.108   7.568   6.438 -0.3571 -0.2863 -0.0880
  200DOPC  H11X24877   1.156   7.668   6.431 -1.6450  0.4826  1.4097
  200DOPC  H11Y24878   1.184   7.492   6.410 -0.9403 -1.1460  0.5885
  200DOPC  C31224879   1.060   7.549   6.580 -0.2470 -0.1142  0.8316
  200DOPC  H12X24880   0.971   7.614   6.592 -0.2145  0.4827 -1.5646
  200DOPC  H12Y24881   1.132   7.580   6.658 -1.5470  0.9452  1.6447
  200DOPC  C31324882   1.029   7.398   6.608  0.0967 -0.1625 -0.1954
  200DOPC  H13X24883   0.929   7.373   6.567 -1.4846  1.4008  2.4245
  200DOPC  H13Y24884   1.115   7.336   6.575  1.3897  0.7333  1.3267
  200DOPC  C31424885   1.010   7.376   6.762  0.2852 -0.3188  0.4875
  200DOPC  H14X24886   1.010   7.270   6.796  0.4484  0.0256  1.5935
  200DOPC  H14Y24887   1.093   7.429   6.814  0.3281  1.0624 -0.9142
  200DOPC  C31524888   0.893   7.460   6.822 -0.6171 -0.2271 -0.2932
  200DOPC  H15X24889   0.803   7.424   6.767  1.2726 -3.6344 -1.4448
  200DOPC  H15Y24890   0.908   7.570   6.814 -0.2693 -0.0498  2.2426
  200DOPC  C31624891   0.875   7.440   6.969  0.5519  0.3683 -0.5723
  200DOPC  H16X24892   0.767   7.457   6.989 -0.1112 -1.7677 -1.9590
  200DOPC  H16Y24893   0.884   7.333   6.998  2.3138  1.1603  2.1911
  200DOPC  C31724894   0.967   7.520   7.062  0.2409  0.0520  0.3962
  200DOPC  H17X24895   1.071   7.481   7.060  0.0616 -0.3995 -0.8812
  200DOPC  H17Y24896   0.987   7.623   7.027  0.4911  0.2521  1.1078
  200DOPC  C31824897   0.910   7.518   7.210 -1.1173 -0.5176  0.8455
  200DOPC  H18X24898   0.822   7.585   7.221  0.6213  1.6861  1.9591
  200DOPC  H18Y24899   0.883   7.416   7.245  0.3497 -0.7735  1.2679
  200DOPC  H18Z24900   0.992   7.548   7.278 -0.0586 -1.2230 -0.0961
  201SOD    SOD24901   3.711   0.116  11.163  0.0377 -0.2620 -0.2432
  202SOD    SOD24902   3.180   3.449   2.878  0.6995  0.2238 -0.1155
  203SOD    SOD24903   3.846   6.324  10.950  0.3441  0.3647  1.0934
  204SOD    SOD24904   0.853   3.225   5.108 -0.3141  0.0887 -0.2285
  205SOD    SOD24905   4.754   3.830  11.051 -0.2062 -0.2785  0.3613
  206SOD    SOD24906   6.636   3.889   4.691  0.7921 -0.2963 -0.1231
  207SOD    SOD24907   6.650   2.605   4.123  0.4856  0.3045  0.2199
  208SOD    SOD24908   2.214   0.341  12.070  0.3576 -0.0804 -0.2051
  209SOD    SOD24909   3.948   5.350   4.594  0.1380 -0.6035 -0.4544
  210SOD    SOD24910   1.029   2.935  11.216  0.0597 -0.2823  0.1298
  211SOD    SOD24911   6.015   3.867  11.950 -0.1063 -0.3412  0.3346
  212SOD    SOD24912   4.441   0.094   9.609 -0.1218  0.5851 -0.0896
  213SOD    SOD24913   2.326   5.987   2.522  0.3369 -0.0038  0.2005
  214SOD    SOD24914   5.522   1.901  10.770 -0.0770  0.4046  0.5063
  215SOD    SOD24915   0.738   0.588   9.705  0.0729  0.0029 -0.2127
  216SOD    SOD24916   1.337   4.010  12.150  0.0434  0.1381 -0.4454
  217SOD    SOD24917   4.938   6.746   3.840  0.1945  0.0373 -0.1871
  218SOD    SOD24918   2.008   3.444  11.321 -0.0244  0.0396 -0.4678
  219SOD    SOD24919   0.095   2.663  11.502  0.4480  0.3055 -0.0350
  220SOD    SOD24920   2.018   2.776   3.769  0.6297  0.1643  0.1992
  221SOD    SOD24921   6.448   0.864   2.958  0.0306 -0.2382 -0.4054
  222SOD    SOD24922   4.956   3.382  10.142  0.4937 -0.3313  0.0723
  223SOD    SOD24923   1.313   6.095   3.910 -0.0850 -0.2965  0.1320
  224SOD    SOD24924   5.992   2.670   3.126 -0.2419 -0.0120  0.1237
  225SOD    SOD24925   4.354   0.696   4.881 -0.2977 -0.8286  0.8836
  226SOD    SOD24926   0.913   5.163  10.626  0.0886  0.2127 -0.1647
  227CLA    CLA24927   3.756   4.940   3.803 -0.0715 -0.0150  0.2674
  228CLA    CLA24928   2.502   5.545   2.487 -0.0415 -0.0540  0.1185
  229CLA    CLA24929   5.287   5.847   2.247 -0.0308  0.3249  0.0739
  230CLA    CLA24930   6.617   4.320  11.761 -0.0621 -0.1168  0.4524
  231CLA    CLA24931   1.955   3.306  12.013 -0.4098 -0.4705 -0.2181
  232CLA    CLA24932   0.498   4.071  10.713  0.2585  0.4189 -0.1571
  233CLA    CLA24933   5.085   4.736  10.656 -0.2532 -0.4157 -0.1516
  234CLA    CLA24934   2.267   3.326  12.526  0.3877 -0.2198 -0.1433
  235CLA    CLA24935   4.389   1.997   4.077 -0.3013  0.1001 -0.1617
  236CLA    CLA24936   0.231   1.188  10.381 -0.2326  0.2130  0.8464
  237CLA    CLA24937   0.714   0.838  10.367 -0.0746  0.1233  0.0691
  238CLA    CLA24938   2.979   5.756   4.966  0.2207 -0.2652  0.1103
  239CLA    CLA24939   4.236   1.698   4.467 -0.0293 -0.0136  0.1929
  240CLA    CLA24940   3.975   3.526  11.341  0.1224  0.1211 -0.1426
  241CLA    CLA24941   5.188   5.337   4.488  0.1045 -0.3000  0.3044
  242CLA    CLA24942   0.919   6.677  12.589  0.2448  0.1476  0.7712
  243CLA    CLA24943   6.825   5.111   2.718 -0.1262 -0.2160  0.1868
  244CLA    CLA24944   1.755   0.153   4.079 -0.0831 -0.0134  0.2081
  245CLA    CLA24945   6.791   3.526   3.456 -0.1867 -0.1169  0.0442
  246CLA    CLA24946   4.115   6.691  11.208 -0.5045  0.0962 -0.1293
  247CLA    CLA24947   1.668   5.323   2.932 -0.2691 -0.2277 -0.0312
  248CLA    CLA24948   2.366   5.794   3.316  0.1582  0.2105 -0.3167
  249CLA    CLA24949   2.017   4.747   3.963 -0.3900 -0.2866  0.1241
  250CLA    CLA24950   2.873   0.819  11.580  0.1925 -0.2453  0.0417
  251CLA    CLA24951   0.775   4.543  11.127 -0.1824 -0.0831  0.0146
  252CLA    CLA24952   4.834   3.459   2.540 -0.0244  0.1024  0.4216
  253TIP3   OH224953   5.097   1.029  12.850 -0.4398 -0.9586  0.0273
  253TIP3    H124954   5.076   0.943  12.814  1.0964 -1.2046 -0.3615
  253TIP3    H224955   5.165   1.012  12.915 -1.0248 -0.1607  0.8708
  254TIP3   OH224956   6.413   3.615  10.456  0.0160 -0.2560 -0.2395
  254TIP3    H124957   6.412   3.566  10.538  0.3882 -1.1832 -0.7795
  254TIP3    H224958   6.320   3.626  10.434 -0.1999  1.8476  1.3516
  255TIP3   OH224959   4.828   3.949  10.180  1.6163 -0.0713  0.2813
  255TIP3    H124960   4.750   3.997  10.153  1.3436 -0.8713 -0.4110
  255TIP3    H224961   4.863   3.913  10.099  1.9162 -0.8686  0.7492
  256TIP3   OH224962   2.017   0.394  12.750  0.1285  0.4161 -0.1099
  256TIP3    H124963   2.032   0.333  12.821  0.5175 -0.5302 -0.9839
  256TIP3    H224964   1.930   0.371  12.716  0.8795 -0.6516 -1.3789
  257TIP3   OH224965   2.033   1.248  10.193  0.0242 -0.5569  0.0994
  257TIP3    H124966   2.022   1.192  10.116 -0.1719 -1.1208  0.5273
  257TIP3    H224967   2.121   1.286  10.183 -0.3289  0.0401 -0.8188
  258TIP3   OH224968   5.150   1.270  10.156 -0.1390  0.2132  0.2689
  258TIP3    H124969   5.156   1.331  10.083  2.0959  0.3892  0.5110
  258TIP3    H224970   5.089   1.311  10.217 -0.5493  0.9911 -0.6367
  259TIP3   OH224971   1.235   4.448  11.361  0.0295  0.3666 -0.2532
  259TIP3    H124972   1.188   4.382  11.413  0.5912  0.2635  0.1347
  259TIP3    H224973   1.318   4.405  11.338  0.4156  0.9537  0.0333
  260TIP3   OH224974   5.220   2.057  11.772 -0.2617  0.2054  0.0935
  260TIP3    H124975   5.151   2.011  11.819  0.0054  0.4811  0.7746
  260TIP3    H224976   5.298   2.004  11.785 -0.4287 -0.3825 -1.1138
  261TIP3   OH224977   6.192   5.096  12.712 -0.4794  0.2917  0.3843
  261TIP3    H124978   6.110   5.110  12.760 -1.4574 -2.0763 -0.4519
  261TIP3    H224979   6.165   5.066  12.626  1.2830 -0.1669 -0.0540
  262TIP3   OH224980   6.508   1.233  12.684 -0.3024 -0.2902 -0.3376
  262TIP3    H124981   6.546   1.314  12.649  0.3943  0.2470  1.5276
  262TIP3    H224982   6.437   1.263  12.741 -0.8535 -1.0898 -0.5794
  263TIP3   OH224983   2.290   4.187  10.786  0.4446  1.0541  0.2070
  263TIP3    H124984   2.360   4.191  10.852  1.9774 -0.8929 -1.1698
  263TIP3    H224985   2.267   4.094  10.782  1.3585  0.8562 -2.8845
  264TIP3   OH224986   3.209   5.424  12.462 -0.0910 -0.5134  0.3172
  264TIP3    H124987   3.124   5.466  12.472  0.7718  1.2583  0.7970
  264TIP3    H224988   3.252   5.473  12.391  0.5651 -1.3260  0.1300
  265TIP3   OH224989   5.902   6.688  11.176  0.1777  0.4742 -0.5190
  265TIP3    H124990   5.860   6.743  11.243 -1.1242 -1.1346  0.0292
  265TIP3    H224991   5.988   6.668  11.213 -0.2052  0.2939  0.2881
  266TIP3   OH224992   5.759   0.843  13.170 -0.5609 -0.0216  0.3385
  266TIP3    H124993   5.811   0.827  13.249 -0.9731  0.5759  0.7406
  266TIP3    H224994   5.822   0.837  13.098 -0.2725 -1.0645  0.6568
  267TIP3   OH224995   2.564   6.840  11.958 -0.4077  0.2590  0.0261
  267TIP3    H124996   2.472   6.813  11.960 -0.6051  0.9426  0.9898
  267TIP3    H224997   2.613   6.762  11.981 -0.7357 -0.1129 -0.5076
  268TIP3   OH224998   6.124   3.018  10.373  0.1650  0.4742 -0.1576
  268TIP3    H124999   6.157   3.020  10.463  1.7250 -0.9556 -0.6632
  268TIP3    H225000   6.190   2.970  10.324 -2.4343 -2.2280 -1.3412
  269TIP3   OH225001   6.569   5.184  11.398  0.0617  0.1549 -0.2108
  269TIP3    H125002   6.519   5.164  11.319  0.6288 -2.8686  0.0883
  269TIP3    H225003   6.503   5.204  11.464 -0.6347 -1.0242 -0.5204
  270TIP3   OH225004   3.010   1.134  11.610 -0.0822 -0.1210  0.0074
  270TIP3    H125005   3.051   1.150  11.525  0.6547 -1.4152  0.0922
  270TIP3    H225006   2.978   1.044  11.604 -0.3544 -0.0936  0.9633
  271TIP3   OH225007   2.566   4.172  11.279  0.2921 -0.1103  0.3815
  271TIP3    H125008   2.638   4.201  11.334 -0.8851  2.4729  0.7325
  271TIP3    H225009   2.579   4.220  11.197  0.9402 -2.4262 -0.9582
  272TIP3   OH225010   3.142   6.839  12.880  0.5918 -0.3586  0.3175
  272TIP3    H125011   3.125   6.908  12.815 -0.6587 -0.7591  0.2003
  272TIP3    H225012   3.212   6.875  12.934  0.9955  0.3806 -0.6642
  273TIP3   OH225013   0.446   6.036   9.999 -0.0276  0.2622  0.0892
  273TIP3    H125014   0.499   6.030   9.920 -0.6445  0.1238 -0.3217
  273TIP3    H225015   0.438   6.130  10.016 -0.4287  0.3143 -0.3814
  274TIP3   OH225016   2.768   0.301  10.897 -0.4026  0.0459 -0.2431
  274TIP3    H125017   2.764   0.396  10.912  1.2278 -0.0381  0.9880
  274TIP3    H225018   2.694   0.283  10.838 -0.7092  2.0787 -0.5596
  275TIP3   OH225019   2.429   4.044  12.769  0.1628  0.2033 -0.3620
  275TIP3    H125020   2.488   4.112  12.738  0.9073  0.1885  0.9675
  275TIP3    H225021   2.415   4.064  12.862  0.7078 -1.6673  0.1629
  276TIP3   OH225022   3.537   5.357  10.609 -0.2334  0.3042 -0.5151
  276TIP3    H125023   3.453   5.383  10.647 -0.5230  1.2940 -1.7695
  276TIP3    H225024   3.514   5.312  10.528  0.4395  0.4075 -0.7746
  277TIP3   OH225025   6.337   2.571  11.340  0.4220  0.4939  0.1456
  277TIP3    H125026   6.362   2.480  11.356  1.0558  0.8556  1.3655
  277TIP3    H225027   6.246   2.566  11.309  0.1233 -0.5049  1.0998
  278TIP3   OH225028   3.948   2.742  10.469 -0.2457  0.0365 -0.0288
  278TIP3    H125029   3.890   2.710  10.399 -1.1298  0.6713  0.4004
  278TIP3    H225030   3.922   2.692  10.546 -1.1048  1.2115  0.4646
  279TIP3   OH225031   6.285   2.932   9.646 -0.2138  0.1648  0.2293
  279TIP3    H125032   6.330   2.848   9.636  1.7785  1.3279 -1.4137
  279TIP3    H225033   6.252   2.952   9.558  1.1903  2.0102  0.0580
  280TIP3   OH225034   2.229   3.029  11.130  0.8624  0.1246  0.2965
  280TIP3    H125035   2.163   2.977  11.176 -0.3140 -2.1187 -3.4916
  280TIP3    H225036   2.310   3.012  11.178 -0.6845  0.7331  3.4289
  281TIP3   OH225037   3.492   5.727  12.744  0.0768 -0.1238 -0.0982
  281TIP3    H125038   3.525   5.654  12.796 -2.5239  0.1657  2.1495
  281TIP3    H225039   3.557   5.739  12.675  2.9855 -1.4828  2.2197
  282TIP3   OH225040   1.027   3.229  12.378 -0.2364  0.1319 -0.7532
  282TIP3    H125041   1.062   3.298  12.435  0.1464 -0.3838 -0.3443
  282TIP3    H225042   0.965   3.273  12.321 -2.7853  0.2556  1.8710
  283TIP3   OH225043   2.179   2.857  11.767 -0.3682  0.4382 -0.1657
  283TIP3    H125044   2.266   2.843  11.805 -1.7251 -0.0156  3.0815
  283TIP3    H225045   2.142   2.928  11.819 -3.0348 -1.3767  0.5782
  284TIP3   OH225046   1.788   2.290   3.096 -0.1406 -0.1006  0.2759
  284TIP3    H125047   1.742   2.251   3.022 -1.0317  0.6875  0.3943
  284TIP3    H225048   1.881   2.283   3.072 -0.4351  0.9539 -1.3554
  285TIP3   OH225049   2.772   1.008   5.116 -0.0429  0.2922  0.5931
  285TIP3    H125050   2.773   0.930   5.172 -2.7140  0.0814  0.4651
  285TIP3    H225051   2.770   1.081   5.177  0.4129  0.1992  0.7247
  286TIP3   OH225052   2.879   6.666   2.189  0.0815  0.3282  0.5102
  286TIP3    H125053   2.788   6.637   2.198  0.1598  0.2833  1.2012
  286TIP3    H225054   2.873   6.755   2.155 -0.2440  0.5734  1.1937
  287TIP3   OH225055   5.843   4.677   3.541 -0.4196  0.1251 -0.0619
  287TIP3    H125056   5.754   4.649   3.561  0.0069  0.0298  1.9423
  287TIP3    H225057   5.833   4.766   3.506 -1.3540 -0.3116 -0.9785
  288TIP3   OH225058   3.946   3.094   5.539  0.3441  0.5914  0.4543
  288TIP3    H125059   4.022   3.116   5.592  0.7355  1.1171 -0.3127
  288TIP3    H225060   3.874   3.142   5.580  0.6330  0.9504  0.5445
  289TIP3   OH225061   2.462   0.768   2.287  0.2640  0.0708 -0.5792
  289TIP3    H125062   2.451   0.860   2.262  1.4133  0.1776 -0.7361
  289TIP3    H225063   2.449   0.720   2.205 -0.4123  0.0813 -0.4823
  290TIP3   OH225064   3.627   0.485   4.386  0.1737 -0.5009  0.4620
  290TIP3    H125065   3.709   0.454   4.348 -0.2536 -0.2629 -0.7285
  290TIP3    H225066   3.632   0.581   4.380 -1.0606 -0.4835 -1.7497
  291TIP3   OH225067   0.785   0.706   3.856  0.3722 -0.6321 -0.3723
  291TIP3    H125068   0.776   0.693   3.762 -0.3817 -1.8361 -0.1477
  291TIP3    H225069   0.727   0.780   3.875 -0.5601 -1.2679 -0.6576
  292TIP3   OH225070   4.859   5.007   3.145 -0.0116  0.1559 -0.2113
  292TIP3    H125071   4.846   4.927   3.195 -1.2344 -0.4659 -1.4818
  292TIP3    H225072   4.890   5.071   3.210 -1.1032 -0.7413  1.2361
  293TIP3   OH225073   1.214   5.244   5.008  0.3266  0.1017 -0.0709
  293TIP3    H125074   1.164   5.187   5.066 -1.5205 -0.0374 -1.6987
  293TIP3    H225075   1.291   5.192   4.985 -0.5676 -1.1644 -0.3334
  294TIP3   OH225076   2.895   3.813   2.621 -0.2356  0.0624 -0.4371
  294TIP3    H125077   2.910   3.901   2.584  2.3042  0.2866  0.9002
  294TIP3    H225078   2.966   3.760   2.584  1.1307 -0.1963  2.3261
  295TIP3   OH225079   1.204   2.504   2.219 -0.1612 -0.3149  0.1507
  295TIP3    H125080   1.145   2.556   2.274  0.1512  1.1598 -0.8406
  295TIP3    H225081   1.247   2.569   2.163  0.6246 -1.6174 -0.7979
  296TIP3   OH225082   4.205   6.738   4.570 -0.3711 -0.2960 -0.2178
  296TIP3    H125083   4.236   6.828   4.569  1.6508 -0.8745  1.4674
  296TIP3    H225084   4.212   6.711   4.662 -1.7564 -1.9067 -0.5347
  297TIP3   OH225085   0.141   4.179   2.883  0.2142 -0.6289  0.2399
  297TIP3    H125086   0.106   4.261   2.918  0.2136 -0.6464  0.2809
  297TIP3    H225087   0.188   4.205   2.804 -1.2854 -0.8142 -0.7537
  298TIP3   OH225088   6.498   6.442   5.149  0.0447  0.0616 -0.2343
  298TIP3    H125089   6.458   6.362   5.118 -0.9634  0.4829 -0.0611
  298TIP3    H225090   6.584   6.415   5.183 -0.3341 -0.9557 -0.0564
  299TIP3   OH225091   6.694   1.562   3.016 -0.1488 -0.5102  0.4587
  299TIP3    H125092   6.713   1.472   3.041 -0.4212 -0.1782  1.9652
  299TIP3    H225093   6.670   1.557   2.924  0.6747 -1.8462  0.2992
  300TIP3   OH225094   4.758   2.904   2.307  0.0779 -0.1062  0.6077
  300TIP3    H125095   4.666   2.879   2.296 -0.5546  0.7420  3.3507
  300TIP3    H225096   4.758   2.999   2.301  0.7876 -0.0980  0.7164
  301TIP3   OH225097   4.733   4.411   2.780  0.2189  0.0615  0.0443
  301TIP3    H125098   4.699   4.451   2.860  0.6994  1.8809 -0.6128
  301TIP3    H225099   4.656   4.386   2.730 -0.1248  1.0421  0.0669
  302TIP3   OH225100   3.336   5.880   4.372  0.2671  0.3564  0.5312
  302TIP3    H125101   3.373   5.861   4.458 -1.6002  3.0570  2.0886
  302TIP3    H225102   3.245   5.851   4.379  0.3170 -0.1754 -0.8655
  303TIP3   OH225103   5.569   2.873   3.108  0.0647 -0.3403 -0.0055
  303TIP3    H125104   5.476   2.890   3.125 -0.0045  0.3311 -0.9709
  303TIP3    H225105   5.607   2.960   3.099  1.0362 -0.5710  1.5708
  304TIP3   OH225106   1.947   5.433   2.923  0.1561  0.0772 -0.5178
  304TIP3    H125107   1.859   5.396   2.921  0.1822 -0.0391  0.1823
  304TIP3    H225108   1.935   5.525   2.902 -0.1682  0.1199 -0.1434
  305TIP3   OH225109   2.150   6.129   4.338 -0.3503  0.0261 -0.3027
  305TIP3    H125110   2.089   6.077   4.392 -0.9889  0.9224 -0.1373
  305TIP3    H225111   2.230   6.077   4.336 -0.9294 -0.9125 -0.0441
  306TIP3   OH225112   0.648   6.031   3.303 -0.2249  0.3354 -0.5384
  306TIP3    H125113   0.589   5.996   3.236  1.3040  2.3447 -3.1088
  306TIP3    H225114   0.666   6.120   3.275  1.3920  0.9174  2.0033
  307TIP3   OH225115   1.223   4.659   3.405  0.2814  0.1123  0.4920
  307TIP3    H125116   1.153   4.624   3.461 -2.1758 -1.4243 -3.1911
  307TIP3    H225117   1.262   4.582   3.364  1.2914  1.2044 -0.6819
  308TIP3   OH225118   3.559   5.698   3.371  0.2159  0.4003  0.2665
  308TIP3    H125119   3.466   5.688   3.354  0.2495 -1.7405  1.1399
  308TIP3    H225120   3.601   5.683   3.287 -0.1293 -0.6054  0.2685
  309TIP3   OH225121   3.733   2.824   2.835  0.2008 -0.7662  0.5085
  309TIP3    H125122   3.731   2.786   2.923 -0.7598 -0.0579  0.8096
  309TIP3    H225123   3.651   2.873   2.829 -0.4478 -1.9705 -1.2972
  310TIP3   OH225124   1.324   1.623   2.848 -0.3707  0.3162  0.1949
  310TIP3    H125125   1.365   1.701   2.811 -1.8603  0.4717 -1.2885
  310TIP3    H225126   1.371   1.550   2.808 -0.4343  0.4806 -0.1861
  311TIP3   OH225127   3.472   2.974   3.859 -0.1087 -0.6406 -0.4433
  311TIP3    H125128   3.407   3.005   3.797  1.1266  2.5302 -0.3292
  311TIP3    H225129   3.549   2.955   3.806 -0.4780 -2.5463 -0.3596
  312TIP3   OH225130   5.489   5.740   3.021  0.1242 -0.0475  0.0483
  312TIP3    H125131   5.490   5.703   2.933 -0.5008 -0.1420  0.0738
  312TIP3    H225132   5.480   5.835   3.007 -0.0365 -0.0676  0.0080
  313TIP3   OH225133   3.917   0.480   4.320  0.4888 -0.2251 -0.2272
  313TIP3    H125134   3.887   0.540   4.252  2.6044  0.0354 -0.9933
  313TIP3    H225135   3.961   0.409   4.273 -0.6500 -1.6596  0.7456
  314TIP3   OH225136   4.619   4.599   4.712 -0.3664 -0.7021 -0.3691
  314TIP3    H125137   4.621   4.656   4.635 -1.6972  0.2904  0.2853
  314TIP3    H225138   4.620   4.510   4.676 -0.3399 -0.2634 -1.5003
  315TIP3   OH225139   4.095   3.008   3.989  0.4042 -0.0490 -0.3220
  315TIP3    H125140   4.101   3.103   3.975  0.1450  0.0148 -0.0035
  315TIP3    H225141   4.183   2.976   3.969  0.0413  0.0242 -2.1261
  316TIP3   OH225142   2.574   2.830   3.686 -0.0703 -0.5477  0.0456
  316TIP3    H125143   2.522   2.750   3.684 -0.8268 -0.0866  0.9905
  316TIP3    H225144   2.663   2.800   3.707 -0.9805 -0.8928  4.2947
  317TIP3   OH225145   4.369   2.341   4.249  0.3708  0.0183 -0.2819
  317TIP3    H125146   4.274   2.347   4.239  0.1370  0.1754  1.6534
  317TIP3    H225147   4.402   2.335   4.160 -1.4293  0.3206 -1.0135
  318TIP3   OH225148   3.135   6.032   5.440  0.5104  0.0232 -0.3530
  318TIP3    H125149   3.172   6.120   5.448  3.6239 -0.9582 -1.9438
  318TIP3    H225150   3.047   6.039   5.475  1.0655  3.4635  0.7177
  319TIP3   OH225151   0.506   4.266   2.193  1.0293  0.1263 -0.2023
  319TIP3    H125152   0.575   4.326   2.163  1.1649  0.1667  0.1870
  319TIP3    H225153   0.533   4.180   2.159  0.3359  0.4237 -1.5994
  320TIP3   OH225154   5.505   2.170   3.353 -0.0290  0.5276  0.2975
  320TIP3    H125155   5.449   2.211   3.287 -0.2579 -0.0236  0.1361
  320TIP3    H225156   5.445   2.116   3.405  0.4249 -0.5798 -0.2801
  321TIP3   OH225157   3.080   0.064   3.981 -0.0290  0.4856 -0.3294
  321TIP3    H125158   3.038   0.108   3.907 -1.6352  1.3579  1.0310
  321TIP3    H225159   3.069   0.125   4.054 -0.5755 -1.3186  1.1682
  322TIP3   OH225160   0.407   0.038   3.936  0.2155  0.3219  0.4226
  322TIP3    H125161   0.383   0.022   4.028 -0.6931  0.1712  0.1695
  322TIP3    H225162   0.447   0.125   3.937  1.5688 -0.2694  1.1833
  323TIP3   OH225163   2.369   6.142  10.027  0.6490  0.0105 -0.1419
  323TIP3    H125164   2.461   6.127  10.047  0.4846 -0.5940  0.1851
  323TIP3    H225165   2.322   6.100  10.099  0.1517  1.8666  0.6714
  324TIP3   OH225166   2.942   2.868  11.990  0.3351  0.4569  0.2349
  324TIP3    H125167   3.018   2.810  11.985 -0.2019 -0.5450  2.3851
  324TIP3    H225168   2.966   2.934  12.056 -0.0302  1.1393 -0.3046
  325TIP3   OH225169   1.286   1.208  11.785 -0.0196 -0.4055 -0.0326
  325TIP3    H125170   1.305   1.290  11.830  0.2286 -0.0730 -0.7410
  325TIP3    H225171   1.312   1.223  11.695 -0.5369 -1.0665 -0.2974
  326TIP3   OH225172   0.164   4.253   9.921 -0.0802  0.1286  0.1589
  326TIP3    H125173   0.129   4.166   9.902  3.5636 -1.0873 -1.9651
  326TIP3    H225174   0.118   4.311   9.861 -1.3537 -0.6091  0.3940
  327TIP3   OH225175   2.442   1.289  12.289 -0.0613  0.4608 -0.2852
  327TIP3    H125176   2.431   1.323  12.201  0.9476  0.9802 -0.2239
  327TIP3    H225177   2.517   1.231  12.284  0.4930  1.0954  0.3855
  328TIP3   OH225178   6.575   1.596  10.444  0.4158  0.3006  0.2638
  328TIP3    H125179   6.668   1.575  10.456  0.4796  0.9438  0.9793
  328TIP3    H225180   6.535   1.577  10.529 -0.4338 -1.5271 -0.4912
  329TIP3   OH225181   2.956   0.943   9.825  0.6723 -0.1342  0.1882
  329TIP3    H125182   3.005   0.943   9.908 -0.0874  1.0337  0.6600
  329TIP3    H225183   2.880   0.886   9.842  0.2863  0.4506  0.4473
  330TIP3   OH225184   2.257   1.737  12.429  0.1621 -0.4186 -0.0965
  330TIP3    H125185   2.283   1.820  12.471 -2.7887 -0.0213  1.1336
  330TIP3    H225186   2.318   1.673  12.464  0.3944  0.6553  1.5664
  331TIP3   OH225187   3.772   4.169  13.005  0.1805 -0.3837  0.7237
  331TIP3    H125188   3.836   4.235  12.977  0.2359 -0.4537  0.6841
  331TIP3    H225189   3.788   4.159  13.099 -1.0875  1.0315  1.1195
  332TIP3   OH225190   6.702   1.338  11.609 -0.5439 -0.6342 -0.6896
  332TIP3    H125191   6.623   1.286  11.617 -0.9328  0.2345  2.1030
  332TIP3    H225192   6.774   1.275  11.616 -0.9734 -1.1705 -1.0168
  333TIP3   OH225193   1.363   0.856  11.046  0.0556 -0.3220  0.3793
  333TIP3    H125194   1.274   0.884  11.022  0.2869  1.1975  1.1563
  333TIP3    H225195   1.414   0.867  10.966 -0.1376  0.3082  0.3385
  334TIP3   OH225196   5.138   6.296  11.578 -0.3185 -0.1661  0.1737
  334TIP3    H125197   5.154   6.235  11.650 -1.8774 -0.2859  0.4481
  334TIP3    H225198   5.054   6.337  11.599 -0.1134  0.8542 -0.8652
  335TIP3   OH225199   3.830   5.269  12.769  0.1504  0.5009 -0.0392
  335TIP3    H125200   3.894   5.340  12.767  0.1864  0.5396  1.4500
  335TIP3    H225201   3.809   5.258  12.862  1.7792 -2.8820  0.0717
  336TIP3   OH225202   3.046   6.791  11.404 -0.9006  0.3658  0.2016
  336TIP3    H125203   3.045   6.768  11.497  1.2322 -1.9556 -0.2515
  336TIP3    H225204   3.116   6.856  11.396  1.0071 -1.6533 -0.1502
  337TIP3   OH225205   1.056   3.838  10.859 -0.2415  0.1354  0.4085
  337TIP3    H125206   1.147   3.831  10.830  0.1274  0.6506  1.3735
  337TIP3    H225207   1.062   3.868  10.950 -1.3965  1.6119  0.0512
  338TIP3   OH225208   4.364   5.774  12.922  0.0473  0.2569 -0.1471
  338TIP3    H125209   4.293   5.820  12.877  2.1008  1.6675 -2.1303
  338TIP3    H225210   4.425   5.843  12.948  1.6445 -1.0446 -0.2715
  339TIP3   OH225211   1.417   5.647  11.347  0.0748 -0.1315  0.2642
  339TIP3    H125212   1.436   5.557  11.321 -0.0106 -0.2147  0.4777
  339TIP3    H225213   1.480   5.665  11.416 -0.6865 -0.4593  1.0722
  340TIP3   OH225214   0.395   2.024  12.042  0.4262 -0.0735 -0.0366
  340TIP3    H125215   0.407   1.960  12.112  0.2537  1.3459  1.3530
  340TIP3    H225216   0.302   2.047  12.046  1.2787  4.0418  3.1077
  341TIP3   OH225217   2.808   0.522  11.573  0.4537  0.0330  0.0043
  341TIP3    H125218   2.831   0.615  11.574  2.9656 -0.5019 -0.7566
  341TIP3    H225219   2.832   0.491  11.660 -0.3918  0.0683  0.2616
  342TIP3   OH225220   5.594   2.097  10.640  0.0246  0.2456 -0.4049
  342TIP3    H125221   5.523   2.142  10.594 -0.9028 -1.6542 -0.9263
  342TIP3    H225222   5.645   2.168  10.679 -1.3474  1.7420 -1.1790
  343TIP3   OH225223   4.839   0.721  10.250  0.0104  0.4050 -0.3424
  343TIP3    H125224   4.830   0.627  10.236 -1.0183  0.6553 -1.6431
  343TIP3    H225225   4.931   0.740  10.233 -0.4910  0.1695 -4.1915
  344TIP3   OH225226   2.318   5.692  10.254 -0.9203  0.5970  0.2982
  344TIP3    H125227   2.406   5.659  10.270 -0.2652  2.3816  0.6856
  344TIP3    H225228   2.281   5.708  10.341 -1.0810  1.1536  0.1383
  345TIP3   OH225229   3.319   0.444  10.337  0.3867  0.1073 -0.7813
  345TIP3    H125230   3.395   0.389  10.318 -0.4452 -1.0384 -0.8973
  345TIP3    H225231   3.276   0.457  10.253 -0.8236 -1.2274 -0.4161
  346TIP3   OH225232   3.609   0.942  12.543 -0.1031  0.3667 -0.5300
  346TIP3    H125233   3.613   1.025  12.496  2.7125  1.6090  1.6385
  346TIP3    H225234   3.625   0.964  12.635 -1.2528 -2.3956  0.4701
  347TIP3   OH225235   5.517   6.575  12.581  0.2286 -0.0957  0.0367
  347TIP3    H125236   5.527   6.558  12.675  1.5676  0.4781  0.0213
  347TIP3    H225237   5.486   6.491  12.545 -3.2081  0.4294  1.3344
  348TIP3   OH225238   0.967   4.935  10.579  0.4359 -0.1094  0.0048
  348TIP3    H125239   0.961   4.857  10.524 -0.8781 -0.3265  0.4276
  348TIP3    H225240   1.025   4.910  10.650 -0.3368 -0.8733  0.3832
  349TIP3   OH225241   3.259   0.162  10.514 -0.4500 -0.4227 -0.0299
  349TIP3    H125242   3.330   0.198  10.461  0.6908 -1.6499  0.6036
  349TIP3    H225243   3.289   0.074  10.538 -2.7361 -1.5327 -0.8403
  350TIP3   OH225244   3.626   2.315  12.429 -0.2916 -0.1417  0.1694
  350TIP3    H125245   3.562   2.386  12.421  0.0563  0.3855  1.6609
  350TIP3    H225246   3.683   2.343  12.501  1.5150 -0.6913 -0.9847
  351TIP3   OH225247   5.159   0.520  11.839 -0.4236  0.5617 -0.2479
  351TIP3    H125248   5.250   0.550  11.838 -0.1560 -0.1649  0.7892
  351TIP3    H225249   5.107   0.600  11.834  0.2636  0.9674 -1.0785
  352TIP3   OH225250   3.679   1.406  10.692  0.1496  0.0894 -0.3664
  352TIP3    H125251   3.676   1.496  10.660 -0.0317  0.0622 -0.4248
  352TIP3    H225252   3.612   1.402  10.760 -0.7196 -0.3304 -1.2193
  353TIP3   OH225253   6.678   6.298  12.379  0.2839 -0.4550  0.6036
  353TIP3    H125254   6.701   6.385  12.413  2.2881 -0.7214  0.0579
  353TIP3    H225255   6.754   6.272  12.327  0.0047 -2.8159  1.2637
  354TIP3   OH225256   1.744   5.517  11.088 -1.1017 -1.0293 -0.0581
  354TIP3    H125257   1.650   5.521  11.072 -1.0727 -0.4781 -0.1147
  354TIP3    H225258   1.774   5.608  11.078 -0.3952 -1.3568 -1.0387
  355TIP3   OH225259   0.364   0.903  11.417 -0.1510  0.3555 -0.4021
  355TIP3    H125260   0.361   0.993  11.450  0.3971  0.1091  0.3567
  355TIP3    H225261   0.440   0.864  11.460 -0.6799 -0.6237 -0.3098
  356TIP3   OH225262   4.259   4.948  11.005 -0.3359  0.6058 -0.2031
  356TIP3    H125263   4.333   5.000  10.975 -0.1202  0.1481 -0.4668
  356TIP3    H225264   4.224   4.997  11.080  1.0235  0.1724  0.7486
  357TIP3   OH225265   2.167   2.378  11.879 -1.0602  0.7174  0.0497
  357TIP3    H125266   2.201   2.332  11.957 -2.6515 -1.4330 -0.4380
  357TIP3    H225267   2.192   2.322  11.806 -0.8802  1.9626 -0.8722
  358TIP3   OH225268   1.736   1.878   9.512 -0.2422  0.3957 -0.4362
  358TIP3    H125269   1.817   1.855   9.557  0.2984  4.2181  0.9117
  358TIP3    H225270   1.667   1.855   9.574  0.3544  3.2570  1.5152
  359TIP3   OH225271   1.488   2.363  11.312 -0.2520  0.2453 -0.1666
  359TIP3    H125272   1.420   2.393  11.373 -1.7518 -0.5571 -1.3916
  359TIP3    H225273   1.448   2.373  11.225  0.9835 -0.8062 -0.8752
  360TIP3   OH225274   1.100   5.727  11.582 -0.0842 -0.4928 -0.0750
  360TIP3    H125275   1.150   5.646  11.592  0.6297 -0.0778 -0.1618
  360TIP3    H225276   1.138   5.786  11.648  2.2826  1.1418 -2.6561
  361TIP3   OH225277   5.614   2.477  10.128  0.0824 -0.1104  0.2245
  361TIP3    H125278   5.632   2.466  10.034  1.6362  0.3663  0.4428
  361TIP3    H225279   5.622   2.389  10.164  3.6644  0.1756  0.5282
  362TIP3   OH225280   1.201   3.199  10.603  0.1689 -0.2520  0.1600
  362TIP3    H125281   1.252   3.238  10.532 -0.4650 -3.6491 -2.4389
  362TIP3    H225282   1.152   3.272  10.641  3.5744  2.3854 -0.1011
  363TIP3   OH225283   3.262   3.956  10.672 -0.3990  0.4121 -0.2650
  363TIP3    H125284   3.237   3.870  10.706 -1.4432  0.5613 -0.6285
  363TIP3    H225285   3.322   3.936  10.600 -1.3714 -0.0676 -0.9706
  364TIP3   OH225286   3.334   4.510  11.913 -0.0934  0.4493  0.2851
  364TIP3    H125287   3.298   4.549  11.833 -0.8196  0.5162  0.6323
  364TIP3    H225288   3.258   4.501  11.971  0.2733 -0.3783  0.6543
  365TIP3   OH225289   2.966   5.489  10.977 -0.2467 -0.0378 -0.1525
  365TIP3    H125290   3.049   5.491  11.024 -0.6439  0.3697  0.5417
  365TIP3    H225291   2.991   5.478  10.885  0.5510 -0.4465  0.1027
  366TIP3   OH225292   5.044   1.584  12.515  0.0337 -0.3599 -0.1187
  366TIP3    H125293   5.071   1.637  12.440 -0.4744 -0.9961 -0.7767
  366TIP3    H225294   5.086   1.624  12.590 -0.0685  0.7601 -0.6455
  367TIP3   OH225295   0.312   0.556  11.843 -0.1818  0.1875  0.5584
  367TIP3    H125296   0.372   0.505  11.897 -0.3191  1.1391  1.6580
  367TIP3    H225297   0.347   0.645  11.846 -1.1404  0.5802  0.4749
  368TIP3   OH225298   1.306   6.807  10.299 -0.0661 -0.3992 -0.4568
  368TIP3    H125299   1.279   6.783  10.210 -0.7409 -0.3926 -0.2591
  368TIP3    H225300   1.224   6.828  10.344  0.3684  0.7530 -0.1668
  369TIP3   OH225301   6.395   1.356  11.928 -0.5500  0.6827  0.2040
  369TIP3    H125302   6.313   1.402  11.947 -0.7380  1.5576 -2.4038
  369TIP3    H225303   6.368   1.271  11.895 -0.3587  0.5870  0.2928
  370TIP3   OH225304   1.918   3.752  10.592  0.1728  0.1477  0.2363
  370TIP3    H125305   1.870   3.674  10.616  0.3328  0.3705  1.3598
  370TIP3    H225306   1.852   3.814  10.561 -0.2783  0.4079  1.6453
  371TIP3   OH225307   5.168   2.751  11.455 -0.3427 -0.0636  0.1543
  371TIP3    H125308   5.261   2.762  11.474  0.0877 -0.2828 -1.5785
  371TIP3    H225309   5.124   2.817  11.508  0.6388 -0.9199  2.1024
  372TIP3   OH225310   3.773   5.661  12.193  0.0981 -0.0478 -0.0914
  372TIP3    H125311   3.684   5.641  12.221 -0.3222 -0.2578 -1.4782
  372TIP3    H225312   3.799   5.585  12.141  1.2026 -0.1105  0.5264
  373TIP3   OH225313   6.701   0.140  10.440  0.5957 -0.0938 -0.1297
  373TIP3    H125314   6.672   0.049  10.435 -0.0221  0.0638  0.3829
  373TIP3    H225315   6.733   0.160  10.353 -0.3467 -0.4595 -0.5757
  374TIP3   OH225316   3.605   6.536  12.141  0.0247  0.2198  0.2942
  374TIP3    H125317   3.548   6.576  12.076  0.0546  0.6909  0.5558
  374TIP3    H225318   3.552   6.533  12.221 -0.0532 -0.4595  0.2191
  375TIP3   OH225319   2.873   1.668  12.519 -0.3332  0.1639 -0.1089
  375TIP3    H125320   2.858   1.586  12.566 -1.3467  0.1524 -0.4352
  375TIP3    H225321   2.807   1.728  12.552 -1.7775 -0.1512 -2.2115
  376TIP3   OH225322   4.310   6.533  11.616 -0.3830  0.6744  0.0208
  376TIP3    H125323   4.351   6.559  11.699  2.0818 -0.5749 -0.7177
  376TIP3    H225324   4.320   6.610  11.560 -0.8736  1.0643  0.4532
  377TIP3   OH225325   6.069   0.119  11.220 -0.6666 -0.6117  0.1290
  377TIP3    H125326   6.136   0.055  11.244  0.3235 -0.2017 -1.3807
  377TIP3    H225327   6.060   0.110  11.125 -1.9984  0.0824  0.1675
  378TIP3   OH225328   5.597   0.244  12.318  0.2840  0.0744  0.5660
  378TIP3    H125329   5.682   0.200  12.330 -0.5686 -1.6469  0.6180
  378TIP3    H225330   5.535   0.186  12.362 -1.0622  0.7774 -0.3774
  379TIP3   OH225331   2.415   4.425  11.691  0.5227 -0.2263 -0.0969
  379TIP3    H125332   2.440   4.488  11.623  0.5439  0.1427  0.2465
  379TIP3    H225333   2.396   4.344  11.643  0.1703  0.1337 -0.5844
  380TIP3   OH225334   0.235   4.250  13.337 -0.5041  0.2126 -0.2791
  380TIP3    H125335   0.306   4.204  13.381 -0.6326  1.3686  1.2119
  380TIP3    H225336   0.159   4.194  13.349 -0.3933  0.1976  0.3966
  381TIP3   OH225337   2.695   1.909  12.057 -0.2986  0.2537 -0.0292
  381TIP3    H125338   2.711   1.850  12.131 -2.8330  0.5611  0.8622
  381TIP3    H225339   2.600   1.909  12.047 -0.1031  1.3083 -2.4367
  382TIP3   OH225340   6.353   0.966   9.605 -0.1566  0.7560 -0.3169
  382TIP3    H125341   6.392   0.949   9.691  0.6293  0.9953 -0.6166
  382TIP3    H225342   6.289   0.896   9.593  0.7333 -0.0907 -0.1479
  383TIP3   OH225343   0.021   3.598  12.578 -0.1615  0.1005 -0.0167
  383TIP3    H125344  -0.037   3.622  12.506 -1.1466  2.5957  1.4962
  383TIP3    H225345   0.018   3.673  12.637  2.4162 -0.8887  1.5232
  384TIP3   OH225346   0.852   5.662  11.463  0.7478 -0.2843 -0.4478
  384TIP3    H125347   0.898   5.624  11.388  0.0524 -0.8884 -0.5886
  384TIP3    H225348   0.918   5.665  11.533  0.8641 -1.7186 -0.4504
  385TIP3   OH225349   6.117   3.304  12.700 -0.0486  0.0009 -0.4852
  385TIP3    H125350   6.069   3.378  12.737 -1.2721  0.3637 -2.6467
  385TIP3    H225351   6.114   3.237  12.769 -1.1485  1.0431  0.5255
  386TIP3   OH225352   2.772   5.107  10.124 -0.6631 -0.1461  0.5544
  386TIP3    H125353   2.710   5.046  10.084 -0.6225  0.4419 -0.4202
  386TIP3    H225354   2.719   5.183  10.147 -0.4929 -0.0572  0.6540
  387TIP3   OH225355   1.782   6.383  12.725 -0.5116 -0.0513  0.1236
  387TIP3    H125356   1.873   6.391  12.695 -0.0017 -0.3153  1.5278
  387TIP3    H225357   1.739   6.331  12.657  0.8118 -1.3577  0.2227
  388TIP3   OH225358   0.117   5.510  12.731  0.0062  0.6493  0.7581
  388TIP3    H125359   0.202   5.469  12.716 -0.7715 -1.7235  2.2323
  388TIP3    H225360   0.062   5.475  12.661 -0.0668  1.1680  0.5580
  389TIP3   OH225361   2.673   1.865  12.627  0.5929  0.3754 -0.1550
  389TIP3    H125362   2.595   1.917  12.648 -0.2715 -0.4857 -1.1326
  389TIP3    H225363   2.714   1.848  12.712  0.6662  2.2552  0.2316
  390TIP3   OH225364   0.806   2.442  10.785 -0.1006  0.5293 -0.0151
  390TIP3    H125365   0.737   2.385  10.819 -1.5958  1.5054 -1.2878
  390TIP3    H225366   0.788   2.449  10.692  0.1967  2.8435  0.0533
  391TIP3   OH225367   2.016   4.377  11.353 -0.2268  0.0064  0.0651
  391TIP3    H125368   2.037   4.469  11.374 -0.7078  0.0514  0.3624
  391TIP3    H225369   2.010   4.375  11.258 -0.5069  0.3522  0.0723
  392TIP3   OH225370   3.671   6.352  10.788  0.1958  0.8061 -0.1331
  392TIP3    H125371   3.653   6.292  10.715 -1.4851 -0.6867  1.4050
  392TIP3    H225372   3.588   6.395  10.805  1.4160  3.8846 -1.3249
  393TIP3   OH225373   2.574   3.546  11.902  0.3310 -0.0550  0.4198
  393TIP3    H125374   2.601   3.632  11.935  1.4201  0.0172 -0.5797
  393TIP3    H225375   2.508   3.566  11.836  1.3343  0.1218 -0.5693
  394TIP3   OH225376   1.403   3.375  11.874 -0.1950 -0.5715  0.1824
  394TIP3    H125377   1.312   3.348  11.874 -0.2667 -0.5251  2.1976
  394TIP3    H225378   1.451   3.298  11.906  0.3649 -0.3486 -0.1046
  395TIP3   OH225379   3.575   1.576  12.335  0.3097  0.1625  0.4121
  395TIP3    H125380   3.588   1.668  12.312  1.1493  0.2389  1.1368
  395TIP3    H225381   3.664   1.539  12.339  0.0108 -0.5667  0.5682
  396TIP3   OH225382   3.225   4.762  10.903  0.1689  0.3386 -0.0283
  396TIP3    H125383   3.174   4.828  10.856  1.1531  0.0726 -1.5470
  396TIP3    H225384   3.296   4.812  10.943 -0.3817  0.4924  0.7892
  397TIP3   OH225385   0.803   2.653  10.978  0.1917  0.7665  0.0675
  397TIP3    H125386   0.782   2.586  10.912 -0.1787 -0.0778  1.0067
  397TIP3    H225387   0.867   2.710  10.936 -0.2952  0.4427 -1.1349
  398TIP3   OH225388   1.857   1.173  13.105  0.5338  0.1760 -0.6591
  398TIP3    H125389   1.831   1.177  13.197  0.9010  0.4897 -0.5655
  398TIP3    H225390   1.804   1.240  13.062  1.1383  0.7778 -0.4789
  399TIP3   OH225391   1.411   2.139  11.658  0.2739  0.3327  0.2328
  399TIP3    H125392   1.419   2.059  11.710 -1.2316 -0.2548 -0.3555
  399TIP3    H225393   1.496   2.150  11.616  0.2528 -1.4532 -0.3403
  400TIP3   OH225394   2.350   1.881  13.117 -0.3371  0.1217  0.4573
  400TIP3    H125395   2.440   1.890  13.148  0.1553  1.8012 -1.2822
  400TIP3    H225396   2.346   1.792  13.082  1.0327  0.3796 -0.4572
  401TIP3   OH225397   0.082   3.071  12.904  0.1237  0.2132 -0.2459
  401TIP3    H125398   0.067   2.988  12.859  0.5767  0.1558 -0.2946
  401TIP3    H225399   0.107   3.132  12.834  0.5298  0.2003 -0.1114
  402TIP3   OH225400   4.623   2.616   9.977 -0.2889 -0.2857 -0.4133
  402TIP3    H125401   4.600   2.692  10.030  0.3336 -0.8586  0.7119
  402TIP3    H225402   4.541   2.566   9.969 -0.6055  0.2899 -0.8314
  403TIP3   OH225403   3.372   6.257  11.144 -0.1945  0.9095  0.5769
  403TIP3    H125404   3.449   6.211  11.177  0.2559  0.6167 -0.7939
  403TIP3    H225405   3.299   6.222  11.194  0.1395 -1.3311 -0.4114
  404TIP3   OH225406   5.437   6.683  13.028  0.1099  0.1335  0.4385
  404TIP3    H125407   5.414   6.714  13.115  4.2955 -1.2014  2.2674
  404TIP3    H225408   5.432   6.761  12.972 -1.6941  1.2290  1.9910
  405TIP3   OH225409   4.976   5.272  12.481  0.0769 -0.4103  0.0669
  405TIP3    H125410   5.047   5.232  12.430 -0.0932 -0.4679 -0.1292
  405TIP3    H225411   5.014   5.289  12.567  0.6397  0.5307 -0.3547
  406TIP3   OH225412   1.417   6.412  13.024 -0.2310 -0.4947 -0.1361
  406TIP3    H125413   1.453   6.493  12.988 -0.9507 -0.9937 -2.1193
  406TIP3    H225414   1.334   6.400  12.978 -0.5173 -1.9393  0.6936
  407TIP3   OH225415   4.219   0.982  12.686  0.0770  0.0537 -0.8104
  407TIP3    H125416   4.187   0.987  12.595 -1.6441 -1.0454 -0.3126
  407TIP3    H225417   4.165   1.046  12.733  1.8331  1.5624 -0.7388
  408TIP3   OH225418   0.942   5.937  10.505 -0.0230 -0.0303 -0.0735
  408TIP3    H125419   0.857   5.925  10.546  0.2820  0.8890  0.8819
  408TIP3    H225420   0.959   5.854  10.460 -0.8061 -0.7203  0.8585
  409TIP3   OH225421   3.166   3.998  13.192 -0.4128 -0.0762  0.2154
  409TIP3    H125422   3.230   3.992  13.121 -0.8616  1.5924 -0.3862
  409TIP3    H225423   3.086   3.960  13.157 -0.9339  1.6630 -0.6093
  410TIP3   OH225424   3.343   3.443  12.309  0.3134 -0.4582  0.2450
  410TIP3    H125425   3.423   3.395  12.286  0.4075  0.1520 -0.7532
  410TIP3    H225426   3.354   3.466  12.401  2.4429  1.7770 -0.4899
  411TIP3   OH225427   5.330   3.644  12.045 -0.3156  0.4310  0.2694
  411TIP3    H125428   5.319   3.621  12.137  1.1987 -0.3061  0.3062
  411TIP3    H225429   5.299   3.734  12.039 -3.7993 -0.5888  0.7129
  412TIP3   OH225430   0.483   2.509  11.051  0.4348  0.0061  0.0008
  412TIP3    H125431   0.546   2.554  11.107  0.5862 -1.7930  1.3618
  412TIP3    H225432   0.488   2.555  10.967  2.7709  0.5897  0.4042
  413TIP3   OH225433   0.983   2.267  11.580  0.0477 -0.6453  0.2552
  413TIP3    H125434   1.017   2.203  11.642  3.1538  1.1633  0.6394
  413TIP3    H225435   0.922   2.320  11.631 -1.5586 -2.4102  0.2599
  414TIP3   OH225436   6.497   4.442  11.496 -0.3430 -0.1005 -0.1308
  414TIP3    H125437   6.510   4.448  11.591  0.4961 -0.8313 -0.1835
  414TIP3    H225438   6.511   4.349  11.476 -1.1618 -0.0740 -0.8875
  415TIP3   OH225439   6.066   3.089  12.859  0.0394 -0.2402 -0.5796
  415TIP3    H125440   6.059   3.114  12.951 -1.9837 -1.6993 -0.2681
  415TIP3    H225441   6.041   2.996  12.858  2.0882 -0.8469 -2.3410
  416TIP3   OH225442   4.870   5.669  12.149  0.2414  0.2142 -0.0395
  416TIP3    H125443   4.885   5.615  12.226  0.3301 -1.1850 -1.0033
  416TIP3    H225444   4.793   5.722  12.171  0.2495 -0.1787  0.9828
  417TIP3   OH225445   3.589   2.739  12.273 -0.1439 -0.5962  0.7377
  417TIP3    H125446   3.550   2.673  12.329  1.7421 -2.2077  0.2715
  417TIP3    H225447   3.645   2.790  12.332  0.2541 -0.9801  0.7003
  418TIP3   OH225448   1.612   6.694  12.661 -0.4432 -0.2346  0.1180
  418TIP3    H125449   1.530   6.667  12.619  0.6279 -1.3856 -1.3251
  418TIP3    H225450   1.681   6.656  12.607  1.0623  0.1438  1.6739
  419TIP3   OH225451   2.055   1.948  13.032 -0.4051  0.1929 -0.0713
  419TIP3    H125452   2.134   1.952  13.087 -1.6058 -0.5030  1.8280
  419TIP3    H225453   2.065   1.867  12.982 -0.4094 -0.5264  1.0361
  420TIP3   OH225454   5.596   1.767  12.836  0.1981 -0.0189 -1.0519
  420TIP3    H125455   5.523   1.716  12.800 -1.4597  1.4779  0.0484
  420TIP3    H225456   5.561   1.807  12.915  2.7645 -0.6338  0.5179
  421TIP3   OH225457   3.049   1.687  10.731  0.1527 -0.6644  0.1164
  421TIP3    H125458   3.026   1.722  10.645  1.1933  3.4509  1.3047
  421TIP3    H225459   2.990   1.732  10.792  1.5755 -1.0361  1.8410
  422TIP3   OH225460   3.810   1.718  10.938  0.3826  0.0113 -0.3114
  422TIP3    H125461   3.790   1.689  10.849  2.0178 -1.2904 -0.2896
  422TIP3    H225462   3.755   1.665  10.994  1.2565 -1.0536 -0.4321
  423TIP3   OH225463   4.631   0.241  13.019  0.3267 -0.3026  0.4585
  423TIP3    H125464   4.557   0.188  12.990  0.3372 -0.6872  1.1035
  423TIP3    H225465   4.597   0.291  13.094  0.3947  0.4025  0.0221
  424TIP3   OH225466   4.026   6.505  12.087 -0.5307 -0.1219 -0.5633
  424TIP3    H125467   3.959   6.451  12.129 -1.1342 -0.4297 -1.8685
  424TIP3    H225468   4.000   6.508  11.995  0.3471  1.1299 -0.7968
  425TIP3   OH225469   5.957   6.429  12.777 -0.5374  0.5836  0.3261
  425TIP3    H125470   5.918   6.509  12.810 -3.9271 -0.9621  0.4892
  425TIP3    H225471   5.979   6.379  12.855 -0.8516  0.3082  0.2411
  426TIP3   OH225472   5.013   0.502  13.068 -0.3247  0.1487  0.5754
  426TIP3    H125473   4.943   0.481  13.007  1.3471  0.4908 -1.5999
  426TIP3    H225474   4.975   0.489  13.154 -2.4693 -1.5119 -0.5270
  427TIP3   OH225475   6.091   6.686  10.707  0.3307 -0.0350 -0.8445
  427TIP3    H125476   6.172   6.709  10.754  0.2861 -2.4458  0.5943
  427TIP3    H225477   6.022   6.692  10.773 -0.6847  1.7139 -1.9880
  428TIP3   OH225478   5.779   4.158  12.809 -0.2004  0.2975 -0.0540
  428TIP3    H125479   5.694   4.128  12.840  0.4906 -0.5723  1.0961
  428TIP3    H225480   5.761   4.239  12.761 -1.6981 -0.0548 -0.1119
  429TIP3   OH225481   0.319   4.600  10.520 -0.0565 -0.2797  0.1465
  429TIP3    H125482   0.407   4.637  10.520  0.4418 -1.3984  0.4466
  429TIP3    H225483   0.331   4.511  10.554 -1.4530 -0.1140  1.1536
  430TIP3   OH225484   1.292   2.537  11.408  0.3282  0.1997  0.5099
  430TIP3    H125485   1.311   2.585  11.327 -1.4409  1.3196  0.6966
  430TIP3    H225486   1.274   2.605  11.473 -1.8619 -0.6530  0.8794
  431TIP3   OH225487   2.663   0.930  12.740 -0.0176 -0.9596 -0.0339
  431TIP3    H125488   2.724   0.857  12.743 -1.3595 -2.1614 -0.8392
  431TIP3    H225489   2.628   0.929  12.650 -0.3058  0.4597  0.0369
  432TIP3   OH225490   6.216   1.916  10.288  0.4013 -0.5495  0.5152
  432TIP3    H125491   6.290   1.953  10.241 -0.9424  2.0787  0.2084
  432TIP3    H225492   6.245   1.913  10.379  0.8133  0.8329  0.4654
  433TIP3   OH225493   3.005   6.317  12.081 -0.2924 -0.3824 -0.1743
  433TIP3    H125494   2.918   6.294  12.115 -0.1655 -0.1289  0.3283
  433TIP3    H225495   3.050   6.357  12.155 -0.7503  2.1954 -1.1586
  434TIP3   OH225496   1.847   5.770  12.686 -0.4516  0.7676 -0.2594
  434TIP3    H125497   1.772   5.794  12.632 -0.5053 -0.9295 -1.0121
  434TIP3    H225498   1.906   5.725  12.625 -0.3813 -0.9508  1.0219
  435TIP3   OH225499   0.640   5.905  12.274  0.3164 -0.0899 -0.1954
  435TIP3    H125500   0.618   5.980  12.219  0.5232 -1.0897 -1.7068
  435TIP3    H225501   0.714   5.935  12.327  0.5550  0.6939 -0.9574
  436TIP3   OH225502   5.413   6.835  10.992 -0.3129  0.3937  0.4313
  436TIP3    H125503   5.320   6.845  10.969 -0.3050  0.1654  0.2918
  436TIP3    H225504   5.416   6.850  11.087 -0.3721  1.1687  0.3150
  437TIP3   OH225505   0.717   2.124  11.691 -0.0462  0.5579 -0.2592
  437TIP3    H125506   0.654   2.135  11.620  0.2455 -0.3934 -0.6855
  437TIP3    H225507   0.772   2.051  11.663  1.4900  1.5825 -0.0880
  438TIP3   OH225508   2.281   2.368  12.898  0.1576  0.1676  0.1535
  438TIP3    H125509   2.269   2.367  12.993  1.2785  0.7518  0.3247
  438TIP3    H225510   2.284   2.275  12.873 -2.1057 -0.0076  0.3836
  439TIP3   OH225511   2.757   2.259  10.609  0.1659  0.1141  0.6267
  439TIP3    H125512   2.709   2.202  10.549 -0.4239 -0.1105  1.2906
  439TIP3    H225513   2.828   2.296  10.557 -1.3581  1.2990 -0.7118
  440TIP3   OH225514   5.566   5.819  11.033 -0.1231  0.4779 -0.1288
  440TIP3    H125515   5.606   5.840  10.949  0.0105  0.7409 -0.0017
  440TIP3    H225516   5.498   5.886  11.044 -1.7863 -0.9776 -1.1454
  441TIP3   OH225517   5.604   5.548  12.968  0.0183  0.3579 -0.0366
  441TIP3    H125518   5.596   5.606  12.893 -0.8392 -0.1739 -0.3757
  441TIP3    H225519   5.514   5.527  12.993  0.2883 -1.2665 -0.2882
  442TIP3   OH225520   2.928   2.497  12.652  0.2119  0.2060 -0.0113
  442TIP3    H125521   2.993   2.469  12.717 -0.0915 -2.3748 -0.6876
  442TIP3    H225522   2.844   2.472  12.691 -0.3495  2.4668  0.3512
  443TIP3   OH225523   4.507   5.644  12.387  0.3916  0.1683  0.2768
  443TIP3    H125524   4.481   5.652  12.478  0.1074  0.3857  0.1752
  443TIP3    H225525   4.471   5.560  12.359  0.6172  0.0269  0.4112
  444TIP3   OH225526   3.597   2.328  13.077  0.1531  0.2455 -0.0200
  444TIP3    H125527   3.520   2.316  13.022  0.3063  0.5227 -0.3009
  444TIP3    H225528   3.596   2.422  13.099  1.4262  0.6807 -1.5690
  445TIP3   OH225529   1.250   5.319   9.846 -0.2851  0.0069 -0.3237
  445TIP3    H125530   1.336   5.357   9.865 -0.3189  0.7510 -1.5827
  445TIP3    H225531   1.269   5.243   9.791 -0.2931 -1.2770  1.3582
  446TIP3   OH225532   6.260   6.804  11.316  0.0394  0.0717 -0.3018
  446TIP3    H125533   6.280   6.820  11.408  0.9781  1.9341 -0.7915
  446TIP3    H225534   6.346   6.800  11.274 -0.3689 -1.1022 -1.0712
  447TIP3   OH225535   0.199   3.539  12.773 -0.1456  0.3785 -0.1901
  447TIP3    H125536   0.151   3.554  12.692 -0.5372  0.8997  0.1329
  447TIP3    H225537   0.131   3.531  12.840  0.0630 -2.1934 -0.2183
  448TIP3   OH225538   6.622   0.676  10.391 -0.1005  0.4312  0.2430
  448TIP3    H125539   6.624   0.596  10.338 -0.6764  1.1140 -0.8731
  448TIP3    H225540   6.587   0.649  10.475  0.5603 -0.6470  0.1865
  449TIP3   OH225541   6.200   0.150  10.724  0.2560 -0.1284 -0.5800
  449TIP3    H125542   6.213   0.244  10.715  0.2979 -0.1603 -0.8882
  449TIP3    H225543   6.244   0.113  10.647  0.1579 -0.3916 -0.5102
  450TIP3   OH225544   2.783   6.139  12.087  0.2745  0.7423 -0.1397
  450TIP3    H125545   2.701   6.109  12.126  0.1401  2.0163  0.6311
  450TIP3    H225546   2.775   6.117  11.994  0.5704 -2.2705  0.4464
  451TIP3   OH225547   0.686   1.825  12.102  0.4026 -0.5960 -0.5744
  451TIP3    H125548   0.758   1.839  12.041 -0.3533 -0.2977 -1.4306
  451TIP3    H225549   0.633   1.904  12.095  0.5236 -0.3732  0.8012
  452TIP3   OH225550   1.879   2.051  11.729  0.1407 -0.1095  0.0195
  452TIP3    H125551   1.830   2.073  11.650  2.8059  1.4291 -1.3709
  452TIP3    H225552   1.863   1.958  11.742 -1.0895 -0.2099 -1.8101
  453TIP3   OH225553   1.024   5.976  12.629  0.3891  0.4009  0.0992
  453TIP3    H125554   1.070   5.892  12.620 -1.5721 -0.7452  0.3806
  453TIP3    H225555   1.040   6.002  12.720  1.9929  0.9828 -0.3123
  454TIP3   OH225556   6.364   1.917  12.652  0.8283 -0.1391  0.3729
  454TIP3    H125557   6.315   1.914  12.734  0.5360  0.0996  0.2082
  454TIP3    H225558   6.342   1.835  12.608  0.3432  0.1022  0.1651
  455TIP3   OH225559   1.808   4.519  11.166  0.0939  0.5217 -0.1884
  455TIP3    H125560   1.785   4.590  11.107 -2.0905 -0.5055 -0.6774
  455TIP3    H225561   1.822   4.561  11.251 -3.8171  1.3850  0.1981
  456TIP3   OH225562   2.827   4.968  12.503 -0.1572 -0.5360 -0.4109
  456TIP3    H125563   2.821   4.938  12.594 -0.3851 -0.6399 -0.4583
  456TIP3    H225564   2.916   4.944  12.476 -0.4269 -1.4404 -0.5364
  457TIP3   OH225565   5.144   3.524   9.394  0.0634 -0.3529  0.0368
  457TIP3    H125566   5.098   3.574   9.327  0.9243 -0.7413 -0.8654
  457TIP3    H225567   5.234   3.520   9.363  0.8157  0.6949  1.9551
  458TIP3   OH225568   5.090   6.090  11.069  0.0895  0.3018 -0.3379
  458TIP3    H125569   5.039   6.120  11.144  0.4928 -2.2461  1.0989
  458TIP3    H225570   5.029   6.036  11.018  0.9201 -1.8428  0.7937
  459TIP3   OH225571   6.762   3.558  10.357 -0.3958  0.3125 -1.0416
  459TIP3    H125572   6.841   3.605  10.332 -0.4204  1.0353  0.1619
  459TIP3    H225573   6.793   3.488  10.416 -0.5671  0.0776 -1.2287
  460TIP3   OH225574   4.138   5.772  12.680  0.1239 -0.7131 -0.0761
  460TIP3    H125575   4.082   5.830  12.731  0.7960 -0.4814  0.4051
  460TIP3    H225576   4.134   5.807  12.591 -1.6408 -1.5569 -0.3582
  461TIP3   OH225577   6.701   1.607  10.830 -0.2369  0.2982 -0.1169
  461TIP3    H125578   6.684   1.521  10.869 -0.4329  0.7770  0.9003
  461TIP3    H225579   6.790   1.629  10.859 -0.9328  1.3194  1.3849
  462TIP3   OH225580   0.416   3.845  10.101  0.1231 -0.3295  0.0460
  462TIP3    H125581   0.365   3.926  10.113  1.4590  0.6893 -0.8712
  462TIP3    H225582   0.350   3.778  10.081 -0.8998  0.8351 -0.6092
  463TIP3   OH225583   5.484   6.260  12.080 -0.5087 -0.7342 -0.4875
  463TIP3    H125584   5.515   6.170  12.087  0.5678 -0.4837 -1.5029
  463TIP3    H225585   5.460   6.270  11.987 -0.0850  0.1632 -0.5166
  464TIP3   OH225586   4.993   1.358  11.754 -0.0079  0.0709  0.2510
  464TIP3    H125587   5.043   1.328  11.830  0.6424  0.0761 -0.1684
  464TIP3    H225588   5.028   1.444  11.734 -2.7626  1.8353  2.2562
  465TIP3   OH225589   0.939   0.097  11.554  0.5226 -0.6381  0.0808
  465TIP3    H125590   0.966   0.189  11.558 -0.5610 -0.3194  0.5173
  465TIP3    H225591   0.986   0.061  11.479  0.6521  0.3831 -0.3435
  466TIP3   OH225592   2.944   6.486  11.174  0.5288  0.3318  0.1948
  466TIP3    H125593   2.951   6.576  11.144  0.1940  0.7292  1.2646
  466TIP3    H225594   2.971   6.489  11.266 -1.9288 -0.1651  1.0063
  467TIP3   OH225595   3.661   4.057  12.269 -0.1469 -0.4644  0.3068
  467TIP3    H125596   3.755   4.041  12.283  0.4679  1.4711 -1.1217
  467TIP3    H225597   3.639   4.123  12.335 -0.3597 -0.5432  0.3121
  468TIP3   OH225598   0.641   4.263  11.183  0.1759  0.2657 -0.5229
  468TIP3    H125599   0.701   4.337  11.182 -1.2274  1.4646  0.6419
  468TIP3    H225600   0.558   4.298  11.151 -0.7501 -0.5574  0.8723
  469TIP3   OH225601   1.736   4.947  12.704 -0.1697 -0.3345  0.0002
  469TIP3    H125602   1.764   5.013  12.641  0.0050  1.9339  2.2976
  469TIP3    H225603   1.795   4.873  12.690  1.3285  0.9986 -0.9644
  470TIP3   OH225604   0.842   0.119  10.164 -0.0958 -0.2164 -0.1009
  470TIP3    H125605   0.852   0.133  10.258 -2.5692 -2.6896  0.6953
  470TIP3    H225606   0.930   0.102  10.132  0.7150 -0.0250  1.9215
  471TIP3   OH225607   3.734   6.476  11.067  0.3975 -0.3126  0.2747
  471TIP3    H125608   3.763   6.490  11.157 -0.9644 -2.3025  1.1047
  471TIP3    H225609   3.646   6.516  11.065 -0.6053 -2.3706  0.6291
  472TIP3   OH225610   6.298   2.559  12.763 -0.0174 -0.5421  0.2186
  472TIP3    H125611   6.225   2.542  12.703  1.3383 -0.1754 -1.6389
  472TIP3    H225612   6.295   2.653  12.779  0.1581 -0.4949 -0.0208
  473TIP3   OH225613   6.045   2.762  12.195 -0.0328  0.0317 -0.2516
  473TIP3    H125614   6.077   2.850  12.176 -1.1321  0.3649 -0.6427
  473TIP3    H225615   5.951   2.766  12.178 -0.1777 -1.1032  0.1538
  474TIP3   OH225616   3.193   3.177  10.421  0.1261  0.0483  0.1656
  474TIP3    H125617   3.253   3.250  10.408  0.6662 -0.2627  0.8160
  474TIP3    H225618   3.115   3.200  10.371  1.4928 -0.4197 -2.3222
  475TIP3   OH225619   5.569   0.072  11.551 -0.0584  0.4925 -0.3028
  475TIP3    H125620   5.637   0.014  11.585  0.5459  2.2833  1.7680
  475TIP3    H225621   5.488   0.037  11.590 -0.6474 -2.1840 -3.4750
  476TIP3   OH225622   5.440   0.461  12.378  0.0137  0.4382 -0.4360
  476TIP3    H125623   5.487   0.523  12.322  1.5569 -0.4671 -0.2169
  476TIP3    H225624   5.494   0.381  12.376 -0.5221 -0.0205  1.3527
  477TIP3   OH225625   0.100   0.093  12.045 -0.3458  0.4608 -0.1744
  477TIP3    H125626   0.133   0.008  12.014 -2.0411 -0.3267  0.0839
  477TIP3    H225627   0.106   0.150  11.968 -0.0303 -0.1425 -0.6108
  478TIP3   OH225628   1.402   6.314  11.073 -0.1363  0.6242  0.1668
  478TIP3    H125629   1.459   6.370  11.125  1.3224  0.0503 -0.7309
  478TIP3    H225630   1.314   6.346  11.090  0.2853  0.5679  2.8179
  479TIP3   OH225631   5.000   3.820  12.410 -0.1922 -0.0334 -0.4508
  479TIP3    H125632   5.087   3.861  12.417 -0.3566  0.2560 -0.0206
  479TIP3    H225633   5.011   3.735  12.452 -0.4767  0.5942  0.9600
  480TIP3   OH225634   0.969   6.604  11.612 -0.0419  0.4757  0.1811
  480TIP3    H125635   0.988   6.629  11.703 -0.3070 -0.9623  0.6568
  480TIP3    H225636   1.006   6.675  11.559  1.6413  0.4940  1.3222
  481TIP3   OH225637   1.826   5.272  11.186 -0.3652 -0.0610  0.3493
  481TIP3    H125638   1.769   5.349  11.192  0.7730  0.7759  0.5957
  481TIP3    H225639   1.909   5.300  11.224  1.0315 -0.4494 -2.1632
  482TIP3   OH225640   1.898   5.258  13.057 -0.3181 -0.1330 -0.1241
  482TIP3    H125641   1.814   5.301  13.074 -0.3344  0.6111 -1.9052
  482TIP3    H225642   1.875   5.166  13.044 -0.5246 -0.3851  1.7700
  483TIP3   OH225643   5.125   0.601   9.931  0.3543  0.0795  0.0415
  483TIP3    H125644   5.062   0.546   9.885 -0.8379  1.4681 -0.0530
  483TIP3    H225645   5.158   0.660   9.864 -0.5137  1.3426  0.6949
  484TIP3   OH225646   2.313   2.728  10.852 -0.3785  1.0260 -0.0172
  484TIP3    H125647   2.272   2.734  10.939 -0.9477 -1.7920 -0.0024
  484TIP3    H225648   2.394   2.680  10.868 -0.6971  0.1085 -1.0753
  485TIP3   OH225649   6.698   0.028  10.714 -0.2311 -0.0722  0.5404
  485TIP3    H125650   6.787   0.064  10.718  0.0655 -0.7897  0.6536
  485TIP3    H225651   6.656   0.076  10.642  0.4419 -0.1403  0.0862
  486TIP3   OH225652   2.143   3.194  10.249  0.1422 -0.3863  1.1815
  486TIP3    H125653   2.142   3.107  10.210 -1.4734  0.4115 -0.7696
  486TIP3    H225654   2.164   3.253  10.176  1.4260  0.8815  2.4906
  487TIP3   OH225655   5.661   2.695  10.626 -0.2712  0.0983  0.2370
  487TIP3    H125656   5.642   2.710  10.719  0.5007  1.0490  0.2539
  487TIP3    H225657   5.752   2.723  10.615  0.3389 -1.9355 -0.3818
  488TIP3   OH225658   4.567   5.704  11.633 -0.0242 -0.1545  0.2776
  488TIP3    H125659   4.538   5.754  11.710 -0.7612 -1.1605  0.6764
  488TIP3    H225660   4.610   5.627  11.670 -0.1442 -0.5112 -0.3244
  489TIP3   OH225661   1.905   5.198  12.559 -0.3707 -0.2695  0.5460
  489TIP3    H125662   1.953   5.184  12.641 -0.6166 -0.2213  0.6986
  489TIP3    H225663   1.967   5.170  12.491  0.9010  2.2561  0.5488
  490TIP3   OH225664   0.338   4.102  11.055 -0.1569  0.0352 -0.3633
  490TIP3    H125665   0.325   4.170  10.989  1.4971 -0.0399 -0.8078
  490TIP3    H225666   0.335   4.148  11.139 -0.2982  0.4483 -0.5959
  491TIP3   OH225667   4.661   5.699  10.183 -0.3249  0.7778 -0.3676
  491TIP3    H125668   4.582   5.645  10.176  0.8265 -0.8585 -1.6920
  491TIP3    H225669   4.645   5.774  10.126 -0.8399  0.3324 -0.8165
  492TIP3   OH225670   4.670   0.116  11.332 -0.3410  0.4720  0.0153
  492TIP3    H125671   4.695   0.166  11.409 -0.0154  0.4640 -0.0820
  492TIP3    H225672   4.696   0.026  11.352 -1.9594  0.1158  0.6537
  493TIP3   OH225673   3.847   6.122   9.787  0.1332 -0.2867 -0.5320
  493TIP3    H125674   3.781   6.061   9.755  0.6829 -1.0121 -0.2942
  493TIP3    H225675   3.891   6.076   9.859  1.3909 -0.1016 -1.1537
  494TIP3   OH225676   1.444   1.030   9.890  0.2215  0.0380  0.4151
  494TIP3    H125677   1.531   1.022   9.931  0.9675  0.6500 -0.9758
  494TIP3    H225678   1.451   1.109   9.836 -1.3722  0.3572  0.6404
  495TIP3   OH225679   5.539   2.870  13.370 -0.6037  0.0717 -0.1347
  495TIP3    H125680   5.500   2.883  13.456  0.3861 -0.2734  0.3905
  495TIP3    H225681   5.482   2.917  13.310  0.6038  3.4644  1.1263
  496TIP3   OH225682   5.338   3.949  11.601 -0.0566 -0.2112 -0.3144
  496TIP3    H125683   5.351   4.029  11.653 -2.8535 -0.2354  0.5757
  496TIP3    H225684   5.351   3.877  11.663 -2.8006 -0.2532  0.3140
  497TIP3   OH225685   4.389   0.487  12.325  0.1001 -0.3579  0.4179
  497TIP3    H125686   4.362   0.418  12.264 -1.2655 -0.0941  0.7016
  497TIP3    H225687   4.319   0.491  12.390  0.5820  0.7111  0.8912
  498TIP3   OH225688   4.845   6.816  10.246  0.5150 -0.0115  0.5363
  498TIP3    H125689   4.907   6.744  10.258 -0.2093 -0.7726 -0.1829
  498TIP3    H225690   4.784   6.785  10.179 -2.2654 -0.4079  3.0176
  499TIP3   OH225691   1.853   1.617  11.516 -0.0968 -0.1873  0.2094
  499TIP3    H125692   1.935   1.593  11.473 -0.1630  0.5222 -0.3338
  499TIP3    H225693   1.806   1.535  11.525  0.5882 -0.5758  0.3478
  500TIP3   OH225694   6.179   6.582  10.148  0.0793  0.1824 -0.2391
  500TIP3    H125695   6.275   6.579  10.152  0.1207  1.2815 -0.1077
  500TIP3    H225696   6.158   6.674  10.133 -0.9549 -0.1003 -0.6296
  501TIP3   OH225697   1.382   1.019  11.289 -0.2563 -0.1886  0.4079
  501TIP3    H125698   1.380   1.107  11.251  0.0466 -0.0807  0.6360
  501TIP3    H225699   1.411   0.963  11.217 -0.1834 -0.0626  0.3382
  502TIP3   OH225700   0.536   5.844  11.229 -0.3599 -0.2322  0.6246
  502TIP3    H125701   0.513   5.877  11.316  0.2513  2.4275 -0.1541
  502TIP3    H225702   0.459   5.860  11.175 -0.5109 -1.3064  0.4838
  503TIP3   OH225703   1.559   0.722   9.859  0.1073  0.1037 -0.0105
  503TIP3    H125704   1.632   0.669   9.827 -0.0035  0.3297 -0.6461
  503TIP3    H225705   1.486   0.700   9.801  0.1191  1.1174 -0.4376
  504TIP3   OH225706   0.049   2.153   9.997  0.1617 -0.2475  0.1218
  504TIP3    H125707   0.031   2.224   9.936 -0.3494 -0.8353 -0.4300
  504TIP3    H225708   0.035   2.073   9.945 -1.4319 -0.7797  1.2872
  505TIP3   OH225709   3.642   1.297  11.269  0.1625 -0.0209  0.0002
  505TIP3    H125710   3.684   1.213  11.247 -0.6000 -0.3987 -0.0251
  505TIP3    H225711   3.549   1.277  11.275  0.2830 -0.1075  4.3046
  506TIP3   OH225712   6.469   5.650  11.288  0.7588  0.0894 -0.0888
  506TIP3    H125713   6.381   5.684  11.305  1.2372  0.3851  2.1164
  506TIP3    H225714   6.526   5.725  11.301  1.3721 -0.1713 -1.2211
  507TIP3   OH225715   0.048   5.403  12.148  0.2433 -0.3129  0.0938
  507TIP3    H125716   0.119   5.437  12.095  0.4599  0.7965  1.0452
  507TIP3    H225717   0.010   5.333  12.096  2.3893 -1.3308 -0.1905
  508TIP3   OH225718   2.055   6.840  13.039 -0.0131 -0.1655  0.4316
  508TIP3    H125719   2.097   6.773  13.093 -0.9931 -0.2413  1.1228
  508TIP3    H225720   2.104   6.920  13.058  1.0419 -0.6279 -0.2528
  509TIP3   OH225721   2.276   1.306  12.548  0.6742 -0.1231 -0.3651
  509TIP3    H125722   2.287   1.314  12.454 -0.1275 -1.7530 -0.6306
  509TIP3    H225723   2.291   1.213  12.566 -1.3409 -0.2699  0.7924
  510TIP3   OH225724   1.449   1.222  11.538  0.3376 -0.0018 -0.1405
  510TIP3    H125725   1.528   1.178  11.567  0.3657 -1.2433 -1.9083
  510TIP3    H225726   1.469   1.251  11.449 -1.3032 -0.7620 -0.8022
  511TIP3   OH225727   4.326   2.737  11.634 -0.4359 -0.0657 -0.3852
  511TIP3    H125728   4.392   2.685  11.587 -1.6667 -1.5289 -0.5896
  511TIP3    H225729   4.375   2.811  11.670  1.5504 -1.7113  0.4813
  512TIP3   OH225730   5.120   5.597  12.567 -0.4219  0.5017 -0.4467
  512TIP3    H125731   5.141   5.690  12.556 -0.2578  0.5244  0.0230
  512TIP3    H225732   5.196   5.561  12.614 -2.2397  0.9912  3.1513
  513TIP3   OH225733   6.113   4.994   9.569 -0.1649  0.3363  0.1536
  513TIP3    H125734   6.131   5.068   9.510 -2.0690 -0.5433 -1.6440
  513TIP3    H225735   6.049   5.029   9.631 -1.1436  0.1921 -0.7581
  514TIP3   OH225736   5.807   2.651  10.266  0.0730 -0.7731  0.4054
  514TIP3    H125737   5.716   2.628  10.250  0.1787 -1.3037  0.5596
  514TIP3    H225738   5.856   2.602  10.200  0.2890 -0.8613  0.6329
  515TIP3   OH225739   5.868   2.711  12.462 -0.7060  0.1261  0.2940
  515TIP3    H125740   5.829   2.761  12.389 -0.6852 -1.0052 -0.5181
  515TIP3    H225741   5.807   2.639  12.476  0.4257 -0.9251 -0.1045
  516TIP3   OH225742   1.911   3.770  11.690  0.0889  0.2239 -0.3996
  516TIP3    H125743   1.994   3.818  11.687  1.0467 -1.3956 -1.0180
  516TIP3    H225744   1.880   3.771  11.599 -0.8680  1.2743 -0.0819
  517TIP3   OH225745   3.601   0.473  11.827 -0.0467  0.2258  0.5758
  517TIP3    H125746   3.646   0.542  11.778 -1.8563  2.3392  1.7229
  517TIP3    H225747   3.585   0.511  11.913  1.4430 -2.7312  2.3267
  518TIP3   OH225748   3.197   1.685  12.725  0.2657 -0.5884 -0.1503
  518TIP3    H125749   3.144   1.606  12.739 -1.0615 -0.0926 -1.9025
  518TIP3    H225750   3.226   1.679  12.634  0.4130  0.7735 -0.2246
  519TIP3   OH225751   0.572   2.844  10.867 -0.6881 -0.3113  0.1342
  519TIP3    H125752   0.565   2.938  10.850  1.1701 -0.4524 -1.8827
  519TIP3    H225753   0.653   2.835  10.918 -0.0380 -0.9059 -0.9640
  520TIP3   OH225754   1.336   2.201  12.136  0.5100  0.5211  0.4179
  520TIP3    H125755   1.302   2.268  12.196 -1.1552  0.4142 -0.3473
  520TIP3    H225756   1.376   2.250  12.065 -0.6486  0.7259 -0.1092
  521TIP3   OH225757   1.151   2.440   9.892 -0.2256 -0.0211  0.5000
  521TIP3    H125758   1.126   2.368   9.834 -0.5979  1.8223 -1.7830
  521TIP3    H225759   1.069   2.482   9.916  0.1067  1.3284 -0.5814
  522TIP3   OH225760   5.345   4.373  10.858  0.5879 -0.1323 -0.5235
  522TIP3    H125761   5.354   4.433  10.784  1.7180  0.4129  0.0180
  522TIP3    H225762   5.283   4.307  10.829 -0.9069  1.4403 -1.0650
  523TIP3   OH225763   5.670   1.862  11.589 -0.4984 -0.2718 -0.7422
  523TIP3    H125764   5.712   1.903  11.513 -0.3773 -0.0596 -0.5604
  523TIP3    H225765   5.721   1.781  11.602 -1.6102 -1.2225 -1.9744
  524TIP3   OH225766   3.316   5.424  11.374 -0.4949  0.3006 -0.1745
  524TIP3    H125767   3.222   5.413  11.385 -0.4095 -0.4104 -0.0649
  524TIP3    H225768   3.349   5.335  11.359  0.3764  0.2740  1.5810
  525TIP3   OH225769   5.324   5.386  10.079  0.3770  0.0087 -0.3751
  525TIP3    H125770   5.297   5.436  10.002 -0.1054  1.7184  0.8428
  525TIP3    H225771   5.418   5.402  10.087  0.4608 -0.3053 -0.6744
  526TIP3   OH225772   2.017   6.198   9.667 -0.5974  0.2764  0.2496
  526TIP3    H125773   2.002   6.177   9.575 -0.8964  0.7209  0.1913
  526TIP3    H225774   2.093   6.146   9.692 -0.3075  0.4076 -0.3478
  527TIP3   OH225775   5.922   5.044  12.119 -0.8731  0.2643 -0.1813
  527TIP3    H125776   5.868   5.091  12.183 -0.1364  0.5544  0.2412
  527TIP3    H225777   5.874   4.963  12.102 -1.3780  0.4549  0.2862
  528TIP3   OH225778   6.448   5.039  12.791 -0.2690  0.9677  0.4226
  528TIP3    H125779   6.449   5.125  12.833  0.7217  1.0653  0.2248
  528TIP3    H225780   6.363   5.033  12.749 -0.8398  1.3323  1.4856
  529TIP3   OH225781   5.942   3.017  10.750 -0.0760  0.0786  0.2932
  529TIP3    H125782   6.005   3.052  10.687 -1.1253 -0.4263 -1.0831
  529TIP3    H225783   5.953   3.072  10.828  1.6593  0.3431 -0.0854
  530TIP3   OH225784   3.958   0.719  12.196  0.4014 -0.4959 -0.0137
  530TIP3    H125785   3.993   0.754  12.114  0.8402 -0.7596  0.0604
  530TIP3    H225786   3.952   0.796  12.253  0.0623 -0.3052 -0.2966
  531TIP3   OH225787   1.385   0.874  10.606  0.2506  0.0704 -0.4663
  531TIP3    H125788   1.384   0.779  10.603 -0.5539  0.0031  0.9578
  531TIP3    H225789   1.447   0.900  10.538 -0.0761 -1.4324 -1.3810
  532TIP3   OH225790   6.755   1.107  13.288 -0.6903  0.3714  0.3055
  532TIP3    H125791   6.723   1.020  13.262 -0.2085  0.0759  0.6860
  532TIP3    H225792   6.690   1.138  13.351 -0.5054 -0.0078  0.6880
  533TIP3   OH225793   1.216   3.753  12.989 -0.3498  0.3652  0.3493
  533TIP3    H125794   1.159   3.713  13.055 -0.2848 -0.8565 -0.3041
  533TIP3    H225795   1.232   3.682  12.926  0.9573  1.0287 -0.0847
  534TIP3   OH225796   0.011   2.176  11.701  0.6999 -0.3008 -0.2767
  534TIP3    H125797  -0.047   2.102  11.719  0.0136  0.2841  0.0184
  534TIP3    H225798   0.063   2.186  11.781  1.4284 -1.0092 -0.6509
  535TIP3   OH225799   0.330   1.349  12.542 -0.2341 -0.1686  0.0891
  535TIP3    H125800   0.283   1.265  12.537 -0.4982  0.0459 -1.3558
  535TIP3    H225801   0.421   1.323  12.555 -0.5103 -0.6227  1.3251
  536TIP3   OH225802   4.344   4.951  10.071 -0.1264 -0.9119 -0.5069
  536TIP3    H125803   4.251   4.961  10.091 -0.0202 -0.3187 -0.2983
  536TIP3    H225804   4.370   5.036  10.037  0.6387 -0.6753  0.6301
  537TIP3   OH225805   0.889   6.225  11.088  0.6476 -0.2251 -0.1613
  537TIP3    H125806   0.821   6.264  11.143  1.0570  0.1006  0.1246
  537TIP3    H225807   0.895   6.284  11.013  1.3803  0.3620  0.3503
  538TIP3   OH225808   2.529   5.907  12.539  0.0493  0.1275  0.0390
  538TIP3    H125809   2.547   5.895  12.632  0.4618  1.7401  0.2017
  538TIP3    H225810   2.472   5.834  12.515  0.2360 -0.5072  1.4630
  539TIP3   OH225811   3.564   6.085  11.701 -0.0302 -0.5878  0.0562
  539TIP3    H125812   3.529   6.002  11.669 -0.1033 -0.7506  0.5393
  539TIP3    H225813   3.655   6.066  11.722  1.2730  0.5059 -3.7745
  540TIP3   OH225814   1.627   5.688  11.541 -0.4175 -0.1002 -0.3801
  540TIP3    H125815   1.698   5.737  11.582 -0.1503  0.1222 -1.0976
  540TIP3    H225816   1.671   5.621  11.488 -0.7714 -0.9244  0.3363
  541TIP3   OH225817   3.473   5.859  11.589  0.3605  0.1805  1.0983
  541TIP3    H125818   3.534   5.787  11.580  1.4671  1.1389  0.6328
  541TIP3    H225819   3.387   5.821  11.571  1.0861 -0.6972 -0.7886
  542TIP3   OH225820   0.461   3.620  12.946 -0.0046 -0.1725  0.7815
  542TIP3    H125821   0.403   3.574  12.886 -0.6630  0.9487  0.5219
  542TIP3    H225822   0.525   3.663  12.890 -0.2399  0.3621  0.9169
  543TIP3   OH225823   5.705   6.174  10.474 -0.6026  0.0480  0.7491
  543TIP3    H125824   5.766   6.143  10.407 -1.6300 -0.5851  0.0672
  543TIP3    H225825   5.742   6.144  10.556 -0.2870 -0.8336  0.2968
  544TIP3   OH225826   1.785   1.360  10.712 -0.5688  0.4385 -0.2148
  544TIP3    H125827   1.777   1.276  10.668  0.0105  0.3515 -0.1576
  544TIP3    H225828   1.695   1.389  10.725 -0.7651  0.7920 -2.0874
  545TIP3   OH225829   3.028   0.916  11.320  0.3034 -0.7862 -0.0504
  545TIP3    H125830   2.961   0.878  11.377 -1.0173  0.6334 -0.5719
  545TIP3    H225831   3.070   0.982  11.374 -0.5270  0.1270 -0.4775
  546TIP3   OH225832   3.995   5.450  11.048  0.1303  0.1929 -0.1485
  546TIP3    H125833   4.058   5.418  11.112  0.3905 -0.2084 -0.5997
  546TIP3    H225834   4.048   5.472  10.971 -0.2542  0.0240 -0.4701
  547TIP3   OH225835   3.958   1.038  12.900  0.6455 -0.2083  0.1389
  547TIP3    H125836   3.987   1.123  12.934 -1.5050  0.4055  0.5738
  547TIP3    H225837   3.946   0.984  12.978  1.8634 -0.9046 -0.1274
  548TIP3   OH225838   0.140   3.557  11.010 -1.2621 -0.3818  0.0215
  548TIP3    H125839   0.228   3.559  10.972 -1.5275  2.2973 -0.6277
  548TIP3    H225840   0.092   3.495  10.955  0.4028 -2.6860  1.0027
  549TIP3   OH225841   2.481   6.517  12.578  0.2429  0.0891 -0.5085
  549TIP3    H125842   2.409   6.456  12.594  1.9873 -1.1510  4.2537
  549TIP3    H225843   2.438   6.600  12.558 -2.7166 -0.3915  2.8186
  550TIP3   OH225844   3.498   4.340  12.131 -0.0314  0.4213  0.0541
  550TIP3    H125845   3.462   4.362  12.045  1.9342 -2.3535 -1.6593
  550TIP3    H225846   3.454   4.258  12.155  0.7411  0.2116  0.8074
  551TIP3   OH225847   0.547   0.674   9.610  0.1298 -0.2157  0.4679
  551TIP3    H125848   0.555   0.678   9.515  0.0156  0.6086  0.4796
  551TIP3    H225849   0.460   0.639   9.626 -0.3620  0.8452  0.2423
  552TIP3   OH225850   5.884   4.086  11.471 -0.1263 -0.0716 -0.7066
  552TIP3    H125851   5.847   4.106  11.386 -1.8014  0.5679  0.1342
  552TIP3    H225852   5.963   4.139  11.476 -1.0387  1.3646 -1.1166
  553TIP3   OH225853   5.007   5.485  10.752 -0.0413 -0.2807 -0.0654
  553TIP3    H125854   5.089   5.462  10.795 -0.2818  0.2498  0.6954
  553TIP3    H225855   4.978   5.564  10.797 -0.7447 -0.2071 -0.6306
  554TIP3   OH225856   3.505   6.267  10.161 -0.2507 -0.1556 -0.0339
  554TIP3    H125857   3.479   6.224  10.243 -0.9293  0.0012 -0.1536
  554TIP3    H225858   3.588   6.227  10.137 -0.2821 -0.5382  0.4913
  555TIP3   OH225859   4.628   3.601  11.845  0.2694 -0.7026  0.7354
  555TIP3    H125860   4.670   3.673  11.799  1.1736 -1.2145  0.7341
  555TIP3    H225861   4.568   3.644  11.907  0.1492  0.0172  0.1317
  556TIP3   OH225862   6.692   2.236  11.153  0.3798 -0.3268  0.0461
  556TIP3    H125863   6.735   2.192  11.227  0.1659 -1.1940 -0.3282
  556TIP3    H225864   6.625   2.174  11.125 -2.5206  1.7254  1.8304
  557TIP3   OH225865   4.924   6.212  12.238 -0.0618  0.0325 -0.0298
  557TIP3    H125866   4.921   6.297  12.280  1.6617 -0.1501  0.5454
  557TIP3    H225867   5.017   6.199  12.216 -0.0970 -2.0888  0.7867
  558TIP3   OH225868   4.883   6.404  11.661 -0.1104 -0.8879 -0.0819
  558TIP3    H125869   4.831   6.474  11.699  0.2201 -0.7439  0.1046
  558TIP3    H225870   4.883   6.334  11.727 -0.2563 -0.9795 -0.1766
  559TIP3   OH225871   0.374   0.046  11.044  1.1202 -0.3310 -1.0913
  559TIP3    H125872   0.426  -0.029  11.074  0.0528 -1.5775 -2.2420
  559TIP3    H225873   0.438   0.115  11.029  1.9639 -0.3512  1.7396
  560TIP3   OH225874   6.755   3.607  11.918 -0.2461 -0.2909  0.0237
  560TIP3    H125875   6.695   3.678  11.937 -0.1656  0.5238 -2.4425
  560TIP3    H225876   6.704   3.544  11.867  0.2265 -1.0354  0.4347
  561TIP3   OH225877   5.993   6.016  10.795  0.1151 -0.1168  0.1636
  561TIP3    H125878   5.963   6.092  10.746 -2.3469  2.5088  4.9937
  561TIP3    H225879   6.089   6.020  10.790  0.0086  1.4442 -2.1310
  562TIP3   OH225880   2.560   1.794  10.918 -0.3853 -0.2170 -0.0446
  562TIP3    H125881   2.505   1.857  10.965  2.6193  0.9819  2.1479
  562TIP3    H225882   2.555   1.823  10.827 -0.2304  2.4052  0.6930
  563TIP3   OH225883   1.266   4.309  12.726 -0.2343  0.6413 -0.3959
  563TIP3    H125884   1.195   4.370  12.746  0.3278  1.6385 -1.3014
  563TIP3    H225885   1.306   4.289  12.810 -1.6303 -0.0192  0.1421
  564TIP3   OH225886   5.585   3.918  10.720 -0.7019  0.2274  0.5118
  564TIP3    H125887   5.511   3.905  10.780 -1.7890 -0.0083 -0.8457
  564TIP3    H225888   5.555   3.984  10.658  0.8648  1.3745  0.9116
  565TIP3   OH225889   4.866   4.615  10.833 -0.1586 -0.0224 -0.1672
  565TIP3    H125890   4.933   4.668  10.789  1.7914  2.4571  5.0164
  565TIP3    H225891   4.907   4.529  10.844 -0.0154 -0.1483 -1.5079
  566TIP3   OH225892   2.628   5.699  11.957  0.2036 -0.0033 -0.1706
  566TIP3    H125893   2.670   5.735  12.036  0.7927 -2.5435  0.7868
  566TIP3    H225894   2.678   5.620  11.938 -2.2892 -1.5152 -0.8155
  567TIP3   OH225895   6.030   5.625  11.144  0.1549 -0.6003  0.4175
  567TIP3    H125896   6.012   5.709  11.102  1.8624 -0.2844  0.2601
  567TIP3    H225897   6.091   5.645  11.214 -0.8673 -1.4625  1.6136
  568TIP3   OH225898   4.282   6.654  12.066  0.7009  0.2843  0.2028
  568TIP3    H125899   4.253   6.729  12.013  0.0580  0.9765  1.4876
  568TIP3    H225900   4.201   6.606  12.085  0.5210  1.3878  2.5541
  569TIP3   OH225901   6.453   6.504  10.155 -0.0376  0.5121  0.5529
  569TIP3    H125902   6.497   6.571  10.103 -1.0485  1.9708  1.4852
  569TIP3    H225903   6.521   6.473  10.216  0.4361  0.7117  0.1316
  570TIP3   OH225904   4.629   6.067  11.215 -0.1857 -0.1339  0.5034
  570TIP3    H125905   4.590   6.154  11.224 -0.4654 -0.2904  0.8157
  570TIP3    H225906   4.598   6.019  11.292  1.2087 -0.0490  1.1412
  571TIP3   OH225907   1.003   6.607  12.298  0.1221  0.0287  0.6671
  571TIP3    H125908   0.957   6.635  12.377 -1.1066  0.2426 -0.0999
  571TIP3    H225909   1.044   6.687  12.265 -2.1770  0.7002 -0.7274
  572TIP3   OH225910   2.907   0.672  10.868  0.4097  0.0893  0.0763
  572TIP3    H125911   2.983   0.616  10.860 -1.1670 -2.0527 -0.8507
  572TIP3    H225912   2.933   0.739  10.931  3.2782 -0.0710 -0.7987
  573TIP3   OH225913   4.636   0.086  11.019 -0.1157  0.5008  0.0793
  573TIP3    H125914   4.679   0.100  11.104 -2.0187  2.2215  0.8419
  573TIP3    H225915   4.553   0.134  11.026 -1.0168 -0.5793 -2.2259
  574TIP3   OH225916   0.924   0.486   9.804  0.2483 -0.5948  0.0039
  574TIP3    H125917   0.924   0.402   9.850  0.2109 -0.5885  0.0147
  574TIP3    H225918   0.978   0.470   9.726 -1.2993 -1.1636 -0.9834
  575TIP3   OH225919   1.021   6.069  11.573 -0.3401  0.5539 -0.2951
  575TIP3    H125920   0.971   6.036  11.498 -0.2321  0.6175 -0.3951
  575TIP3    H225921   1.041   6.160  11.551  0.3380  0.3588 -0.5281
  576TIP3   OH225922   1.531   5.929  11.416 -0.0188 -0.5098 -0.1994
  576TIP3    H125923   1.469   5.857  11.400 -0.0121 -0.2233 -1.6071
  576TIP3    H225924   1.582   5.934  11.336 -0.4472  1.4948 -0.3846
  577TIP3   OH225925   6.723   2.454  10.606  0.4114  0.1286  0.4968
  577TIP3    H125926   6.797   2.461  10.667  0.3738 -0.2336  0.5854
  577TIP3    H225927   6.751   2.390  10.541  0.4881  0.5883  0.0763
  578TIP3   OH225928   1.503   5.662  11.072  0.0805 -0.6230 -0.2952
  578TIP3    H125929   1.439   5.706  11.016  0.5426  0.7740  0.2122
  578TIP3    H225930   1.454   5.638  11.151  0.0027 -0.2271 -0.2182
  579TIP3   OH225931   2.441   6.055  12.934 -0.0290  0.2436 -0.1843
  579TIP3    H125932   2.445   5.999  13.011 -0.2191  0.1045 -0.2768
  579TIP3    H225933   2.401   6.136  12.966  0.4193  0.4023 -0.0092
  580TIP3   OH225934   1.191   3.220  11.524  0.0587 -0.2766  0.5338
  580TIP3    H125935   1.261   3.225  11.460 -1.6516  0.4972 -1.3918
  580TIP3    H225936   1.205   3.295  11.582  0.6735  0.0176  0.0099
  581TIP3   OH225937   3.843   0.855  10.614  0.1357  0.3897  0.0674
  581TIP3    H125938   3.841   0.772  10.663 -2.4703  0.5403  0.3791
  581TIP3    H225939   3.913   0.906  10.655  1.6435 -1.5343  0.0181
  582TIP3   OH225940   2.498   0.933  12.493 -0.0685 -0.0653  0.2244
  582TIP3    H125941   2.422   0.991  12.502 -1.7339 -2.3391  1.7237
  582TIP3    H225942   2.465   0.856  12.447  1.0075 -1.5347  1.7712
  583TIP3   OH225943   3.508   3.690  13.139  1.0013 -0.0862  0.3934
  583TIP3    H125944   3.597   3.697  13.104  0.7789  1.2723  0.0707
  583TIP3    H225945   3.483   3.780  13.161  0.0443 -0.5619  1.3403
  584TIP3   OH225946   5.366   0.897  12.340 -0.8691 -0.1548  0.0548
  584TIP3    H125947   5.295   0.889  12.404  0.4374 -1.7951  1.4070
  584TIP3    H225948   5.425   0.963  12.378 -0.5981 -0.3899  0.0474
  585TIP3   OH225949   3.437   5.258  12.876 -0.2863  0.0042  0.4405
  585TIP3    H125950   3.402   5.181  12.921  0.6229 -0.2275  0.7826
  585TIP3    H225951   3.360   5.304  12.844 -1.0119  0.2408  2.3524
  586TIP3   OH225952   4.212   4.643  11.395  0.2586 -0.2704  0.6129
  586TIP3    H125953   4.280   4.706  11.368 -0.3713 -0.2580 -1.0460
  586TIP3    H225954   4.252   4.595  11.468  2.0207 -0.1911 -0.2398
  587TIP3   OH225955   1.268   0.282   9.758  0.8646 -0.1868 -0.5335
  587TIP3    H125956   1.178   0.272   9.726  0.2883  0.5227  0.7777
  587TIP3    H225957   1.323   0.261   9.682 -0.4248  2.6875 -2.4840
  588TIP3   OH225958   5.037   0.475  10.615 -0.0984  0.2713 -0.6503
  588TIP3    H125959   5.060   0.464  10.523 -0.4626 -0.7822 -0.6324
  588TIP3    H225960   5.101   0.422  10.662 -0.2386  0.3765 -0.3370
  589TIP3   OH225961   6.166   2.831  12.497  0.1166  0.3413  0.5537
  589TIP3    H125962   6.116   2.793  12.426  1.6798  0.3844 -0.6374
  589TIP3    H225963   6.203   2.756  12.544 -0.4695  0.3228  0.9891
  590TIP3   OH225964   4.148   2.052  10.978 -0.4789 -0.0701 -0.7922
  590TIP3    H125965   4.128   1.968  10.937 -1.2030 -1.5169  2.2394
  590TIP3    H225966   4.225   2.034  11.032  0.1750  1.6191 -1.1081
  591TIP3   OH225967   3.712   3.452  11.196  0.2492  0.0531 -0.3221
  591TIP3    H125968   3.799   3.474  11.228  0.9678 -2.0622 -0.6758
  591TIP3    H225969   3.694   3.519  11.129  1.6662  0.4109 -0.3764
  592TIP3   OH225970   0.474   0.251  12.186 -0.1991  0.2157 -0.1535
  592TIP3    H125971   0.411   0.315  12.155  0.3571  1.0297  0.3561
  592TIP3    H225972   0.505   0.208  12.106 -0.5499  0.6071 -0.5079
  593TIP3   OH225973   4.680   5.637  11.020  0.0662  0.5844  0.6728
  593TIP3    H125974   4.667   5.664  11.111 -0.1758  1.1969  0.4651
  593TIP3    H225975   4.645   5.710  10.969 -1.3457 -0.4594  0.0815
  594TIP3   OH225976   3.575   1.365  12.577  0.1144  0.3930  0.7177
  594TIP3    H125977   3.562   1.341  12.669 -0.0291  0.9881  0.8549
  594TIP3    H225978   3.640   1.435  12.580 -1.4157  1.8702  0.5405
  595TIP3   OH225979   5.333   1.191  11.436 -0.0458  0.1179 -0.1603
  595TIP3    H125980   5.307   1.149  11.518  1.6354 -1.0132 -0.1624
  595TIP3    H225981   5.348   1.119  11.375 -1.9466  0.9685 -1.7236
  596TIP3   OH225982   2.228   3.818   9.937  0.7914  0.5910 -0.2235
  596TIP3    H125983   2.242   3.724   9.948  1.6616  0.7617  0.2173
  596TIP3    H225984   2.165   3.841  10.006  0.5627  0.3321 -0.3438
  597TIP3   OH225985   6.027   1.570  11.940  0.1104  0.1003  0.2481
  597TIP3    H125986   6.079   1.498  11.975 -1.1309 -0.0787  1.7871
  597TIP3    H225987   5.940   1.559  11.978 -0.1161  2.4243  0.5444
  598TIP3   OH225988   4.705   4.019  10.905 -0.1810 -0.0342 -0.4779
  598TIP3    H125989   4.726   4.110  10.927 -1.9584  0.3561 -0.2352
  598TIP3    H225990   4.706   4.017  10.809  1.4171 -0.1871 -0.4892
  599TIP3   OH225991   2.848   3.257   9.906 -0.0191  0.1476  0.1079
  599TIP3    H125992   2.767   3.308   9.908 -0.1820 -0.0003 -1.4441
  599TIP3    H225993   2.908   3.309   9.853  0.2879 -0.5848 -0.2839
  600TIP3   OH225994   3.641   6.129  10.627  0.4267 -0.5311 -0.2373
  600TIP3    H125995   3.682   6.045  10.648 -0.1655 -1.4364 -2.4533
  600TIP3    H225996   3.547   6.111  10.631  0.1990  0.7436  1.7784
  601TIP3   OH225997   0.109   0.635  10.978  0.8155 -0.0487  0.1381
  601TIP3    H125998   0.076   0.572  11.043  1.1354  0.9164  1.2572
  601TIP3    H225999   0.142   0.708  11.029  2.1913  0.2248 -1.0767
  602TIP3   OH226000   4.767   2.547  11.444  0.0108  0.6571 -0.1002
  602TIP3    H126001   4.781   2.536  11.538  0.8852  0.4795 -0.2432
  602TIP3    H226002   4.795   2.464  11.406 -0.9225  0.5018 -0.4730
  603TIP3   OH226003   6.248   6.380  12.297 -0.4863  0.2568 -0.9574
  603TIP3    H126004   6.340   6.385  12.272 -0.0481 -0.1373  0.4485
  603TIP3    H226005   6.231   6.462  12.343 -0.4493 -0.2226 -0.0647
  604TIP3   OH226006   6.493   5.450  12.304 -0.6175 -0.1938 -0.4090
  604TIP3    H126007   6.422   5.471  12.243 -0.8170  0.0594 -0.0926
  604TIP3    H226008   6.540   5.378  12.262 -0.8535 -0.1338 -0.7833
  605TIP3   OH226009   3.790   4.784  11.626 -0.5161  0.4773 -0.0023
  605TIP3    H126010   3.759   4.749  11.709 -2.1232  2.1544  0.1640
  605TIP3    H226011   3.740   4.737  11.559  2.7581 -2.9609 -0.3663
  606TIP3   OH226012   5.872   5.565  12.597  0.6411 -0.2699  0.3977
  606TIP3    H126013   5.931   5.637  12.619  1.1883 -0.9501  1.2181
  606TIP3    H226014   5.859   5.573  12.503 -0.3969  1.6988  0.6323
  607TIP3   OH226015   3.250   1.230  11.746  0.0889  0.7865 -0.0961
  607TIP3    H126016   3.234   1.291  11.817  0.1674 -0.7099  1.2721
  607TIP3    H226017   3.165   1.188  11.730  0.5833 -0.7678  1.0137
  608TIP3   OH226018   3.576   2.840  10.044  0.2084  0.4545 -0.1827
  608TIP3    H126019   3.482   2.857  10.048 -0.0490 -1.0311  1.6676
  608TIP3    H226020   3.586   2.779   9.971 -0.0814  1.4666 -1.0936
  609TIP3   OH226021   5.292   3.891   9.461 -0.1354 -0.5461 -0.6333
  609TIP3    H126022   5.385   3.872   9.445  0.1789 -0.4850  0.9402
  609TIP3    H226023   5.293   3.978   9.501 -0.5241 -1.7488  2.2731
  610TIP3   OH226024   0.951   5.027  11.123 -0.0679 -0.0530  0.0925
  610TIP3    H126025   0.957   4.940  11.164 -3.2930 -1.3180 -1.7241
  610TIP3    H226026   0.895   5.077  11.182 -2.8077 -1.1447 -1.3664
  611TIP3   OH226027   3.763   1.174  13.090  0.3891  0.1006 -0.1986
  611TIP3    H126028   3.807   1.259  13.091  1.0830 -0.2380  1.1920
  611TIP3    H226029   3.671   1.194  13.076  0.1812  1.3228  2.2445
  612TIP3   OH226030   3.436   1.809  12.035 -0.5642 -0.2658 -0.2296
  612TIP3    H126031   3.473   1.890  12.070  0.5333 -0.6404 -0.4871
  612TIP3    H226032   3.510   1.749  12.029 -1.2323 -1.0692 -0.6880
  613TIP3   OH226033   1.014   2.481  10.176  0.4283 -0.1884 -0.1650
  613TIP3    H126034   0.961   2.539  10.121  1.1609 -1.5018 -2.4238
  613TIP3    H226035   1.064   2.540  10.232 -0.7276  1.2267 -0.5556
  614TIP3   OH226036   5.395   2.420  11.817 -0.2206 -0.0729 -0.3511
  614TIP3    H126037   5.471   2.408  11.874 -0.0310  0.3724 -0.4997
  614TIP3    H226038   5.432   2.431  11.729 -0.3159  1.8488 -0.1981
  615TIP3   OH226039   6.587   2.560  10.003 -0.2926  0.1276 -0.1611
  615TIP3    H126040   6.507   2.609  10.021 -1.5768 -0.9381 -2.5596
  615TIP3    H226041   6.630   2.610   9.933 -0.0322 -0.5336 -0.4782
  616TIP3   OH226042   2.105   6.406  11.123  0.2869  0.2857 -0.2925
  616TIP3    H126043   2.172   6.397  11.191  0.7005 -1.6454 -0.9099
  616TIP3    H226044   2.023   6.410  11.171  0.6980  0.9393  0.3907
  617TIP3   OH226045   3.547   0.280  12.981  0.6112 -0.0192 -0.2206
  617TIP3    H126046   3.506   0.367  12.977  0.7525  0.1124  0.8361
  617TIP3    H226047   3.632   0.291  12.937  1.1419  0.7031  0.9284
  618TIP3   OH226048   1.449   3.232  12.816  0.1644  0.0764  0.6627
  618TIP3    H126049   1.522   3.292  12.803  1.6275 -1.9308 -1.1883
  618TIP3    H226050   1.396   3.241  12.737  0.4451 -1.0388  0.3228
  619TIP3   OH226051   0.678   2.287  11.322  0.3692  0.6984  0.3769
  619TIP3    H126052   0.673   2.383  11.323 -0.4323  0.6675  2.0217
  619TIP3    H226053   0.601   2.259  11.371  1.0932 -0.7675  0.7152
  620TIP3   OH226054   5.374   0.648  11.500 -0.5453 -0.7759  0.0203
  620TIP3    H126055   5.427   0.701  11.441 -0.1480 -0.8203  0.3353
  620TIP3    H226056   5.338   0.711  11.563 -1.6307 -0.6063 -0.7385
  621TIP3   OH226057   1.324   2.610  10.012 -0.5145 -0.5010  0.5008
  621TIP3    H126058   1.249   2.563   9.975 -0.5433 -1.3095  1.5326
  621TIP3    H226059   1.397   2.548  10.005 -0.4405 -0.5330  1.4406
  622TIP3   OH226060   3.341   3.943  12.999  0.3826 -0.2382 -0.1644
  622TIP3    H126061   3.323   3.889  12.922 -0.5181  0.1841 -0.2581
  622TIP3    H226062   3.427   3.981  12.982 -0.0734  0.3391 -1.2512
  623TIP3   OH226063   5.438   4.867  10.919  0.2152  0.0065 -0.4546
  623TIP3    H126064   5.355   4.900  10.886 -1.1319 -1.3854  1.3112
  623TIP3    H226065   5.493   4.945  10.929 -1.0434  1.0268 -1.1922
  624TIP3   OH226066   4.441   4.966  12.002 -0.3890 -0.2897  0.1767
  624TIP3    H126067   4.486   5.013  12.072  0.8863 -0.3432 -0.5680
  624TIP3    H226068   4.374   4.914  12.046  0.0526  0.0680  1.2901
  625TIP3   OH226069   1.305   1.133  13.037  0.0720  0.1656  0.6963
  625TIP3    H126070   1.281   1.185  12.960  1.0797  0.5898  0.6511
  625TIP3    H226071   1.346   1.054  13.001  0.2832  0.2319  0.7884
  626TIP3   OH226072   4.794   0.885  13.009 -0.2383  0.7755 -0.6745
  626TIP3    H126073   4.875   0.935  13.003 -1.0407  2.2954  0.3788
  626TIP3    H226074   4.819   0.802  13.048  0.7163  1.5756  0.5042
  627TIP3   OH226075   4.537   0.423  10.699 -0.4470  1.0341  0.1051
  627TIP3    H126076   4.456   0.374  10.687  0.4742 -0.2397 -1.4215
  627TIP3    H226077   4.520   0.508  10.658 -0.6229  0.2921 -1.4474
  628TIP3   OH226078   1.277   2.904  13.139  0.2178  0.1657 -0.1338
  628TIP3    H126079   1.185   2.913  13.165 -0.0380  0.2083 -1.0259
  628TIP3    H226080   1.307   2.994  13.125  1.3100  0.4321  3.0806
  629TIP3   OH226081   6.294   2.183  11.066  0.2079  0.2801 -0.4530
  629TIP3    H126082   6.337   2.159  11.148  0.7318 -0.7196 -0.9980
  629TIP3    H226083   6.365   2.191  11.003 -0.0660  2.2418 -0.5681
  630TIP3   OH226084   4.524   2.210  11.547 -0.6927  0.7140  0.4850
  630TIP3    H126085   4.459   2.203  11.476  0.7903 -1.5302 -0.8146
  630TIP3    H226086   4.608   2.201  11.502  0.4335  1.5808  2.3308
  631TIP3   OH226087   0.886   3.454  13.161 -0.4303  0.3204  0.1748
  631TIP3    H126088   0.791   3.447  13.161 -0.4165  0.0912  0.2845
  631TIP3    H226089   0.914   3.398  13.088 -0.4287  1.2376 -0.5423
  632TIP3   OH226090   2.282   1.489  12.117 -0.1927 -0.4572 -0.2891
  632TIP3    H126091   2.252   1.579  12.128 -1.1737 -0.8721  0.5900
  632TIP3    H226092   2.345   1.494  12.044 -1.0780  0.7448 -1.0206
  633TIP3   OH226093   6.055   3.426  12.134 -0.2247  0.0831  0.1523
  633TIP3    H126094   6.134   3.472  12.106 -0.1416 -0.9012 -1.3453
  633TIP3    H226095   6.080   3.382  12.215 -0.0198  1.8212  1.0716
  634TIP3   OH226096   2.243   6.067   9.791  0.5950  0.5909 -0.5099
  634TIP3    H126097   2.275   6.097   9.876 -1.8344 -2.7373  1.8490
  634TIP3    H226098   2.320   6.030   9.748  1.3869 -0.4447  1.6565
  635TIP3   OH226099   5.291   2.674  12.355 -0.0507  0.0140 -0.0928
  635TIP3    H126100   5.256   2.599  12.306  0.5056 -0.7942  0.7195
  635TIP3    H226101   5.381   2.650  12.375 -0.3619  0.1528  1.6342
  636TIP3   OH226102   0.231   0.342  12.160  0.2524  0.5563 -0.1086
  636TIP3    H126103   0.147   0.387  12.174 -0.2993 -0.8671  1.5957
  636TIP3    H226104   0.207   0.252  12.139  1.3458  0.1707  0.2045
  637TIP3   OH226105   0.889   5.469  11.140 -0.2050 -0.6276  0.2039
  637TIP3    H126106   0.795   5.450  11.128 -0.4415  1.3201 -1.7956
  637TIP3    H226107   0.895   5.565  11.131  2.0286 -0.7553 -0.1591
  638TIP3   OH226108   1.860   3.795  12.760  0.1280 -0.1052  0.3040
  638TIP3    H126109   1.930   3.829  12.816 -0.5540  1.8851  0.0408
  638TIP3    H226110   1.779   3.816  12.807 -0.4075  0.7180 -0.9269
  639TIP3   OH226111   1.463   1.528  11.349 -0.1057 -0.4837 -0.4050
  639TIP3    H126112   1.559   1.528  11.356 -0.1206  2.0962  1.2092
  639TIP3    H226113   1.436   1.609  11.393 -3.0585 -1.1930 -0.7081
  640TIP3   OH226114   4.262   5.772  11.780 -0.3619  0.5729 -0.7533
  640TIP3    H126115   4.302   5.692  11.746  0.3896  0.0050  1.3200
  640TIP3    H226116   4.335   5.821  11.817 -1.1056  1.2418 -0.1536
  641TIP3   OH226117   3.767   3.895  11.504 -0.1455 -0.4334  0.0394
  641TIP3    H126118   3.793   3.987  11.510 -2.4013  0.4737 -2.0681
  641TIP3    H226119   3.685   3.891  11.554  0.0130 -1.3707  0.2442
  642TIP3   OH226120   2.077   0.524  11.963 -0.2336  0.1311 -0.4079
  642TIP3    H126121   1.994   0.476  11.965  0.1317 -0.5451  1.4097
  642TIP3    H226122   2.052   0.614  11.942 -1.2478 -0.3292 -1.3000
  643TIP3   OH226123   5.946   4.188  11.910 -0.4152 -0.7006 -0.3729
  643TIP3    H126124   5.866   4.228  11.876  0.6795  0.9476 -1.1789
  643TIP3    H226125   5.985   4.143  11.835  0.2822  0.0071 -0.4469
  644TIP3   OH226126   6.393   5.983  10.110 -0.3436  0.1916 -0.1508
  644TIP3    H126127   6.447   6.019  10.040  0.9185 -1.4533 -0.0875
  644TIP3    H226128   6.338   5.917  10.067 -1.7419  1.2466 -0.0602
  645TIP3   OH226129   3.649   3.473  12.406 -0.1923 -0.0980  0.1919
  645TIP3    H126130   3.607   3.445  12.325 -0.0881  1.2134 -0.3405
  645TIP3    H226131   3.590   3.442  12.475 -1.1094  0.1401 -0.4668
  646TIP3   OH226132   0.635   4.840  10.082 -0.1857  0.3042  0.2748
  646TIP3    H126133   0.675   4.927  10.080  0.9782 -0.1645  1.6327
  646TIP3    H226134   0.689   4.787  10.024  0.1618  0.0775  0.7995
  647TIP3   OH226135   3.090   5.882  10.686  0.5701  0.7843 -0.2668
  647TIP3    H126136   3.123   5.813  10.628  1.4358  0.0971  0.9890
  647TIP3    H226137   3.107   5.849  10.774 -2.5827  0.8374  0.4965
  648TIP3   OH226138   4.055   4.137  10.260  0.3795 -0.3838  0.2836
  648TIP3    H126139   4.008   4.219  10.247  1.0478  0.1827  1.2612
  648TIP3    H226140   4.065   4.100  10.173  1.1974  1.2193 -0.3429
  649TIP3   OH226141   3.821   3.483  12.159  0.8108  0.0949  0.2485
  649TIP3    H126142   3.840   3.410  12.101  2.2019  0.7115 -0.1034
  649TIP3    H226143   3.893   3.485  12.221 -0.1258  0.0915  1.3798
  650TIP3   OH226144   2.342   0.381  11.222  0.5725  0.4092 -0.2828
  650TIP3    H126145   2.289   0.322  11.169  2.7269 -2.6807  0.7383
  650TIP3    H226146   2.280   0.420  11.283 -0.8761 -1.5854 -0.3804
  651TIP3   OH226147   2.449   4.636  11.136  0.0412 -1.1191  0.2061
  651TIP3    H126148   2.470   4.587  11.216  0.4323 -2.1770 -0.5239
  651TIP3    H226149   2.393   4.577  11.086  0.4385 -0.7821 -0.6523
  652TIP3   OH226150   2.241   0.919  11.389  0.0856 -0.4788  0.0136
  652TIP3    H126151   2.271   1.007  11.411  1.1507 -0.7121 -0.4175
  652TIP3    H226152   2.155   0.911  11.430 -1.3781  1.7966 -2.3406
  653TIP3   OH226153   4.949   2.556   9.840  0.5779  0.1028 -0.4135
  653TIP3    H126154   4.919   2.573   9.751 -1.0546  0.4332  0.1571
  653TIP3    H226155   4.924   2.465   9.856 -1.3837  0.7409  0.4916
  654TIP3   OH226156   2.879   2.712  11.152  0.3207 -0.1614  0.2186
  654TIP3    H126157   2.801   2.766  11.138  0.7073  0.4531  0.3583
  654TIP3    H226158   2.845   2.626  11.177 -0.3093  0.1079  0.3090
  655TIP3   OH226159   3.107   5.404  11.775 -0.6651 -0.3461 -0.6330
  655TIP3    H126160   3.113   5.312  11.800  0.5521 -0.0806  0.0940
  655TIP3    H226161   3.161   5.411  11.697 -0.6754 -0.2193 -0.6286
  656TIP3   OH226162   4.358   6.643  13.314  0.3266 -0.3439  0.3582
  656TIP3    H126163   4.442   6.632  13.271  1.6370  1.0491  2.3609
  656TIP3    H226164   4.378   6.696  13.392 -2.5104  0.6620  0.5184
  657TIP3   OH226165   3.502   2.082  12.369 -0.4877  0.4513  0.0609
  657TIP3    H126166   3.551   2.163  12.363 -0.9796  0.7714  0.2814
  657TIP3    H226167   3.517   2.038  12.285  0.0584  0.6029  0.0766
  658TIP3   OH226168   6.408   3.247  11.199 -0.5785  0.0780 -0.1972
  658TIP3    H126169   6.430   3.336  11.174 -1.4824  0.4879  0.3981
  658TIP3    H226170   6.417   3.196  11.119 -1.7064  1.0242 -0.9648
  659TIP3   OH226171   3.147   6.129  11.333  0.1207  0.6870  0.2270
  659TIP3    H126172   3.156   6.042  11.373  0.1569  0.8948  0.6868
  659TIP3    H226173   3.079   6.118  11.267  0.3592  0.2322  0.0489
  660TIP3   OH226174   4.327   1.084  11.746  0.0624 -0.0252  0.8224
  660TIP3    H126175   4.350   1.074  11.839  0.1784  0.3659  0.8358
  660TIP3    H226176   4.392   1.145  11.711 -0.8833  1.0261  0.8451
  661TIP3   OH226177   6.295   3.866   9.762 -0.1254  0.2916 -0.4780
  661TIP3    H126178   6.310   3.959   9.782  0.3804 -0.1024  1.1177
  661TIP3    H226179   6.202   3.861   9.741  0.0328  1.3015 -1.5763
  662TIP3   OH226180   4.237   1.449  12.084 -1.4499 -0.0363  0.3128
  662TIP3    H126181   4.210   1.387  12.016  3.3404  0.1470 -2.1929
  662TIP3    H226182   4.277   1.394  12.151  1.9675  0.0050 -1.4830
  663TIP3   OH226183   1.024   1.391  10.795 -0.1144 -0.2694  0.1213
  663TIP3    H126184   0.962   1.464  10.793 -1.5081 -1.2976  2.2709
  663TIP3    H226185   0.984   1.325  10.739 -0.1698 -0.3482  0.2532
  664TIP3   OH226186   6.017   0.835  11.799  0.0572  0.4692 -0.1188
  664TIP3    H126187   6.078   0.774  11.756  0.2938  2.1539 -2.3554
  664TIP3    H226188   5.988   0.893  11.729 -3.2153  0.5253  1.1216
  665TIP3   OH226189   4.586   4.689  12.654 -0.2594 -0.0929 -0.2426
  665TIP3    H126190   4.606   4.679  12.561 -0.0370  0.9748 -0.3201
  665TIP3    H226191   4.561   4.601  12.683  2.5626 -1.1104 -0.5838
  666TIP3   OH226192   1.013   2.898  13.225  0.2385  0.0339 -0.1244
  666TIP3    H126193   0.974   2.860  13.304  0.9982  1.3434  0.9437
  666TIP3    H226194   0.942   2.949  13.186  0.0098 -0.1486  0.0502
  667TIP3   OH226195   3.387   5.455  11.737  0.3695 -0.4014 -0.4273
  667TIP3    H126196   3.369   5.374  11.785 -1.2240  0.5493  0.6636
  667TIP3    H226197   3.480   5.473  11.754 -0.1042 -0.1621  2.2448
  668TIP3   OH226198   1.570   6.207  13.115 -0.8631 -0.0908  0.6223
  668TIP3    H126199   1.524   6.289  13.096 -0.9441 -0.4837 -1.0361
  668TIP3    H226200   1.651   6.213  13.065  1.4205  0.9211  4.0467
  669TIP3   OH226201   6.523   3.261   9.571 -0.4093  0.6687 -0.7510
  669TIP3    H126202   6.555   3.294   9.487 -0.5153  1.1829 -0.5906
  669TIP3    H226203   6.441   3.309   9.587 -1.1898 -0.5126 -1.0757
  670TIP3   OH226204   5.272   4.188   9.562  0.3845  0.3196  0.5090
  670TIP3    H126205   5.183   4.222   9.571  0.3527  0.5871 -0.7154
  670TIP3    H226206   5.328   4.265   9.567  0.4792  0.2624  0.3447
  671TIP3   OH226207   0.035   3.951  10.272  0.0742  0.2180 -0.2624
  671TIP3    H126208   0.105   4.010  10.246 -0.4632  0.7881 -0.4352
  671TIP3    H226209   0.080   3.876  10.310  0.8735 -0.3021 -2.0867
  672TIP3   OH226210   3.092   5.025  12.278  0.0334 -0.1653 -0.2790
  672TIP3    H126211   3.043   5.047  12.199  1.0905  0.5047 -0.7745
  672TIP3    H226212   3.123   4.935  12.263  0.6468  0.1317 -0.8637
  673TIP3   OH226213   3.276   2.778  12.894  0.0111  0.1665 -0.1825
  673TIP3    H126214   3.252   2.712  12.959  2.0529  1.0036  1.5675
  673TIP3    H226215   3.328   2.731  12.829  0.6484 -0.1529  0.5390
  674TIP3   OH226216   2.960   1.594  11.970  0.1109 -0.1847 -0.0433
  674TIP3    H126217   3.025   1.661  11.992 -1.5265  1.4832 -0.1203
  674TIP3    H226218   2.884   1.616  12.023 -0.2293 -2.5109  0.5530
  675TIP3   OH226219   0.895   1.878  11.884 -0.4545  0.6739  0.1946
  675TIP3    H126220   0.949   1.945  11.926 -2.4771  1.8012  1.1243
  675TIP3    H226221   0.915   1.888  11.791  1.2459  0.7336  0.5253
  676TIP3   OH226222   1.871   1.002  10.231 -0.6536 -0.1298  0.3962
  676TIP3    H126223   1.881   1.014  10.325 -2.1234 -2.3537  0.9113
  676TIP3    H226224   1.958   0.978  10.199 -0.7180 -2.3264  1.7359
  677TIP3   OH226225   4.445   0.123  12.825 -0.4951  0.0939 -0.6475
  677TIP3    H126226   4.437   0.188  12.756  0.7868  0.8268 -0.1313
  677TIP3    H226227   4.530   0.082  12.810 -0.5681 -0.3153  0.0098
  678TIP3   OH226228   1.768   2.659  10.906  0.0223 -0.1081  0.0369
  678TIP3    H126229   1.830   2.716  10.859  1.0457 -1.1805  0.0438
  678TIP3    H226230   1.818   2.628  10.982 -0.9871  0.0751  0.7870
  679TIP3   OH226231   1.317   4.762  11.029  0.2068 -0.1178  0.3694
  679TIP3    H126232   1.348   4.685  10.982 -0.3259  0.0663 -0.3032
  679TIP3    H226233   1.247   4.730  11.087  1.3140 -0.4592  1.5675
  680TIP3   OH226234   2.257   5.499   9.950  0.2048 -0.1000  0.2407
  680TIP3    H126235   2.262   5.464   9.861  0.2048 -0.2452  0.2986
  680TIP3    H226236   2.346   5.526   9.971 -0.0158  1.0674 -0.2626
  681TIP3   OH226237   2.331   3.765  11.719  0.3370  0.2703  0.4121
  681TIP3    H126238   2.381   3.847  11.726 -0.1452  0.4340  4.0120
  681TIP3    H226239   2.243   3.793  11.696  0.7289  0.4705 -0.9255
  682TIP3   OH226240   3.891   3.733  10.576  0.0201 -0.4902 -0.4282
  682TIP3    H126241   3.895   3.780  10.492  2.5724 -0.2021 -0.2414
  682TIP3    H226242   3.801   3.701  10.582 -0.8750  1.4683 -2.1685
  683TIP3   OH226243   0.027   4.979  10.115  0.0205  0.4375 -0.2128
  683TIP3    H126244   0.032   4.884  10.113 -0.3738  0.2913  2.3495
  683TIP3    H226245  -0.044   4.998  10.177  1.2144  2.3825  0.6659
  684TIP3   OH226246   1.216   0.205  11.266 -0.2364 -0.4606 -0.0138
  684TIP3    H126247   1.277   0.200  11.340  1.1214 -0.0292 -1.0690
  684TIP3    H226248   1.215   0.115  11.231 -0.0554 -0.4251 -0.1112
  685TIP3   OH226249   3.865   3.454  12.613  0.1625 -0.3536  0.0132
  685TIP3    H126250   3.917   3.531  12.639  0.7793 -0.8085  0.1346
  685TIP3    H226251   3.810   3.486  12.542 -0.3347  0.4777  0.7391
  686TIP3   OH226252   4.987   4.851  11.231  0.1004  1.3831  0.2058
  686TIP3    H126253   4.924   4.833  11.161  1.2693  0.5507 -0.6760
  686TIP3    H226254   4.998   4.766  11.274  0.9472  1.4103  0.0526
  687TIP3   OH226255   3.357   2.952  11.871  0.5546  0.1354  0.3505
  687TIP3    H126256   3.431   2.984  11.819 -1.4780  2.7784 -1.1246
  687TIP3    H226257   3.309   2.895  11.811 -0.9803  2.0069 -0.2792
  688TIP3   OH226258   2.613   0.693  12.025  0.6510 -0.0075  0.1321
  688TIP3    H126259   2.647   0.685  12.114 -0.6346 -1.9453  0.5183
  688TIP3    H226260   2.690   0.701  11.970  1.4677  1.5396  1.4243
  689TIP3   OH226261   3.758   4.778  11.098 -0.2119  0.1245  0.5748
  689TIP3    H126262   3.721   4.862  11.123 -0.3801  0.4871 -0.8246
  689TIP3    H226263   3.839   4.800  11.051  0.2601 -0.5428  1.0428
  690TIP3   OH226264   5.334   2.428  11.401  0.2034 -0.4815 -0.8961
  690TIP3    H126265   5.397   2.474  11.457 -0.1209 -0.5944 -0.4297
  690TIP3    H226266   5.380   2.414  11.319  0.9487 -0.9902 -0.3920
  691TIP3   OH226267   1.930   6.288  11.487 -0.3010 -0.5453  0.2033
  691TIP3    H126268   1.902   6.211  11.437 -0.7892  0.8671 -1.8322
  691TIP3    H226269   1.945   6.255  11.575 -1.5638 -2.7583 -0.3291
  692TIP3   OH226270   5.450   1.748  10.928  0.2958  0.1931 -0.4055
  692TIP3    H126271   5.367   1.713  10.960  0.3915 -0.3816 -0.7614
  692TIP3    H226272   5.488   1.795  11.003  0.4682 -1.0258  0.2909
  693TIP3   OH226273   2.568   1.954  10.202  0.1947 -0.4773 -0.2520
  693TIP3    H126274   2.521   1.888  10.254  0.1539 -0.0663  0.2433
  693TIP3    H226275   2.508   1.974  10.130  0.5339 -1.5473 -0.8609
  694TIP3   OH226276   4.427   2.616  12.177  0.1679  0.0193  0.8777
  694TIP3    H126277   4.432   2.707  12.206 -1.6675  0.7956 -0.9761
  694TIP3    H226278   4.426   2.621  12.081 -1.9605 -1.7517  0.7310
  695TIP3   OH226279   0.481   6.749  12.215 -0.5090 -0.3140  0.6347
  695TIP3    H126280   0.475   6.837  12.252  0.5448  0.0481 -0.0081
  695TIP3    H226281   0.538   6.701  12.275  1.3002  0.3082 -0.5029
  696TIP3   OH226282   0.884   5.991  12.389  0.1091 -0.3009 -0.6941
  696TIP3    H126283   0.948   5.951  12.448 -1.2968 -0.3721  0.8494
  696TIP3    H226284   0.877   6.082  12.419 -0.6996 -0.3669 -0.6685
  697TIP3   OH226285   2.159   6.670  11.685  0.6891 -0.0894  0.2590
  697TIP3    H126286   2.085   6.678  11.624 -0.0070  0.7971  1.1863
  697TIP3    H226287   2.121   6.631  11.764  0.7973  1.9337  1.3694
  698TIP3   OH226288   5.605   3.233  11.141 -0.1108 -0.4096  0.6764
  698TIP3    H126289   5.680   3.287  11.114  0.1233 -1.2510 -0.4164
  698TIP3    H226290   5.541   3.296  11.173  0.8233  0.3792  1.0604
  699TIP3   OH226291   0.581   6.097  12.918  0.3444 -0.0276  0.1413
  699TIP3    H126292   0.599   6.038  12.845  1.7617 -0.1616  0.5885
  699TIP3    H226293   0.656   6.157  12.920 -0.4265  0.9572  0.5289
  700TIP3   OH226294   4.622   0.729  11.142  0.3633 -0.4901  0.0033
  700TIP3    H126295   4.613   0.823  11.130  1.4594 -0.2688  0.7460
  700TIP3    H226296   4.606   0.691  11.055 -0.8212  0.3099 -0.1400
  701TIP3   OH226297   1.137   0.757  10.062  1.0296  0.0393 -0.1647
  701TIP3    H126298   1.220   0.784  10.101  1.6160 -0.4783 -1.0199
  701TIP3    H226299   1.158   0.739   9.970  0.1528 -0.8876 -0.2076
  702TIP3   OH226300   4.759   1.206  10.457 -0.3222  0.3650 -0.7235
  702TIP3    H126301   4.692   1.245  10.512 -1.6114 -0.1166 -1.9051
  702TIP3    H226302   4.711   1.164  10.386  1.2215 -0.1286 -1.5275
  703TIP3   OH226303   4.463   6.298  11.257 -0.3710  0.5011 -0.1412
  703TIP3    H126304   4.506   6.322  11.175 -0.0894 -1.3482 -0.5929
  703TIP3    H226305   4.377   6.264  11.231 -0.4975  0.4069  0.3724
  704TIP3   OH226306   5.969   2.495  11.510  0.0464 -0.0133  0.3077
  704TIP3    H126307   6.007   2.533  11.589 -0.5727  0.6881  0.2873
  704TIP3    H226308   6.014   2.539  11.438  0.5392 -0.5785  0.2647
  705TIP3   OH226309   3.650   2.201  10.809 -0.1843  0.2279 -0.0419
  705TIP3    H126310   3.575   2.176  10.864 -1.0506  1.1169 -0.7844
  705TIP3    H226311   3.691   2.272  10.857  1.6888 -1.7999  1.5758
  706TIP3   OH226312   6.035   2.748  11.652  0.7693 -0.3718  0.1197
  706TIP3    H126313   6.088   2.827  11.648 -1.5499  1.3832  1.3561
  706TIP3    H226314   5.991   2.745  11.568  1.5301 -0.8882 -0.2700
  707TIP3   OH226315   1.203   1.426  11.462 -0.0703  0.8351  0.0888
  707TIP3    H126316   1.290   1.454  11.492  0.4678  1.0689 -1.5498
  707TIP3    H226317   1.159   1.507  11.437  0.0359  0.5800 -1.0008
  708TIP3   OH226318   4.446   3.290  12.497 -0.0323 -0.1011  0.6921
  708TIP3    H126319   4.534   3.260  12.518 -0.5077 -1.4398  0.8508
  708TIP3    H226320   4.393   3.263  12.573 -1.1621 -2.0988 -0.7312
  709TIP3   OH226321   4.854   3.236  10.526  0.6883 -0.0363 -0.0626
  709TIP3    H126322   4.768   3.244  10.567  0.4508  0.4323 -0.6375
  709TIP3    H226323   4.902   3.175  10.582 -0.2914 -0.9298 -0.1717
  710TIP3   OH226324   6.345   5.985  11.369 -0.1703 -0.5820 -0.0303
  710TIP3    H126325   6.390   6.063  11.402  2.4078 -1.4055 -1.3069
  710TIP3    H226326   6.337   6.000  11.275 -0.8014 -1.3154 -0.1008
  711TIP3   OH226327   0.753   6.688  11.390 -0.3789 -0.0952 -0.7066
  711TIP3    H126328   0.831   6.735  11.363  1.3400 -0.4326  2.9855
  711TIP3    H226329   0.784   6.602  11.416 -1.8577 -0.1640  1.0832
  712TIP3   OH226330   5.871   3.981  10.358  0.3634 -0.0601 -0.2809
  712TIP3    H126331   5.938   3.933  10.310  0.4278  0.1140 -0.3652
  712TIP3    H226332   5.917   4.057  10.394  0.3318 -0.2220  0.1073
  713TIP3   OH226333   5.755   0.416  11.221  0.3342  0.5465  0.0812
  713TIP3    H126334   5.738   0.348  11.286 -0.3849 -0.3034 -0.9637
  713TIP3    H226335   5.797   0.371  11.148  1.5192  1.5612  0.0942
  714TIP3   OH226336   5.247   4.659  10.922  0.0475 -0.0796  0.0746
  714TIP3    H126337   5.310   4.731  10.926 -0.6661  0.5184  1.1628
  714TIP3    H226338   5.193   4.678  10.846  0.0651  0.3717  0.1731
  715TIP3   OH226339   1.210   5.705  11.017 -0.0316 -0.1333  0.3262
  715TIP3    H126340   1.209   5.798  10.995  0.1509 -0.1526  0.2365
  715TIP3    H226341   1.167   5.701  11.103 -0.2636  0.0021  0.2183
  716TIP3   OH226342   5.829   1.547  12.291 -0.6170  0.0871  0.1973
  716TIP3    H126343   5.763   1.519  12.229  0.1105 -1.0037 -0.1108
  716TIP3    H226344   5.886   1.605  12.241  1.0553 -2.2242 -0.7696
  717TIP3   OH226345   1.799   5.788  11.093  0.0180 -0.0402 -0.0434
  717TIP3    H126346   1.734   5.850  11.124 -1.2895 -1.5766  0.4426
  717TIP3    H226347   1.864   5.784  11.163  1.4263  2.4517 -1.0678
  718TIP3   OH226348   5.865   3.411  10.327  0.1822  0.2762 -0.0006
  718TIP3    H126349   5.849   3.504  10.313  1.0634  0.3168 -0.8365
  718TIP3    H226350   5.860   3.372  10.239  3.3017  0.1111 -0.2311
  719TIP3   OH226351   4.176   0.186  10.444 -0.6946 -0.3771  0.5016
  719TIP3    H126352   4.106   0.237  10.485 -0.4627  0.1230  0.2765
  719TIP3    H226353   4.134   0.102  10.422 -2.1464  0.9631 -2.4200
  720TIP3   OH226354   1.626   0.498  10.947 -0.2334  0.1420  0.2935
  720TIP3    H126355   1.573   0.503  10.868 -0.8903 -1.7339  0.5598
  720TIP3    H226356   1.570   0.532  11.017 -0.1285  0.5737  0.1702
  721TIP3   OH226357   0.094   3.281  11.162  0.1415  0.1034  0.1234
  721TIP3    H126358   0.109   3.368  11.126 -2.3836 -0.6066 -3.0796
  721TIP3    H226359   0.013   3.289  11.212  0.8415 -0.0891  1.3295
  722TIP3   OH226360   4.915   6.207  12.754 -0.1953  0.4336  0.2097
  722TIP3    H126361   4.970   6.136  12.721 -1.1231  0.2140 -0.9504
  722TIP3    H226362   4.957   6.235  12.835  1.7207  0.3945 -0.7101
  723TIP3   OH226363   3.018   0.090  12.051 -0.1450 -0.0816  0.5088
  723TIP3    H126364   3.021   0.186  12.046  1.4540 -0.0956  1.0287
  723TIP3    H226365   2.938   0.072  12.101 -1.5013  0.8825 -1.1442
  724TIP3   OH226366   5.401   5.635  11.137  0.2492 -0.2258 -0.3674
  724TIP3    H126367   5.452   5.561  11.171  0.0812 -0.9926 -1.6956
  724TIP3    H226368   5.465   5.688  11.089  0.3252  0.3776  0.3904
  725TIP3   OH226369   6.112   3.890  10.881 -0.2042 -0.4396  0.7086
  725TIP3    H126370   6.065   3.823  10.831  0.2586  0.7556 -1.4832
  725TIP3    H226371   6.201   3.858  10.887 -0.5861 -1.3154  2.2367
  726TIP3   OH226372   5.516   5.706  12.211  0.0217  0.6511  0.2956
  726TIP3    H126373   5.460   5.647  12.160 -0.2465  0.8722  0.3319
  726TIP3    H226374   5.596   5.713  12.159  0.6112 -0.8235  0.9571
  727TIP3   OH226375   5.585   0.685  10.286  0.2832  0.4542  0.5421
  727TIP3    H126376   5.502   0.719  10.320  0.2975  1.5938 -0.4928
  727TIP3    H226377   5.564   0.653  10.199  1.5530  4.3548 -1.4518
  728TIP3   OH226378   2.915   2.688  12.885  0.0832  0.5373  0.0796
  728TIP3    H126379   2.934   2.682  12.791 -0.7332  3.3706 -0.3615
  728TIP3    H226380   2.823   2.663  12.893  0.8513 -2.5617  0.6562
  729TIP3   OH226381   1.200   4.884  11.421 -0.3903 -0.1273 -0.4067
  729TIP3    H126382   1.158   4.826  11.485  0.0282 -1.7323 -1.5284
  729TIP3    H226383   1.185   4.972  11.455 -1.9336 -0.8238  0.8328
  730TIP3   OH226384   5.402   0.361  11.145 -0.2426 -0.2342 -0.8031
  730TIP3    H126385   5.407   0.395  11.234 -1.8858 -0.9406 -0.4055
  730TIP3    H226386   5.317   0.390  11.112  0.7618  0.9035 -2.5477
  731TIP3   OH226387   1.042   2.884  12.127  0.1787  0.3484 -0.0700
  731TIP3    H126388   0.959   2.920  12.157  0.1968  0.9923 -0.7601
  731TIP3    H226389   1.047   2.909  12.034  1.5140  1.0539  0.1674
  732TIP3   OH226390   1.058   1.732  10.284 -0.4270 -0.0736 -0.0862
  732TIP3    H126391   1.061   1.815  10.237 -1.2737  0.8361  1.3956
  732TIP3    H226392   1.129   1.680  10.246  0.7778  1.6937 -0.3650
  733TIP3   OH226393   4.164   3.373  11.553  0.3470  0.0348 -0.4389
  733TIP3    H126394   4.095   3.410  11.497 -0.1296  0.4936  0.4436
  733TIP3    H226395   4.214   3.449  11.583 -0.0018 -0.1102  0.5449
  734TIP3   OH226396   4.301   5.374  10.356 -0.0852 -0.3492  0.3857
  734TIP3    H126397   4.236   5.329  10.301  0.7269 -1.2765  0.1551
  734TIP3    H226398   4.371   5.310  10.369  0.9821  0.7390  0.2948
  735TIP3   OH226399   6.447   3.805  10.120 -0.1292  0.0082 -0.3995
  735TIP3    H126400   6.431   3.748  10.195  1.5330 -0.3144 -0.2335
  735TIP3    H226401   6.466   3.891  10.159 -1.3406  0.3684 -0.5789
  736TIP3   OH226402   1.976   3.012  12.431 -0.3315  0.0350  0.9848
  736TIP3    H126403   1.907   3.071  12.462  0.5149  1.9169 -0.5204
  736TIP3    H226404   2.050   3.070  12.412  1.1276 -1.7443  1.0463
  737TIP3   OH226405   6.691   3.324  11.300  0.0221  0.2940  0.4813
  737TIP3    H126406   6.653   3.239  11.323  1.0734 -0.4223 -0.3399
  737TIP3    H226407   6.651   3.346  11.216  0.1232  0.3825  0.4570
  738TIP3   OH226408   2.691   2.771  10.642  0.4254  0.2194  0.4456
  738TIP3    H126409   2.774   2.734  10.610 -0.0485 -1.3491  0.9210
  738TIP3    H226410   2.707   2.865  10.647  2.2792 -0.0752  0.8124
  739TIP3   OH226411   4.098   5.944  12.470 -0.2492  0.0648  0.3451
  739TIP3    H126412   4.079   6.031  12.505  0.6452 -0.3922  2.0870
  739TIP3    H226413   4.157   5.960  12.397  0.6743  0.9069  1.2405
  740TIP3   OH226414   4.360   4.679  10.061 -0.5297 -0.0528 -0.2651
  740TIP3    H126415   4.337   4.646  10.148  1.3975 -0.7586  0.0410
  740TIP3    H226416   4.348   4.774  10.067 -2.0775 -0.2637  0.2004
  741TIP3   OH226417   2.118   2.579  10.415 -0.3963  0.7856 -0.4123
  741TIP3    H126418   2.104   2.631  10.336  1.5091  0.9633 -0.6831
  741TIP3    H226419   2.111   2.488  10.386  2.3894  0.7738 -1.3272
  742TIP3   OH226420   0.362   6.656  12.740  0.1826 -0.1427  0.3441
  742TIP3    H126421   0.438   6.622  12.787  0.4796 -0.2528 -0.2131
  742TIP3    H226422   0.297   6.671  12.809 -0.6138 -3.4498  0.4484
  743TIP3   OH226423   6.482   3.629  11.646 -0.1200  0.4697  0.0820
  743TIP3    H126424   6.554   3.653  11.588 -0.2549  0.4115 -0.1093
  743TIP3    H226425   6.442   3.713  11.670 -3.0900  0.3658 -3.7262
  744TIP3   OH226426   4.175   0.392  12.547  0.1857  0.2966  0.2224
  744TIP3    H126427   4.120   0.347  12.483  0.4090 -0.1774  0.3599
  744TIP3    H226428   4.115   0.422  12.614  0.1612 -0.8185  0.7252
  745TIP3   OH226429   3.725   1.497  12.892  0.1157 -0.1104  0.2313
  745TIP3    H126430   3.785   1.450  12.949  1.7290  1.7035  0.1602
  745TIP3    H226431   3.706   1.578  12.939 -2.6910 -0.7798  0.4271
  746TIP3   OH226432   4.054   1.216  12.243 -0.0495 -0.3141 -0.1863
  746TIP3    H126433   4.089   1.128  12.230 -1.0593 -0.7111 -0.2869
  746TIP3    H226434   4.019   1.241  12.157 -0.9090 -0.3355  0.1468
  747TIP3   OH226435   4.513   2.613  11.465 -0.2984 -0.3722  0.1716
  747TIP3    H126436   4.471   2.594  11.381  1.0306  0.4659 -0.7126
  747TIP3    H226437   4.605   2.591  11.451  0.2481  1.3488  0.8547
  748TIP3   OH226438   1.112   0.236  12.371  0.2361 -0.4442 -0.4683
  748TIP3    H126439   1.045   0.292  12.410 -0.3653 -0.9169 -0.8063
  748TIP3    H226440   1.183   0.296  12.347  0.2803 -0.0442  0.6189
  749TIP3   OH226441   1.805   0.984   9.813 -0.2241 -0.5811  0.5050
  749TIP3    H126442   1.841   1.046   9.750  1.8600 -1.2675  0.9515
  749TIP3    H226443   1.813   0.898   9.771  0.5237 -0.9610  1.3744
  750TIP3   OH226444   5.145   2.685   9.567  0.0795 -0.3377 -0.0081
  750TIP3    H126445   5.057   2.698   9.602  0.2478 -0.0452  0.3045
  750TIP3    H226446   5.161   2.762   9.513  0.3772 -0.0997  0.4160
  751TIP3   OH226447   6.374   3.213  10.915  0.2840  0.9332 -0.0736
  751TIP3    H126448   6.355   3.121  10.899 -0.1565  0.7727  1.3166
  751TIP3    H226449   6.434   3.238  10.844  0.1673 -0.3278 -0.6301
  752TIP3   OH226450   4.486   6.768  12.494  0.3583  0.5112 -0.3150
  752TIP3    H126451   4.486   6.769  12.398 -0.9348  1.8942 -0.3431
  752TIP3    H226452   4.394   6.780  12.518  0.7355  0.8226  1.0917
  753TIP3   OH226453   5.056   3.329  12.622  0.6320 -0.7447 -0.6396
  753TIP3    H126454   5.080   3.304  12.532  1.5409  0.2687 -0.7032
  753TIP3    H226455   4.984   3.271  12.645  1.2773 -1.9472 -1.5336
  754TIP3   OH226456   6.388   4.609  12.851 -0.5540  0.2001  0.2435
  754TIP3    H126457   6.386   4.648  12.938  1.1050  0.9294 -0.0035
  754TIP3    H226458   6.482   4.600  12.831 -0.8789 -2.4271 -0.3922
  755TIP3   OH226459   4.177   6.545  10.446 -0.1540  0.5066 -0.6005
  755TIP3    H126460   4.162   6.639  10.460 -2.3281  0.1314 -0.1438
  755TIP3    H226461   4.272   6.535  10.454  0.2636  2.8157 -1.6957
  756TIP3   OH226462   1.234   2.374  11.706 -0.1128 -0.4731  0.0606
  756TIP3    H126463   1.168   2.318  11.665 -0.3376 -2.2414  2.6533
  756TIP3    H226464   1.317   2.327  11.693  0.0153 -0.3521  0.4411
  757TIP3   OH226465   3.287   1.696  11.817 -0.1923 -0.1421 -0.4349
  757TIP3    H126466   3.227   1.770  11.804 -0.8170 -0.6361 -0.3489
  757TIP3    H226467   3.354   1.730  11.877  0.6781  1.0122 -1.9481
  758TIP3   OH226468   2.594   3.165  13.158 -0.0262  0.5120 -0.2792
  758TIP3    H126469   2.554   3.210  13.084 -0.3533  2.0384  0.7783
  758TIP3    H226470   2.562   3.212  13.235  1.2582 -0.2579  0.7709
  759TIP3   OH226471   5.154   5.315  11.940  0.1670  0.3485 -0.0741
  759TIP3    H126472   5.101   5.249  11.896 -1.9463  2.1829 -0.4983
  759TIP3    H226473   5.239   5.274  11.952 -1.2377 -2.6802  0.3818
  760TIP3   OH226474   4.476   4.443  12.403  0.6360  0.0074 -0.0944
  760TIP3    H126475   4.535   4.373  12.376  1.1105  0.3704 -0.0135
  760TIP3    H226476   4.413   4.399  12.461  0.0383 -0.6258 -1.2038
  761TIP3   OH226477   4.071   6.471  13.213  0.5682 -0.0785 -0.0182
  761TIP3    H126478   4.006   6.536  13.239 -0.7111 -0.2754 -2.4192
  761TIP3    H226479   4.153   6.503  13.251 -0.7231  0.6414  2.3704
  762TIP3   OH226480   6.067   0.755  10.606  0.2878  0.2361  0.3755
  762TIP3    H126481   6.150   0.769  10.652  0.6283 -0.0186 -0.1547
  762TIP3    H226482   6.012   0.829  10.632 -0.0848 -0.6854  2.4306
  763TIP3   OH226483   5.322   3.159  12.539  0.1265  0.4273  0.2047
  763TIP3    H126484   5.373   3.232  12.503  1.6022 -0.6945 -0.1148
  763TIP3    H226485   5.334   3.088  12.474 -4.5199  0.9704 -1.6339
  764TIP3   OH226486   3.073   6.155  12.536  0.1359 -0.4275 -0.2882
  764TIP3    H126487   3.085   6.076  12.587 -0.5177 -1.1756 -1.2510
  764TIP3    H226488   3.053   6.223  12.600  1.4523 -0.8549  0.6226
  765TIP3   OH226489   5.599   0.424  12.938  0.1022 -0.0771 -0.5815
  765TIP3    H126490   5.550   0.498  12.975  0.9157  0.2523 -0.1335
  765TIP3    H226491   5.573   0.421  12.846 -0.5834  0.2312 -0.4003
  766TIP3   OH226492   0.120   6.711  11.709  0.5417 -0.3720 -0.2794
  766TIP3    H126493   0.106   6.672  11.795  0.1623  2.5930  1.1309
  766TIP3    H226494   0.032   6.720  11.671  0.5938 -0.5440 -0.4433
  767TIP3   OH226495   1.798   6.062  11.522 -0.4891 -0.2633 -0.1656
  767TIP3    H126496   1.838   5.983  11.557  0.5890 -0.6532 -2.1384
  767TIP3    H226497   1.705   6.043  11.519 -0.1291 -2.0165 -1.8558
  768TIP3   OH226498   4.445   0.284  12.570  0.3761 -0.8821 -0.5789
  768TIP3    H126499   4.360   0.326  12.558  0.4812 -0.6561 -0.5396
  768TIP3    H226500   4.466   0.247  12.484  0.7490  0.0221 -0.8920
  769TIP3   OH226501   6.472   0.503  11.452 -0.3214  0.2437  0.0483
  769TIP3    H126502   6.453   0.412  11.427 -0.0976  0.1155  0.3486
  769TIP3    H226503   6.560   0.501  11.489  1.2127  1.1617 -3.1439
  770TIP3   OH226504   5.182   0.201  11.369  0.2367 -0.2740 -0.3343
  770TIP3    H126505   5.172   0.277  11.311  0.8849 -1.1242 -1.6010
  770TIP3    H226506   5.093   0.172  11.385 -0.0740  1.1612  0.7518
  771TIP3   OH226507   6.809   2.211  10.401  0.1715  0.5858  0.0769
  771TIP3    H126508   6.823   2.193  10.494 -1.5644  0.9704  0.4485
  771TIP3    H226509   6.794   2.125  10.362 -0.4602  0.5326  0.4221
  772TIP3   OH226510   0.895   0.005   9.649 -0.3042 -0.1316 -0.5335
  772TIP3    H126511   0.828  -0.052   9.611 -0.4545 -0.9689  0.8830
  772TIP3    H226512   0.860   0.027   9.736  0.9993 -0.1329  0.0086
  773TIP3   OH226513   2.203   4.689   9.933 -0.0860  0.1706 -0.4466
  773TIP3    H126514   2.210   4.734   9.849  0.8418 -0.3394 -0.6474
  773TIP3    H226515   2.255   4.743   9.993  1.4172 -0.8437 -0.7889
  774TIP3   OH226516   6.616   1.133  11.284  0.6603  0.5055  0.8590
  774TIP3    H126517   6.577   1.113  11.369  1.7067 -0.3577  1.1789
  774TIP3    H226518   6.642   1.047  11.250  1.2527  0.9401  0.1888
  775TIP3   OH226519   4.180   1.818  12.923  0.4975  0.2228  0.3863
  775TIP3    H126520   4.211   1.886  12.982 -2.2081  1.7738  0.1911
  775TIP3    H226521   4.209   1.845  12.837  1.7457 -0.3707  0.5967
  776TIP3   OH226522   1.123   2.008   9.538  0.1051  0.5344  0.2828
  776TIP3    H126523   1.183   1.950   9.491  1.3126  0.8683  1.3704
  776TIP3    H226524   1.067   2.045   9.469 -0.0623 -1.1462 -0.5407
  777TIP3   OH226525   2.437   2.601  13.028 -0.0993 -0.0037  0.2609
  777TIP3    H126526   2.437   2.512  12.994  0.3090  0.2009 -0.2905
  777TIP3    H226527   2.349   2.613  13.065  0.5423 -1.4215  2.4762
  778TIP3   OH226528   3.817   5.559  12.615  0.1379  0.2399 -0.4097
  778TIP3    H126529   3.850   5.630  12.561  0.0121  1.2710  0.8252
  778TIP3    H226530   3.841   5.583  12.705  0.9978 -1.7860 -0.0463
  779TIP3   OH226531   5.213   5.994  10.587  0.5378  0.0616  0.2653
  779TIP3    H126532   5.287   5.970  10.532 -1.6453 -2.3511 -1.9258
  779TIP3    H226533   5.249   5.995  10.676  3.0469 -1.9097 -0.5911
  780TIP3   OH226534   6.582   2.779   9.796  0.4393  0.1558 -0.0682
  780TIP3    H126535   6.514   2.757   9.732  0.1532  1.0193 -0.0737
  780TIP3    H226536   6.598   2.873   9.783  1.7021 -0.0410 -0.1335
  781TIP3   OH226537   5.110   0.270  10.427 -0.2875 -0.0557  0.0341
  781TIP3    H126538   5.015   0.260  10.423 -0.1997 -0.5996 -0.9432
  781TIP3    H226539   5.133   0.317  10.347  0.4582 -1.6806 -0.7606
  782TIP3   OH226540   5.626   3.937  11.355  0.5454  0.8118 -0.1844
  782TIP3    H126541   5.631   4.004  11.423 -0.6485  0.9585 -0.2119
  782TIP3    H226542   5.678   3.972  11.283  1.3931  0.8916  0.4453
  783TIP3   OH226543   3.244   2.235  10.961  0.1318 -0.1062 -0.1159
  783TIP3    H126544   3.238   2.268  10.872 -0.7189  0.9800  0.3133
  783TIP3    H226545   3.215   2.309  11.015  2.5345 -0.0013  1.1996
  784TIP3   OH226546   5.494   5.016  12.461  0.6271 -0.3484  0.2773
  784TIP3    H126547   5.571   5.064  12.490  0.4238 -0.6616  1.3541
  784TIP3    H226548   5.529   4.942  12.410  0.9789  0.2006 -0.2991
  785TIP3   OH226549   6.540   1.210  12.317  0.2369  0.2225 -0.7217
  785TIP3    H126550   6.611   1.166  12.363 -0.1164  0.9789  0.5904
  785TIP3    H226551   6.492   1.139  12.273 -0.0796 -0.6911  1.0013
  786TIP3   OH226552   2.799   3.289  12.727  0.1863 -0.3271  0.4441
  786TIP3    H126553   2.862   3.288  12.655  0.4215 -1.7818  0.6319
  786TIP3    H226554   2.852   3.301  12.805 -0.0597  1.1519  0.4181
  787TIP3   OH226555   4.319   1.721  11.590  0.5725  0.3672  0.2598
  787TIP3    H126556   4.246   1.773  11.555  0.5269 -0.3985 -0.8197
  787TIP3    H226557   4.373   1.700  11.514  2.2469  1.3720  1.1016
  788TIP3   OH226558   1.923   3.230  12.739 -0.6287 -0.3714  0.5214
  788TIP3    H126559   1.842   3.220  12.688 -0.4617 -0.1279  0.2049
  788TIP3    H226560   1.974   3.294  12.690 -0.1482 -0.6869  0.6031
  789TIP3   OH226561   0.234   6.106  11.507  0.0767  0.5971  0.3053
  789TIP3    H126562   0.310   6.162  11.520  1.2715 -0.6681 -0.9658
  789TIP3    H226563   0.243   6.037  11.572 -0.2203  0.6755  0.4320
  790TIP3   OH226564   5.828   2.162  11.030 -0.2579  0.0149  0.2180
  790TIP3    H126565   5.859   2.245  11.065 -0.2639  0.6271 -1.1682
  790TIP3    H226566   5.898   2.099  11.049 -0.9293 -0.0772  2.7122
  791TIP3   OH226567   5.866   0.901  10.737  0.2759 -0.5593  0.3701
  791TIP3    H126568   5.861   0.990  10.771  2.3860 -0.5730  0.8675
  791TIP3    H226569   5.805   0.851  10.791  1.2331  0.0431  2.0797
  792TIP3   OH226570   6.573   5.102  12.425  0.1634  0.0113  0.3824
  792TIP3    H126571   6.479   5.091  12.431  0.3954 -2.8615  0.1246
  792TIP3    H226572   6.589   5.125  12.334 -0.2657  0.7368  0.4795
  793TIP3   OH226573   4.723   1.065  10.827 -0.3744 -0.0432  0.1617
  793TIP3    H126574   4.647   1.060  10.769 -0.2145 -1.7133  0.0523
  793TIP3    H226575   4.794   1.025  10.778  0.1720  0.0121  0.8874
  794TIP3   OH226576   0.776   2.561  10.018  0.6440 -0.0731 -0.5679
  794TIP3    H126577   0.741   2.629   9.960 -0.9183 -2.1574 -2.2553
  794TIP3    H226578   0.712   2.489  10.011  0.7110 -0.7198  3.2925
  795TIP3   OH226579   6.266   4.758  11.709 -0.1959 -0.1340 -0.8160
  795TIP3    H126580   6.215   4.721  11.637  1.4347  0.1038 -2.1655
  795TIP3    H226581   6.299   4.841  11.674  0.2849  0.2032  0.3824
  796TIP3   OH226582   0.202   6.671  12.980  0.1764  0.2698 -0.3829
  796TIP3    H126583   0.189   6.691  13.073 -0.0944 -1.0886 -0.1074
  796TIP3    H226584   0.115   6.676  12.942  0.2338  0.4585 -0.4906
  797TIP3   OH226585   0.685   2.596  12.542 -0.1103  0.0967 -0.1546
  797TIP3    H126586   0.771   2.556  12.552 -0.5420 -1.0193 -0.7308
  797TIP3    H226587   0.642   2.583  12.626 -0.3822 -1.0268 -0.4500
  798TIP3   OH226588   2.330   6.456   9.878 -0.1115  0.5999 -0.0644
  798TIP3    H126589   2.342   6.370   9.918 -0.9621  0.3826 -0.2794
  798TIP3    H226590   2.357   6.444   9.787 -1.8459  0.1176 -0.5395
  799TIP3   OH226591   4.014   1.103  11.513  0.4927 -0.5584  0.3877
  799TIP3    H126592   4.059   1.024  11.542  0.1348 -0.8258  0.2231
  799TIP3    H226593   3.967   1.135  11.590  1.6604  0.2174  0.8003
  800TIP3   OH226594   2.659   1.200  10.866 -0.2737 -0.4731 -0.3261
  800TIP3    H126595   2.576   1.240  10.893 -1.0345 -2.4820  0.4439
  800TIP3    H226596   2.722   1.227  10.933 -0.3731  0.7096 -0.6830
  801TIP3   OH226597   3.236   6.783  11.672 -0.3562  0.1587 -0.3883
  801TIP3    H126598   3.193   6.702  11.697 -0.2102  0.0179 -0.5892
  801TIP3    H226599   3.313   6.755  11.622  1.1329  0.3113  1.6710
  802TIP3   OH226600   4.908   1.354  12.443 -0.0609 -0.1080 -0.2937
  802TIP3    H126601   4.949   1.427  12.489  1.5541 -0.9526 -0.3248
  802TIP3    H226602   4.814   1.368  12.454  0.2518  0.6506  1.7705
  803TIP3   OH226603   3.695   2.613  11.329 -0.1567 -0.6059 -0.2149
  803TIP3    H126604   3.630   2.548  11.303 -0.5732  0.5813 -2.4739
  803TIP3    H226605   3.740   2.636  11.247  1.0583  0.7917  0.7779
  804TIP3   OH226606   3.653   4.493  10.427  0.4827  0.1474 -0.6806
  804TIP3    H126607   3.611   4.451  10.351 -1.6304 -0.3397  0.6859
  804TIP3    H226608   3.743   4.510  10.397  0.8748 -3.4065 -2.0752
  805TIP3   OH226609   3.804   2.037  11.901 -0.1892 -0.1585  0.4848
  805TIP3    H126610   3.810   2.094  11.825 -0.6878 -2.1120 -1.1036
  805TIP3    H226611   3.894   2.017  11.925 -0.0228 -0.6169 -0.4883
  806TIP3   OH226612   4.628   2.106  12.630 -0.3471 -0.1039 -0.4675
  806TIP3    H126613   4.590   2.166  12.694 -0.2071  1.5093 -1.8221
  806TIP3    H226614   4.553   2.061  12.592 -0.4660 -0.7280  0.4742
  807TIP3   OH226615   4.200   0.788  11.943 -0.6161 -0.4370 -0.3069
  807TIP3    H126616   4.293   0.800  11.923 -1.1300  1.3681 -2.0600
  807TIP3    H226617   4.185   0.694  11.934  0.9827 -0.7429 -0.1495
  808TIP3   OH226618   1.887   3.482  11.768 -0.2756 -0.1085 -0.3498
  808TIP3    H126619   1.955   3.547  11.779 -1.0470  0.7121 -0.3177
  808TIP3    H226620   1.892   3.427  11.846 -0.5225  0.7716  0.2928
  809TIP3   OH226621   0.832   0.140  12.654  0.3870 -0.4550 -0.2691
  809TIP3    H126622   0.830   0.049  12.625 -1.2105 -0.5323  0.0094
  809TIP3    H226623   0.751   0.152  12.703  0.7600  1.0145  0.0485
  810TIP3   OH226624   2.127   2.717  11.542  0.0055  0.3897 -0.2777
  810TIP3    H126625   2.081   2.633  11.552 -0.6821  0.6868 -0.8080
  810TIP3    H226626   2.153   2.742  11.630  1.6503 -1.1570 -0.2637
  811TIP3   OH226627   0.501   5.301  10.604 -0.9311 -0.1771  0.1973
  811TIP3    H126628   0.433   5.361  10.574  0.3438  1.4676  0.4711
  811TIP3    H226629   0.492   5.299  10.699 -0.3805  0.3142  0.2612
  812TIP3   OH226630   3.644   1.997  11.487  0.7482  0.2499 -0.3276
  812TIP3    H126631   3.737   2.001  11.465  0.4065  0.3499 -1.8572
  812TIP3    H226632   3.612   1.918  11.442 -0.0321  0.5718 -0.3598
  813TIP3   OH226633   3.141   1.917  11.723 -0.4555  0.1567  0.8727
  813TIP3    H126634   3.070   1.906  11.660 -0.5183 -0.8831  1.1137
  813TIP3    H226635   3.114   1.993  11.775 -0.8505  0.4545  0.2516
  814TIP3   OH226636   1.755   5.080  11.390  0.1555 -0.0900 -0.1622
  814TIP3    H126637   1.665   5.098  11.416 -0.0631 -1.9161  0.4829
  814TIP3    H226638   1.793   5.166  11.373 -1.6372  0.7250 -0.2462
  815TIP3   OH226639   3.841   1.126   9.852 -0.3130  0.0988  0.0456
  815TIP3    H126640   3.911   1.145   9.790 -0.1057  1.1670  0.5664
  815TIP3    H226641   3.800   1.046   9.820  1.2308 -0.6167 -0.1951
  816TIP3   OH226642   1.838   4.998  12.988 -0.6807  0.5013  0.7160
  816TIP3    H126643   1.786   5.022  12.911 -1.0400 -0.1945  0.7292
  816TIP3    H226644   1.893   4.925  12.959 -1.8705 -0.7539  1.4733
  817TIP3   OH226645   5.593   3.097   9.980  0.1147 -0.2056  0.0358
  817TIP3    H126646   5.592   3.180  10.028  0.6796 -0.7048  0.9360
  817TIP3    H226647   5.591   3.123   9.888 -1.1451  0.7675  0.3115
  818TIP3   OH226648   1.109   0.317  11.545  0.6148  0.5923  0.2461
  818TIP3    H126649   1.123   0.412  11.551 -1.1581  0.8878  0.0982
  818TIP3    H226650   1.188   0.285  11.501  0.8668  2.1268 -0.5156
  819TIP3   OH226651   5.856   3.085  12.248 -0.1199 -0.0318  0.3445
  819TIP3    H126652   5.915   3.082  12.173  0.0462 -1.2037  0.5106
  819TIP3    H226653   5.913   3.078  12.325 -0.4395 -1.0721  0.5070
  820TIP3   OH226654   5.941   4.187  12.176 -0.1638  0.3038  0.1508
  820TIP3    H126655   5.927   4.201  12.082 -0.8507  0.9680  0.3456
  820TIP3    H226656   5.949   4.275  12.212  0.4782  0.0434  0.6695
  821TIP3   OH226657   6.067   6.184  12.187 -0.3424  0.1525  0.3742
  821TIP3    H126658   6.117   6.253  12.229  1.5151 -0.5239 -0.5982
  821TIP3    H226659   6.118   6.104  12.202 -0.6224 -0.4216 -1.4431
  822TIP3   OH226660   5.442   4.706  12.529  0.1223  0.1338  0.4692
  822TIP3    H126661   5.488   4.744  12.453  0.1709 -0.9047 -0.0429
  822TIP3    H226662   5.396   4.780  12.568 -0.3957  0.5898 -0.9343
  823TIP3   OH226663   0.414   1.017  12.258  0.1295  0.3473 -0.4263
  823TIP3    H126664   0.473   1.085  12.289 -0.2064  0.7065 -0.5726
  823TIP3    H226665   0.462   0.975  12.186 -0.3364  1.5412 -1.4624
  824TIP3   OH226666   4.364   2.341  11.211  0.1262  0.3964 -0.5793
  824TIP3    H126667   4.347   2.434  11.228 -0.2360  0.3696 -0.7706
  824TIP3    H226668   4.344   2.297  11.293  0.7085  0.5352 -0.3613
  825TIP3   OH226669   0.738   3.509  11.104  0.1710  0.5211  0.3511
  825TIP3    H126670   0.748   3.417  11.082 -1.0728  1.0361 -2.9768
  825TIP3    H226671   0.802   3.555  11.049 -1.2694  1.7945 -0.3483
  826TIP3   OH226672   0.970   4.648  12.555  0.0814 -0.0843 -0.4865
  826TIP3    H126673   1.046   4.621  12.606  0.9249  0.5889 -1.3476
  826TIP3    H226674   0.953   4.738  12.583  0.4510  0.2353 -1.2322
  827TIP3   OH226675   0.982   0.003  11.039  0.1051  0.1228 -0.5494
  827TIP3    H126676   1.032  -0.008  10.958 -0.5885  0.3030 -1.0173
  827TIP3    H226677   0.941   0.089  11.030  1.7224  1.1015  0.9592
  828TIP3   OH226678   2.489   1.965  12.306  0.1657 -0.0279  0.2750
  828TIP3    H126679   2.438   2.006  12.236 -1.1142 -2.0439 -0.0239
  828TIP3    H226680   2.566   2.021  12.314 -1.2866  2.1968 -0.3673
  829TIP3   OH226681   6.548   4.854  11.424  0.5363  0.4750 -0.2092
  829TIP3    H126682   6.542   4.768  11.383  0.3111  0.7087 -0.6699
  829TIP3    H226683   6.639   4.860  11.454  1.3145  1.1228 -2.5104
  830TIP3   OH226684   4.153   3.039  12.480 -0.8196  0.0897  0.5262
  830TIP3    H126685   4.063   3.072  12.481 -0.4732  1.1025 -0.4010
  830TIP3    H226686   4.202   3.099  12.536 -0.7066 -0.4706  1.0454
  831TIP3   OH226687   4.653   4.930  10.835  0.0750  0.1409 -0.1705
  831TIP3    H126688   4.704   4.961  10.760  0.4155  0.6357  0.2574
  831TIP3    H226689   4.576   4.889  10.797  0.1304  0.6050 -0.7805
  832TIP3   OH226690   5.025   1.953  11.950 -0.2719  0.0021 -0.0826
  832TIP3    H126691   5.027   1.863  11.982 -0.3786  0.5587  1.5808
  832TIP3    H226692   4.953   1.994  11.999 -1.4132  0.5552 -2.0964
  833TIP3   OH226693   3.240   6.176  10.808 -0.7794 -0.1843  0.3558
  833TIP3    H126694   3.243   6.082  10.827 -0.7879 -0.0816  0.8857
  833TIP3    H226695   3.185   6.213  10.877 -0.0760  0.3225  0.6693
  834TIP3   OH226696   0.706   1.725  12.628  0.5136 -0.7941 -0.4230
  834TIP3    H126697   0.779   1.699  12.571  0.6087  1.0288 -1.2285
  834TIP3    H226698   0.737   1.806  12.669 -1.3977  0.5661 -1.5363
  835TIP3   OH226699   0.466   4.405  12.905 -0.0698  0.0799  0.4591
  835TIP3    H126700   0.421   4.369  12.981 -0.0807  0.6193  0.7113
  835TIP3    H226701   0.558   4.410  12.932 -0.2469  1.4218  0.9000
  836TIP3   OH226702   6.291   1.522  12.841  0.2537  0.1059  0.5485
  836TIP3    H126703   6.319   1.478  12.921 -0.3248 -0.4998  0.4220
  836TIP3    H226704   6.336   1.607  12.843  1.2317 -0.4089  0.8866
  837TIP3   OH226705   2.595   0.453  11.426 -0.1285  0.1821 -0.2132
  837TIP3    H126706   2.662   0.512  11.459  0.8784 -1.1646  0.2125
  837TIP3    H226707   2.531   0.511  11.384 -0.4534  1.7903  2.2870
  838TIP3   OH226708   5.362   1.900  12.915 -0.5325  0.2383 -0.2349
  838TIP3    H126709   5.293   1.893  12.980 -1.2020  0.1118 -0.9520
  838TIP3    H226710   5.326   1.957  12.847 -0.0827 -0.1334 -0.7943
  839TIP3   OH226711   2.938   6.782  11.769 -0.3444 -0.2709  0.4677
  839TIP3    H126712   2.954   6.702  11.819  0.5893 -0.2910  0.1547
  839TIP3    H226713   3.016   6.835  11.783 -0.1013 -0.2409 -0.9030
  840TIP3   OH226714   6.026   1.559  10.534 -0.1196  0.2525 -0.0203
  840TIP3    H126715   5.958   1.558  10.602 -1.1281  0.7426 -0.9970
  840TIP3    H226716   5.997   1.625  10.472  1.1959  0.3706 -0.5423
  841TIP3   OH226717   1.290   4.131  10.864  0.0068  0.2114  0.3943
  841TIP3    H126718   1.224   4.149  10.797 -1.4541 -1.4821  1.2786
  841TIP3    H226719   1.239   4.119  10.944  1.4140 -0.9259  1.1632
  842TIP3   OH226720   1.376   1.745  11.498 -0.1297 -0.1553  0.3878
  842TIP3    H126721   1.456   1.797  11.499 -1.2001  1.6736 -1.3697
  842TIP3    H226722   1.349   1.738  11.590  1.3039  0.3407  0.8573
  843TIP3   OH226723   4.144   0.181  11.725 -0.0884  0.2697  0.3112
  843TIP3    H126724   4.126   0.087  11.732  0.3696  0.2567  1.7409
  843TIP3    H226725   4.061   0.220  11.701 -0.1686 -0.5417 -0.8253
  844TIP3   OH226726   3.713   5.202  12.269 -0.0069  0.2246 -0.0469
  844TIP3    H126727   3.639   5.262  12.263  0.9485  1.4043 -0.3929
  844TIP3    H226728   3.743   5.207  12.360 -1.2532 -1.4176  0.5085
  845TIP3   OH226729   4.223   6.639  10.862 -0.2033 -0.5115  0.3216
  845TIP3    H126730   4.183   6.724  10.844  0.4781 -0.1329  0.5518
  845TIP3    H226731   4.261   6.648  10.949 -0.9043 -1.3580  0.7276
  846TIP3   OH226732   3.080   1.717  12.357 -0.1354 -0.1075 -0.6948
  846TIP3    H126733   3.150   1.685  12.414  1.4516  0.0842 -2.4331
  846TIP3    H226734   3.001   1.714  12.411  1.4983  1.5686  2.0455
  847TIP3   OH226735   5.075   4.600  12.641  0.0289  0.2392 -0.2426
  847TIP3    H126736   4.997   4.619  12.693  1.6554  1.4201  1.9243
  847TIP3    H226737   5.096   4.509  12.661 -0.3045  0.1856 -0.1396
  848TIP3   OH226738   5.456   5.195  12.795 -0.3631 -0.3956 -0.5624
  848TIP3    H126739   5.491   5.265  12.850 -0.1477 -0.7071 -0.3030
  848TIP3    H226740   5.519   5.186  12.724 -0.5523 -0.1139 -0.7687
  849TIP3   OH226741   4.331   2.296  10.209 -0.1411  0.3115 -0.1189
  849TIP3    H126742   4.243   2.259  10.207  0.2967 -0.7955 -1.7410
  849TIP3    H226743   4.386   2.224  10.241  0.1582  1.0394  1.0206
  850TIP3   OH226744   3.579   4.053  11.993 -0.5538 -0.6016  0.0885
  850TIP3    H126745   3.610   4.017  12.076 -1.8885 -3.3989 -0.5265
  850TIP3    H226746   3.488   4.079  12.010 -1.3846 -2.6958 -0.8083
  851TIP3   OH226747   4.303   2.628  11.262  0.1677  0.5980 -0.0360
  851TIP3    H126748   4.245   2.633  11.338  1.6987 -0.9057  1.3143
  851TIP3    H226749   4.246   2.644  11.187 -1.5208  1.4682  1.3653
  852TIP3   OH226750   5.456   2.339  12.223 -0.3322  0.6024  0.2759
  852TIP3    H126751   5.438   2.250  12.195 -1.5324  0.6712  0.7910
  852TIP3    H226752   5.370   2.379  12.235  0.1824  1.7020  0.4722
  853TIP3   OH226753   4.281   3.480  10.576  0.1986 -0.2053 -0.0662
  853TIP3    H126754   4.188   3.489  10.598  0.6306  1.6729  1.2103
  853TIP3    H226755   4.284   3.492  10.481 -0.9363 -1.1372 -0.2437
  854TIP3   OH226756   1.749   5.155  11.848 -0.3299  0.1202 -0.7836
  854TIP3    H126757   1.693   5.198  11.912 -0.2099 -0.7985 -0.0419
  854TIP3    H226758   1.789   5.083  11.896 -0.4716 -0.7763 -1.9742
  855TIP3   OH226759   4.844   4.151  12.306  0.2735  0.6176  0.2781
  855TIP3    H126760   4.852   4.246  12.319 -0.5676  0.6798  0.4399
  855TIP3    H226761   4.749   4.135  12.310  0.4223 -0.2581  0.4522
  856TIP3   OH226762   6.232   4.426  10.182 -0.2365 -0.4849 -0.6415
  856TIP3    H126763   6.264   4.517  10.181 -0.0411 -0.4715  1.6858
  856TIP3    H226764   6.267   4.389  10.263 -2.9677 -1.6547  0.1046
  857TIP3   OH226765   1.158   0.975  11.873 -0.2178  0.2300 -0.8429
  857TIP3    H126766   1.238   0.924  11.885  1.2098  1.9730 -2.2894
  857TIP3    H226767   1.185   1.049  11.819 -2.2579  2.3549  0.8585
  858TIP3   OH226768   4.497   4.599   9.840  0.0142  0.4410  0.0616
  858TIP3    H126769   4.455   4.618   9.924  0.3308  1.3613  0.0279
  858TIP3    H226770   4.472   4.672   9.783 -0.1453 -0.1440 -0.6285
  859TIP3   OH226771   6.478   3.001  10.186  0.3159  0.1671 -0.3352
  859TIP3    H126772   6.521   3.044  10.112  1.2898  1.4255  0.9334
  859TIP3    H226773   6.437   3.072  10.235 -2.0613 -0.8492 -0.7127
  860TIP3   OH226774   0.215   2.519   9.932 -0.4994 -0.1642 -0.1854
  860TIP3    H126775   0.201   2.503  10.025 -0.4909  0.1766 -0.1239
  860TIP3    H226776   0.159   2.593   9.911 -2.3544 -1.6986 -1.0010
  861TIP3   OH226777   6.624   3.151   9.972  0.0455 -0.4110  0.2159
  861TIP3    H126778   6.647   3.125   9.883 -0.2377 -2.4366  0.6886
  861TIP3    H226779   6.565   3.225   9.960  1.5425  0.6152 -1.1947
  862TIP3   OH226780   1.619   2.090  12.069 -0.8208  0.2179 -0.9292
  862TIP3    H126781   1.533   2.129  12.087 -0.4711  0.5850 -0.0067
  862TIP3    H226782   1.668   2.159  12.025 -0.4298  0.6198  0.0989
  863TIP3   OH226783   1.211   4.058  10.351 -0.1662  0.0842  0.0918
  863TIP3    H126784   1.122   4.066  10.318  0.1269 -0.5853 -0.9084
  863TIP3    H226785   1.201   4.032  10.443 -0.9878  0.7646  0.2115
  864TIP3   OH226786   4.746   1.509  11.811 -0.0813  0.3182 -0.3457
  864TIP3    H126787   4.812   1.466  11.757  1.6930  0.3165  1.6714
  864TIP3    H226788   4.773   1.601  11.813  0.3727  0.1829  1.1090
  865TIP3   OH226789   0.836   0.685  10.762  0.3298 -0.1715 -0.1809
  865TIP3    H126790   0.868   0.758  10.709 -0.8075 -1.2825 -2.5302
  865TIP3    H226791   0.741   0.686  10.750  0.0432 -0.6021  1.7294
  866TIP3   OH226792   6.500   2.315  12.731 -0.2384 -0.0095  0.1885
  866TIP3    H126793   6.531   2.330  12.642 -0.0717 -1.1497  0.0475
  866TIP3    H226794   6.428   2.377  12.742 -1.9360 -1.5456 -1.6265
  867TIP3   OH226795   4.328   3.163  11.576  0.1559 -0.0255  0.4730
  867TIP3    H126796   4.273   3.241  11.581 -1.0261 -0.8588  0.9999
  867TIP3    H226797   4.374   3.161  11.660 -0.9961 -0.7150  1.1089
  868TIP3   OH226798   6.717   6.511  12.123  0.0732  0.3029 -0.2780
  868TIP3    H126799   6.779   6.444  12.151 -1.1671 -0.1529  1.5093
  868TIP3    H226800   6.632   6.468  12.123 -0.5980  1.5674 -0.2439
  869TIP3   OH226801   1.570   2.082  10.362  0.1917 -0.3683  0.3191
  869TIP3    H126802   1.609   2.169  10.362 -2.0277  0.7148 -1.7819
  869TIP3    H226803   1.606   2.040  10.283 -1.0984 -0.1866 -0.3810
  870TIP3   OH226804   1.069   3.970  12.597 -0.4127  0.0423 -0.3243
  870TIP3    H126805   1.024   4.055  12.598 -2.1726 -0.8540  0.6112
  870TIP3    H226806   1.063   3.938  12.687  0.3730 -1.0202 -0.6225
  871TIP3   OH226807   1.427   1.991  11.185  0.6360 -0.0572 -0.2176
  871TIP3    H126808   1.412   2.015  11.093 -1.9706 -2.3768 -0.5629
  871TIP3    H226809   1.486   1.916  11.180 -1.0747 -1.4843 -0.2891
  872TIP3   OH226810   2.166   2.194  11.668  0.0455 -0.3248 -0.0440
  872TIP3    H126811   2.093   2.139  11.641 -0.0300 -1.4230  2.2095
  872TIP3    H226812   2.240   2.133  11.677  0.2879  0.1335  1.2562
  873TIP3   OH226813   6.164   0.328  11.553  0.2019 -0.6031  0.1471
  873TIP3    H126814   6.076   0.298  11.530  0.0800 -0.4238  0.3839
  873TIP3    H226815   6.209   0.335  11.468 -0.1366 -0.3021 -0.0109
  874TIP3   OH226816   4.744   5.093  12.398 -0.0830  0.6023 -0.3355
  874TIP3    H126817   4.824   5.145  12.401  0.6901 -0.5093 -0.9136
  874TIP3    H226818   4.745   5.041  12.479  1.3693 -1.6029 -1.6553
  875TIP3   OH226819   4.518   5.492  11.229 -0.9223  0.1446 -0.1969
  875TIP3    H126820   4.441   5.507  11.284 -1.5750 -0.3097 -0.9602
  875TIP3    H226821   4.577   5.564  11.249 -0.9335 -0.2738  1.4502
  876TIP3   OH226822   3.283   6.843  12.084 -0.5165  0.7716 -0.6054
  876TIP3    H126823   3.285   6.833  12.179  2.0545  1.0860 -0.5609
  876TIP3    H226824   3.191   6.860  12.063 -1.4146 -0.9850  1.6149
  877TIP3   OH226825   3.352   1.383  12.409  0.2563 -0.0789  0.5256
  877TIP3    H126826   3.445   1.404  12.419  1.2190 -2.1375 -2.5710
  877TIP3    H226827   3.339   1.305  12.464  0.3642  0.1868  0.9291
  878TIP3   OH226828   1.659   5.713  12.445  0.1936 -0.0560 -0.4932
  878TIP3    H126829   1.605   5.636  12.464 -1.5754  0.9277 -1.2105
  878TIP3    H226830   1.692   5.698  12.357  0.7025 -0.4501 -0.2374
  879TIP3   OH226831   1.470   4.555  10.900  0.2686 -0.3953  0.2165
  879TIP3    H126832   1.404   4.520  10.840 -0.9646  1.0458  0.6549
  879TIP3    H226833   1.533   4.600  10.844 -0.0469 -0.3594 -0.1084
  880TIP3   OH226834   4.796   4.425  12.641  0.0909  0.4014 -0.3439
  880TIP3    H126835   4.821   4.343  12.683  0.1574 -0.2526 -1.6096
  880TIP3    H226836   4.797   4.489  12.712  0.5763 -0.5730  0.5668
  881TIP3   OH226837   4.876   4.275  13.007 -0.2099 -0.5340 -0.1301
  881TIP3    H126838   4.915   4.354  13.046 -2.2991  1.3042 -1.5398
  881TIP3    H226839   4.805   4.252  13.067 -0.4312 -0.5402 -0.3950
  882TIP3   OH226840   1.858   5.404  10.630 -0.0778 -0.8027 -0.4686
  882TIP3    H126841   1.833   5.313  10.617  0.9601 -1.1516 -0.1294
  882TIP3    H226842   1.790   5.455  10.586 -0.7791 -1.7327 -0.4755
  883TIP3   OH226843   6.847   4.863  12.474 -0.2615 -0.3188 -0.0319
  883TIP3    H126844   6.782   4.876  12.544  0.7612  0.8412  0.7552
  883TIP3    H226845   6.913   4.932  12.490  0.8472 -1.0831 -1.1540
  884TIP3   OH226846   0.382   1.217  12.942  0.0214 -0.6010 -0.1521
  884TIP3    H126847   0.337   1.185  13.020 -0.5039 -1.9772 -0.9823
  884TIP3    H226848   0.320   1.277  12.902  0.1015 -0.2562  0.2389
  885TIP3   OH226849   1.602   2.769  10.535 -0.2064 -0.3690  0.0638
  885TIP3    H126850   1.669   2.702  10.527 -1.5961 -1.7386 -0.6483
  885TIP3    H226851   1.565   2.756  10.623 -1.4469 -1.5489 -0.5931
  886TIP3   OH226852   5.277   3.499  12.284 -0.0335 -0.3231  0.0713
  886TIP3    H126853   5.334   3.426  12.308  2.1316  1.5360  0.9230
  886TIP3    H226854   5.188   3.463  12.290  0.8031 -2.2662  2.8006
  887TIP3   OH226855   0.989   3.467  11.605 -0.7208 -0.5153 -0.1596
  887TIP3    H126856   1.076   3.493  11.635 -2.0068  2.6286  1.2191
  887TIP3    H226857   0.983   3.503  11.516 -1.6189  2.0907  0.8681
  888TIP3   OH226858   4.840   1.123  12.106  0.3755  0.4215  0.0055
  888TIP3    H126859   4.775   1.141  12.175 -0.9639 -4.0767  0.2149
  888TIP3    H226860   4.919   1.101  12.154  1.0428  2.3395 -0.1490
  889TIP3   OH226861   5.325   5.320  11.027  0.2194  0.3154  0.4607
  889TIP3    H126862   5.327   5.243  11.084 -0.5911 -0.4196 -0.4469
  889TIP3    H226863   5.417   5.346  11.019  0.3659  0.3322  1.9288
  890TIP3   OH226864   6.301   0.745  12.926  0.1870  0.1075  0.2686
  890TIP3    H126865   6.285   0.830  12.885  0.1808 -0.6917 -1.4838
  890TIP3    H226866   6.220   0.696  12.911  0.5429 -0.5283  0.3987
  891TIP3   OH226867   4.451   1.550  10.861  0.6139  0.2151  0.5035
  891TIP3    H126868   4.418   1.539  10.772  3.2188 -0.1450 -0.5065
  891TIP3    H226869   4.388   1.609  10.903 -1.4022 -0.6580 -1.1136
  892TIP3   OH226870   6.403   5.601  10.169  0.0601 -0.4566 -0.0315
  892TIP3    H126871   6.430   5.606  10.261  0.1943 -0.1230 -0.0897
  892TIP3    H226872   6.307   5.607  10.173 -0.0120 -1.4303  0.1578
  893TIP3   OH226873   6.023   2.216  11.410 -0.3781  0.1174  0.1748
  893TIP3    H126874   6.028   2.302  11.451 -1.8715  0.1937  0.2541
  893TIP3    H226875   6.060   2.156  11.474 -1.9752  0.3367  1.3732
  894TIP3   OH226876   3.401   5.994  10.613 -0.6965 -0.1008 -0.4387
  894TIP3    H126877   3.319   6.023  10.653 -0.5563 -1.0806  0.6041
  894TIP3    H226878   3.397   6.028  10.523 -0.8116  2.5921  0.4928
  895TIP3   OH226879   3.662   5.303  11.814  0.3321 -0.6234  0.0445
  895TIP3    H126880   3.696   5.289  11.725 -0.7785  1.4380 -0.7807
  895TIP3    H226881   3.575   5.264  11.812 -0.5852  1.2829 -0.5560
  896TIP3   OH226882   4.579   3.920  11.171 -0.1038  0.6906 -0.2724
  896TIP3    H126883   4.570   4.015  11.168  0.3811  0.7291 -0.9557
  896TIP3    H226884   4.517   3.891  11.237  0.0612  1.5207  0.2577
  897TIP3   OH226885   6.229   2.151  12.279 -0.2130 -0.0251  0.9051
  897TIP3    H126886   6.222   2.161  12.184  0.6542  1.5918  0.9856
  897TIP3    H226887   6.223   2.056  12.293  1.8005 -0.4949 -0.9449
  898TIP3   OH226888   2.504   4.507  10.426  0.6036 -0.5055 -0.7296
  898TIP3    H126889   2.465   4.589  10.458  1.7488 -0.3214  0.2581
  898TIP3    H226890   2.442   4.439  10.454  0.8299 -0.1936  0.5709
  899TIP3   OH226891   5.910   3.024  11.269  0.3128  0.1731  0.1075
  899TIP3    H126892   5.979   3.082  11.237 -0.3277  1.5843  1.1948
  899TIP3    H226893   5.878   3.066  11.349  0.4293 -2.1418  1.4600
  900TIP3   OH226894   1.488   0.073  12.459 -0.3865  0.0020 -0.3181
  900TIP3    H126895   1.401   0.033  12.457 -0.3184 -0.1160 -0.8068
  900TIP3    H226896   1.536   0.023  12.525 -0.7229  0.1432  0.0397
  901TIP3   OH226897   2.217   3.376  11.237 -0.1081 -0.0681  0.0154
  901TIP3    H126898   2.287   3.381  11.303 -0.4618 -0.8430  0.4716
  901TIP3    H226899   2.217   3.284  11.210 -0.8855 -0.0528 -0.0472
  902TIP3   OH226900   5.742   0.520   9.609 -0.3913 -0.1925 -0.4933
  902TIP3    H126901   5.676   0.587   9.591 -0.8317 -0.5410 -0.1892
  902TIP3    H226902   5.815   0.568   9.648  0.5254  0.5673 -2.9710
  903TIP3   OH226903   3.671   3.081  11.774 -0.1522  0.5176  0.1104
  903TIP3    H126904   3.766   3.088  11.789 -0.3339  1.3456  0.9328
  903TIP3    H226905   3.661   2.998  11.727  0.6966 -1.2348  2.7988
  904TIP3   OH226906   4.134   1.345  11.571 -0.0341 -0.1730  0.1415
  904TIP3    H126907   4.146   1.388  11.486 -0.3941 -1.0758 -0.3790
  904TIP3    H226908   4.122   1.253  11.550  1.0531 -0.5921  1.2726
  905TIP3   OH226909   2.086   5.109  12.776  0.1739 -0.1152 -0.2524
  905TIP3    H126910   2.177   5.087  12.755  0.3759  1.0323 -0.6900
  905TIP3    H226911   2.055   5.037  12.831  0.6862 -1.5523 -1.8029
  906TIP3   OH226912   0.713   4.429  13.281 -0.4308  0.1363  1.0052
  906TIP3    H126913   0.654   4.355  13.265 -0.4858  0.7707 -2.8999
  906TIP3    H226914   0.655   4.505  13.282  0.0240  0.5229 -0.1943
  907TIP3   OH226915   4.474   0.193  10.296 -0.6741  0.6357 -0.0641
  907TIP3    H126916   4.505   0.192  10.386  0.5467 -2.4961 -0.4181
  907TIP3    H226917   4.395   0.139  10.297 -0.8955  0.9322 -0.8079
  908TIP3   OH226918   6.588   2.052  12.733 -0.7651  0.1008 -0.2376
  908TIP3    H126919   6.519   2.017  12.677  1.4492 -2.0944 -1.8134
  908TIP3    H226920   6.576   2.147  12.731 -2.3381 -0.0872 -2.3325
  909TIP3   OH226921   0.342   3.437  11.827  0.0670 -0.1179 -0.5392
  909TIP3    H126922   0.297   3.467  11.748 -0.2020  3.1040  0.6653
  909TIP3    H226923   0.278   3.449  11.897  2.0978  3.3747  1.0414
  910TIP3   OH226924   4.406   4.444  10.204  0.0038 -0.9323  0.4870
  910TIP3    H126925   4.311   4.448  10.193  0.1335 -1.1655 -0.9439
  910TIP3    H226926   4.438   4.399  10.126  1.4276  0.6958  0.0410
  911TIP3   OH226927   4.846   4.924  10.604 -0.4586 -0.3317 -0.0815
  911TIP3    H126928   4.909   4.990  10.576 -0.6527 -0.2261 -0.2746
  911TIP3    H226929   4.900   4.850  10.633 -0.2172  0.2429  0.9833
  912TIP3   OH226930   2.683   2.190  10.302  0.1546  0.2622 -0.3500
  912TIP3    H126931   2.770   2.223  10.280 -0.0783  0.5183 -0.8874
  912TIP3    H226932   2.680   2.102  10.264  0.8254 -0.4746  1.1970
  913TIP3   OH226933   3.814   5.992  11.793  0.1840  0.1060  0.2865
  913TIP3    H126934   3.826   6.024  11.883 -1.6504 -0.1260  0.6508
  913TIP3    H226935   3.890   6.027  11.745  1.6652 -0.4928  2.0874
  914TIP3   OH226936   5.775   3.263  10.547  0.8186  0.1510 -0.2295
  914TIP3    H126937   5.818   3.308  10.475 -2.2156 -0.0205 -2.3409
  914TIP3    H226938   5.785   3.170  10.527 -1.9970  0.0932 -1.8976
  915TIP3   OH226939   2.050   4.260  12.942  0.4744 -0.1853  0.1962
  915TIP3    H126940   1.977   4.199  12.928  0.1377 -0.0601  1.3415
  915TIP3    H226941   2.014   4.328  12.999  1.5028 -0.1638  0.8427
  916TIP3   OH226942   1.968   1.170  11.564 -0.3988  0.0205 -0.5661
  916TIP3    H126943   1.936   1.128  11.485  1.5436 -0.1355 -1.3183
  916TIP3    H226944   2.016   1.101  11.611  2.6274  1.1793 -1.7011
  917TIP3   OH226945   5.096   4.832  12.084  0.3371 -0.1898  0.2637
  917TIP3    H126946   5.064   4.881  12.159 -1.7497 -0.9060 -0.1056
  917TIP3    H226947   5.163   4.774  12.120 -0.1291 -0.0227  1.4450
  918TIP3   OH226948   4.502   6.480  12.604  0.4875  0.5213 -0.2546
  918TIP3    H126949   4.518   6.575  12.607 -0.3387  0.7220 -1.5251
  918TIP3    H226950   4.570   6.446  12.546  0.3093  0.4381 -0.4130
  919TIP3   OH226951   1.485   2.958  12.747 -0.2694 -0.3234  0.0107
  919TIP3    H126952   1.570   2.934  12.710 -0.9984 -0.5035 -1.6138
  919TIP3    H226953   1.479   3.053  12.733 -0.3755 -0.3272  0.0331
  920TIP3   OH226954   2.809   4.834  10.970 -0.4020  0.1180 -0.2009
  920TIP3    H126955   2.714   4.825  10.966 -0.3708  0.1465 -1.2507
  920TIP3    H226956   2.842   4.749  10.940 -0.0735 -0.3814  1.4518
  921TIP3   OH226957   0.404   2.904  12.263 -0.2097 -0.6416 -0.3497
  921TIP3    H126958   0.420   2.837  12.330 -0.1037 -1.0359 -0.7623
  921TIP3    H226959   0.450   2.871  12.186 -0.1968 -0.1114 -0.5703
  922TIP3   OH226960   4.337   4.895  11.379 -0.5670 -0.2349 -0.3195
  922TIP3    H126961   4.360   4.984  11.351  0.2686 -0.1618  0.5524
  922TIP3    H226962   4.289   4.907  11.461  1.1367 -0.6438  0.7835
  923TIP3   OH226963   1.100   1.678  11.052 -0.1465  0.1641 -0.3511
  923TIP3    H126964   1.128   1.601  11.101  1.8142  0.7719 -0.4160
  923TIP3    H226965   1.093   1.747  11.119 -2.1365 -0.0931 -0.2524
  924TIP3   OH226966   3.744   2.768  12.013 -0.2013 -0.5049  0.5409
  924TIP3    H126967   3.724   2.675  12.004 -0.6735 -0.5483  1.7534
  924TIP3    H226968   3.679   2.800  12.077 -0.7650  0.9069 -0.6809
  925TIP3   OH226969   0.868   2.777  12.601  0.0039 -0.5723  0.2372
  925TIP3    H126970   0.875   2.783  12.696  1.5479  0.1912  0.1201
  925TIP3    H226971   0.787   2.729  12.585 -0.7475  0.0633  1.9118
  926TIP3   OH226972   6.219   2.226  12.663 -0.1323  0.1776 -0.0671
  926TIP3    H126973   6.244   2.285  12.592 -0.3715 -0.3187 -0.5643
  926TIP3    H226974   6.267   2.146  12.647 -0.2791  0.0199  0.2647
  927TIP3   OH226975   1.849   6.417  11.249 -0.1696 -0.2042  0.2089
  927TIP3    H126976   1.771   6.468  11.273 -1.4219 -1.9435 -0.0215
  927TIP3    H226977   1.890   6.397  11.333 -2.2248 -2.6700  0.7415
  928TIP3   OH226978   5.411   1.288  10.851 -0.5016 -0.1722  0.5325
  928TIP3    H126979   5.409   1.241  10.768  0.6582  1.3890 -0.4449
  928TIP3    H226980   5.407   1.220  10.918 -0.5554 -1.5282 -0.8034
  929TIP3   OH226981   1.207   5.620  12.997  0.3166 -0.3032  0.3222
  929TIP3    H126982   1.137   5.565  12.963  1.2563 -1.7494  0.6202
  929TIP3    H226983   1.265   5.635  12.922 -0.0294  0.4502  0.1988
  930TIP3   OH226984   5.620   3.651  10.781 -0.2393  0.3357  0.4718
  930TIP3    H126985   5.710   3.638  10.749 -1.0114 -0.7934 -1.4593
  930TIP3    H226986   5.602   3.743  10.765  0.9507  0.8816  2.0308
  931TIP3   OH226987   5.786   0.396   9.385 -0.4515  0.0074  0.2562
  931TIP3    H126988   5.780   0.441   9.470 -2.1127  0.0029  0.1692
  931TIP3    H226989   5.740   0.454   9.324 -0.5132 -0.6729 -0.3507
  932TIP3   OH226990   2.140   0.436  12.278  0.2040 -0.2631  0.0943
  932TIP3    H126991   2.145   0.408  12.370 -0.2594 -0.9154 -0.0714
  932TIP3    H226992   2.155   0.531  12.282  0.9928 -0.4040  0.7511
  933TIP3   OH226993   0.755   6.437  12.500  0.3352  0.1900 -0.2670
  933TIP3    H126994   0.753   6.383  12.579 -1.2468  0.9722  0.2686
  933TIP3    H226995   0.804   6.515  12.525  1.4407 -0.3508 -0.6435
  934TIP3   OH226996   3.947   0.772  10.975 -0.0792 -0.0746  0.1570
  934TIP3    H126997   3.938   0.693  10.922 -0.7059 -0.8339  1.3457
  934TIP3    H226998   4.000   0.831  10.921  0.8015 -1.4645 -0.5784
  935TIP3   OH226999   6.134   3.823  12.682  0.5499  0.3226 -0.0959
  935TIP3    H127000   6.167   3.862  12.763 -0.6969  0.3607  0.4181
  935TIP3    H227001   6.128   3.896  12.621 -1.1159  0.8861  0.6534
  936TIP3   OH227002   2.177   1.392  11.598 -0.1086  0.0600  0.2333
  936TIP3    H127003   2.126   1.464  11.560 -0.5916  0.2874  1.2854
  936TIP3    H227004   2.122   1.314  11.585  0.2764 -0.0756 -0.6263
  937TIP3   OH227005   2.062   2.910  11.346 -0.4051  0.0572 -0.0721
  937TIP3    H127006   2.088   2.854  11.419  0.3862 -0.0771 -0.4439
  937TIP3    H227007   1.977   2.877  11.319 -0.6975  0.0914  0.7666
  938TIP3   OH227008   5.307   5.362  12.467 -0.1472  0.0359 -0.4046
  938TIP3    H127009   5.391   5.392  12.503 -0.1189 -0.6601  0.1330
  938TIP3    H227010   5.283   5.429  12.403 -0.0027  1.1160  0.6274
  939TIP3   OH227011   4.411   2.439   9.956  0.2294  0.3699 -0.4202
  939TIP3    H127012   4.479   2.379   9.987 -0.4414 -0.3935 -0.4198
  939TIP3    H227013   4.329   2.398   9.980 -0.2477  1.3073 -0.3953
  940TIP3   OH227014   0.725   6.352  12.922 -0.0725 -0.1477 -0.1159
  940TIP3    H127015   0.803   6.407  12.909 -0.6088  0.6294 -0.1164
  940TIP3    H227016   0.653   6.414  12.925 -0.6356 -0.8185  0.4584
  941TIP3   OH227017   0.166   0.878  11.099  0.6532 -0.0961  0.4410
  941TIP3    H127018   0.259   0.855  11.101  1.1808  1.7240 -0.4339
  941TIP3    H227019   0.165   0.974  11.106 -1.1956 -0.1103  0.9487
  942TIP3   OH227020   1.287   2.755  11.574 -0.8871  0.0210 -0.0865
  942TIP3    H127021   1.373   2.725  11.605 -1.9904 -2.1301  1.1192
  942TIP3    H227022   1.258   2.818  11.640 -0.1504  0.9660 -0.6436
  943TIP3   OH227023   5.327   6.382  11.423 -0.3557 -0.1708 -0.0925
  943TIP3    H127024   5.413   6.388  11.465 -0.0443  2.8713 -0.9587
  943TIP3    H227025   5.274   6.333  11.485  1.3433  0.0325  1.6222
  944TIP3   OH227026   2.074   2.419  11.519 -0.0250  0.0921  0.0069
  944TIP3    H127027   1.988   2.385  11.493 -0.0081  0.1666 -0.1485
  944TIP3    H227028   2.113   2.348  11.570 -0.1278  0.0084 -0.0296
  945TIP3   OH227029   4.640   1.125  12.300 -0.0402  0.4277  0.6469
  945TIP3    H127030   4.592   1.066  12.242  0.5572  0.4515  0.1120
  945TIP3    H227031   4.618   1.096  12.388 -0.7444  0.2110  0.4066
  946TIP3   OH227032   3.335   0.466  12.928  0.5393 -0.0713  0.5023
  946TIP3    H127033   3.288   0.424  13.000  1.1218  0.6424  1.3159
  946TIP3    H227034   3.323   0.559  12.943  1.2491  0.0965  0.0695
  947TIP3   OH227035   6.659   5.944  12.793  0.1790  0.3881  0.1523
  947TIP3    H127036   6.564   5.934  12.797  0.3255 -0.8201  1.6058
  947TIP3    H227037   6.692   5.859  12.763  0.8308  0.6416  0.1191
  948TIP3   OH227038   6.775   1.608  12.829  0.0328  0.4642 -0.0373
  948TIP3    H127039   6.717   1.681  12.808  0.1406  0.3375 -0.7984
  948TIP3    H227040   6.857   1.649  12.855 -0.2107  0.6305  0.4914
  949TIP3   OH227041   5.372   6.297   9.890  0.5110 -0.1222  0.4579
  949TIP3    H127042   5.340   6.231   9.951 -1.2128  0.2056 -0.0335
  949TIP3    H227043   5.306   6.367   9.894  2.2559  1.5815  0.9420
  950TIP3   OH227044   4.717   4.943  11.303 -0.0488 -0.1079  0.0459
  950TIP3    H127045   4.685   5.033  11.296  1.8065  0.5854 -0.4089
  950TIP3    H227046   4.710   4.908  11.214 -0.1033 -0.1477  0.0656
  951TIP3   OH227047   2.031   2.234  12.152  0.1030  0.2011  0.5294
  951TIP3    H127048   2.075   2.311  12.116 -1.2393 -0.3972 -2.6998
  951TIP3    H227049   1.993   2.266  12.235  1.9167  2.1704  0.7031
  952TIP3   OH227050   0.867   5.387  10.704 -0.5685 -0.7986 -0.6907
  952TIP3    H127051   0.949   5.435  10.718 -0.4292 -1.3383  0.4568
  952TIP3    H227052   0.799   5.446  10.737 -0.4748 -1.0312 -0.0682
  953TIP3   OH227053   5.728   0.509   9.934 -0.0165 -0.4034  0.1256
  953TIP3    H127054   5.757   0.513   9.843  2.1574  3.0217  0.7948
  953TIP3    H227055   5.787   0.446   9.975  1.5400  0.8300 -0.1235
  954TIP3   OH227056   2.402   4.771  10.458  0.2710  0.5322 -0.0990
  954TIP3    H127057   2.414   4.858  10.420 -1.3129  0.7777 -0.1044
  954TIP3    H227058   2.376   4.788  10.549  0.7794  0.0355  0.1436
  955TIP3   OH227059   3.735   1.666  10.661 -0.0869 -0.5670  0.3923
  955TIP3    H127060   3.659   1.725  10.659 -1.3146 -2.0929  0.3191
  955TIP3    H227061   3.781   1.683  10.579 -0.8153 -0.2212  0.0458
  956TIP3   OH227062   2.958   0.149  11.009  0.4736 -0.2424  0.3650
  956TIP3    H127063   2.885   0.205  10.983  0.2476 -0.2983  0.8638
  956TIP3    H227064   2.958   0.152  11.105 -0.8903 -2.7398  0.5491
  957TIP3   OH227065   1.130   3.693  12.557 -0.0933  0.3956  0.5770
  957TIP3    H127066   1.095   3.774  12.593  0.1773 -0.4528  2.9402
  957TIP3    H227067   1.057   3.656  12.506  0.1252  2.5644 -1.4974
  958TIP3   OH227068   6.479   0.979  11.042  0.0223  0.6358  0.5908
  958TIP3    H127069   6.430   0.945  11.116 -0.3213 -3.1836 -1.1861
  958TIP3    H227070   6.554   0.920  11.033  0.6527  1.6514 -1.4299
  959TIP3   OH227071   2.173   4.618  10.362  0.0294  0.0761  0.2951
  959TIP3    H127072   2.252   4.670  10.380  0.7673 -1.2770  1.1037
  959TIP3    H227073   2.135   4.659  10.284  1.3403  0.9776  0.0968
  960TIP3   OH227074   2.900   0.180  12.380  0.2245  0.1980 -0.1069
  960TIP3    H127075   2.899   0.248  12.313 -0.5870 -0.1413 -0.4581
  960TIP3    H227076   2.837   0.210  12.446 -0.9080 -0.6663 -0.7573
  961TIP3   OH227077   1.750   5.686  10.186  0.0805 -0.2398 -0.3176
  961TIP3    H127078   1.771   5.637  10.106 -1.0642  1.0192 -1.4284
  961TIP3    H227079   1.744   5.777  10.158  1.5267  0.5063  1.5839
  962TIP3   OH227080   4.161   2.771  12.525  0.1432 -0.0261 -0.2649
  962TIP3    H127081   4.175   2.728  12.441  0.5307  0.5168 -0.4797
  962TIP3    H227082   4.212   2.852  12.520  2.4840 -1.2623  1.5169
  963TIP3   OH227083   3.110   4.511  13.044  0.3596  0.0214  0.0773
  963TIP3    H127084   3.185   4.562  13.075  1.4200 -1.1591 -0.4775
  963TIP3    H227085   3.123   4.424  13.082 -0.9130 -0.1148  0.2396
  964TIP3   OH227086   1.833   2.876  12.837 -0.5803 -0.4117 -0.1380
  964TIP3    H127087   1.785   2.884  12.754 -0.6123 -0.5865 -0.1346
  964TIP3    H227088   1.828   2.784  12.860 -3.0293  0.0253  1.5152
  965TIP3   OH227089   2.859   0.547  11.123 -1.0780 -0.5968  0.2116
  965TIP3    H127090   2.791   0.578  11.182 -1.4077  0.6316 -0.7817
  965TIP3    H227091   2.842   0.592  11.041  2.7828  2.2770  0.7495
  966TIP3   OH227092   5.555   3.316  10.137  0.1137 -0.3201  0.5788
  966TIP3    H127093   5.574   3.298  10.229  0.5456  0.5547  0.6762
  966TIP3    H227094   5.498   3.393  10.139 -0.3136 -0.6188  0.1278
  967TIP3   OH227095   0.385   6.174  11.941 -0.0506  0.5854 -0.0651
  967TIP3    H127096   0.361   6.228  11.866 -1.5025 -0.0227 -0.0636
  967TIP3    H227097   0.408   6.238  12.010 -0.5661  1.1749 -0.4330
  968TIP3   OH227098   0.694   5.062  10.555 -0.1013 -0.3854  0.2398
  968TIP3    H127099   0.681   5.037  10.464  2.0756  1.1304 -0.5638
  968TIP3    H227100   0.614   5.108  10.580 -0.3336  0.0466 -1.2266
  969TIP3   OH227101   2.790   3.753  10.486 -0.9200 -0.0511 -0.5920
  969TIP3    H127102   2.861   3.709  10.439 -0.0609 -2.1172  2.3491
  969TIP3    H227103   2.730   3.682  10.510 -2.0549  1.1409  0.1992
  970TIP3   OH227104   5.334   0.975  11.896 -0.5424  0.2838  0.7150
  970TIP3    H127105   5.429   0.970  11.889 -0.4974  2.1566 -0.8250
  970TIP3    H227106   5.317   0.999  11.987  0.5380  1.0776  0.7262
  971TIP3   OH227107   4.586   2.324  12.830  0.1602 -0.4574  0.3182
  971TIP3    H127108   4.597   2.285  12.916  0.2162  2.1007  1.5586
  971TIP3    H227109   4.494   2.352  12.827  0.8073  1.9319  0.7378
  972TIP3   OH227110   6.590   3.645  13.064 -0.2956  0.7704  0.5299
  972TIP3    H127111   6.505   3.684  13.081 -0.2112  1.1625  0.0934
  972TIP3    H227112   6.575   3.551  13.064 -0.7886  0.8473  0.1509
  973TIP3   OH227113   3.837   4.425  11.060  0.4263 -0.1109  0.6275
  973TIP3    H127114   3.838   4.405  10.966  1.6819 -1.0981  0.8191
  973TIP3    H227115   3.916   4.477  11.074  0.5594 -0.4777  1.2444
  974TIP3   OH227116   4.527   1.437  11.180  0.0234  0.1544  0.3402
  974TIP3    H127117   4.450   1.394  11.144  0.1078 -1.2806  1.7653
  974TIP3    H227118   4.501   1.529  11.189 -0.2636  0.4477 -2.5007
  975TIP3   OH227119   6.339   1.059  12.197  0.3466  0.1058 -0.6694
  975TIP3    H127120   6.287   1.074  12.119 -1.6135 -1.2666  0.2841
  975TIP3    H227121   6.282   1.008  12.255  1.4220  1.6738  1.9732
  976TIP3   OH227122   3.214   6.454   9.533  0.4152 -0.1179 -0.1178
  976TIP3    H127123   3.284   6.490   9.588  1.3739 -2.9905  0.7153
  976TIP3    H227124   3.133   6.481   9.577  1.1125  0.1445  1.0488
  977TIP3   OH227125   4.682   6.064  12.764  0.3257  0.0102 -0.2844
  977TIP3    H127126   4.755   6.123  12.746  0.2162  0.1643 -0.2296
  977TIP3    H227127   4.634   6.060  12.681  0.2521  0.1125 -0.2470
  978TIP3   OH227128   4.205   3.751  12.069  0.3789  0.4828  0.5992
  978TIP3    H127129   4.176   3.841  12.054 -0.0785  0.3162  0.4713
  978TIP3    H227130   4.159   3.699  12.004 -1.0857 -0.1575  2.0783
  979TIP3   OH227131   0.077   4.995  12.075  0.3633 -0.0825  0.3626
  979TIP3    H127132   0.119   5.013  11.991  0.8524 -0.0348  0.6117
  979TIP3    H227133  -0.017   5.007  12.059  0.5034  0.5420 -0.0176
  980TIP3   OH227134   5.617   3.712   9.341  0.1683  0.2593 -0.1648
  980TIP3    H127135   5.710   3.726   9.326  0.4925 -0.8344  0.7086
  980TIP3    H227136   5.598   3.762   9.421 -0.2908  1.4667 -0.9927
  981TIP3   OH227137   0.267   1.084  12.491 -0.5051 -0.2202  0.9698
  981TIP3    H127138   0.288   1.085  12.398 -0.2587 -2.3546  0.9627
  981TIP3    H227139   0.209   1.009  12.502 -0.7842  0.1856  2.4940
  982TIP3   OH227140   0.555   2.120  11.125  0.3772 -0.1430  0.5066
  982TIP3    H127141   0.593   2.172  11.195  1.6056 -3.4596  2.5677
  982TIP3    H227142   0.587   2.161  11.045  1.4150  2.0734  1.9418
  983TIP3   OH227143   5.598   5.640  10.550  0.2502 -0.4650 -0.2565
  983TIP3    H127144   5.537   5.663  10.479  0.6307 -1.0022 -0.7686
  983TIP3    H227145   5.672   5.700  10.537 -0.7403  1.1937  1.2328
  984TIP3   OH227146   2.862   2.380  11.084 -0.0250  0.2556 -0.0568
  984TIP3    H127147   2.814   2.323  11.024 -0.6559  1.3176 -0.5888
  984TIP3    H227148   2.794   2.428  11.131  0.4839  0.1794  0.7724
  985TIP3   OH227149   5.768   0.255  11.804 -0.0251 -0.0928  0.1232
  985TIP3    H127150   5.730   0.320  11.744  0.7174  1.8905  1.6983
  985TIP3    H227151   5.860   0.279  11.811 -0.0345 -0.4204  1.8420
  986TIP3   OH227152   4.063   2.295  10.611  0.1882  0.0954 -0.0827
  986TIP3    H127153   4.127   2.296  10.682  0.6476  0.8513 -0.4872
  986TIP3    H227154   4.010   2.217  10.626  0.0084  0.4605  1.3258
  987TIP3   OH227155   3.631   3.647  10.573 -0.6893  0.4376 -0.2154
  987TIP3    H127156   3.646   3.577  10.509  0.5157  0.8600 -0.4391
  987TIP3    H227157   3.575   3.607  10.640  0.5342 -0.9940  0.0398
  988TIP3   OH227158   3.966   4.750  10.677 -0.1555  0.3865  0.1808
  988TIP3    H127159   3.881   4.718  10.648  0.3290 -1.3416  0.5608
  988TIP3    H227160   3.979   4.710  10.763  0.0037  2.5569  1.2440
  989TIP3   OH227161   4.868   5.553  12.689 -0.2330  0.2957  0.5622
  989TIP3    H127162   4.947   5.586  12.646  0.2638  1.1712  2.0610
  989TIP3    H227163   4.796   5.601  12.647 -0.0282 -0.6682 -0.9653
  990TIP3   OH227164   2.998   1.848  11.494  0.0391  0.0640 -0.1741
  990TIP3    H127165   2.934   1.778  11.487  0.3957 -0.3945  0.9454
  990TIP3    H227166   3.075   1.815  11.449 -0.7846  1.0155 -2.4205
  991TIP3   OH227167   6.170   6.382  12.984 -0.2561  0.2900 -0.1458
  991TIP3    H127168   6.176   6.475  13.004  1.6780  0.0993  0.2767
  991TIP3    H227169   6.260   6.353  12.973 -0.5546 -2.1302  2.5260
  992TIP3   OH227170   0.590   1.393  12.995  0.3119  0.2957  0.2514
  992TIP3    H127171   0.562   1.450  12.923  1.3417 -1.6246 -1.8256
  992TIP3    H227172   0.524   1.323  12.996  0.2930  0.3230  1.2156
  993TIP3   OH227173   4.560   1.295  10.612 -0.1481 -0.3867  0.0351
  993TIP3    H127174   4.495   1.351  10.568  0.4624  1.9128  1.8354
  993TIP3    H227175   4.522   1.276  10.697  0.3521 -1.4322  0.0433
  994TIP3   OH227176   1.726   0.825  11.657  0.2569 -0.0801  0.6478
  994TIP3    H127177   1.713   0.730  11.657  0.9009 -0.2040  2.2652
  994TIP3    H227178   1.643   0.861  11.626 -0.5826 -1.1255  1.6263
  995TIP3   OH227179   6.392   5.782  10.882  0.5856  0.3946 -0.5295
  995TIP3    H127180   6.455   5.806  10.951  0.1743  1.2430 -0.4417
  995TIP3    H227181   6.365   5.693  10.905 -0.0778  0.9174  0.8180
  996TIP3   OH227182   6.333   2.681  10.012 -0.0822  0.3286 -0.5121
  996TIP3    H127183   6.334   2.768   9.973 -1.9671  1.0135  0.8072
  996TIP3    H227184   6.253   2.641   9.980 -0.0204 -0.3114  0.1016
  997TIP3   OH227185   2.341   5.064  12.661  0.3419 -0.0056  0.1107
  997TIP3    H127186   2.389   5.111  12.592 -0.5041 -2.1441 -2.1127
  997TIP3    H227187   2.390   4.983  12.673  0.0928  0.0368  1.5795
  998TIP3   OH227188   3.013   5.089  10.267  0.2130 -0.5234  0.4174
  998TIP3    H127189   3.071   5.061  10.196 -0.2887 -0.5062 -0.0094
  998TIP3    H227190   2.928   5.103  10.224 -0.5985 -2.3302  1.3091
  999TIP3   OH227191   3.942   0.823  11.905 -0.3265 -0.4438 -0.4585
  999TIP3    H127192   3.912   0.780  11.825 -0.6056  2.0135 -1.7825
  999TIP3    H227193   4.038   0.821  11.898 -0.3398 -0.7311 -0.5686
 1000TIP3   OH227194   0.226   6.406  12.363  0.1980  0.5799 -0.4350
 1000TIP3    H127195   0.318   6.411  12.388  0.3755 -0.3486 -0.8423
 1000TIP3    H227196   0.182   6.373  12.441  0.5762 -1.1844 -0.9098
 1001TIP3   OH227197   0.406   2.481  10.772 -0.0228  0.5748  0.1741
 1001TIP3    H127198   0.368   2.399  10.741  2.5643 -1.4439  1.8199
 1001TIP3    H227199   0.426   2.530  10.692 -3.5612  0.7016 -0.8043
 1002TIP3   OH227200   3.565   3.619  12.094  0.4174  0.5931  0.0879
 1002TIP3    H127201   3.644   3.580  12.131  2.4277  2.8658 -1.4811
 1002TIP3    H227202   3.548   3.569  12.014  1.4930  1.2398 -0.5841
 1003TIP3   OH227203   2.686   4.133  11.603  0.0177 -0.5821  0.0775
 1003TIP3    H127204   2.622   4.063  11.599  0.4983 -0.9887 -0.6901
 1003TIP3    H227205   2.739   4.113  11.681  0.0469 -0.9802 -0.0446
 1004TIP3   OH227206   2.667   0.357  10.484  0.1791 -0.0292 -0.5615
 1004TIP3    H127207   2.660   0.422  10.554 -0.7391  1.8222 -2.2649
 1004TIP3    H227208   2.591   0.301  10.497  1.1145 -0.9987  1.0798
 1005TIP3   OH227209   0.033   0.136   9.864  0.4636 -0.2068 -0.5298
 1005TIP3    H127210   0.105   0.197   9.848  0.3944 -0.6812 -3.0824
 1005TIP3    H227211  -0.044   0.192   9.876  0.4804  0.2882 -2.4015
 1006TIP3   OH227212   3.593   4.219  10.015  0.2406 -0.0513  0.3111
 1006TIP3    H127213   3.683   4.203   9.986 -0.5406 -1.8109 -1.3341
 1006TIP3    H227214   3.539   4.190   9.942 -1.6825  1.3140  1.1183
 1007TIP3   OH227215   0.334   0.002  11.793  0.4118 -0.1465  0.3565
 1007TIP3    H127216   0.319   0.096  11.784  0.2579 -0.1414  0.6522
 1007TIP3    H227217   0.257  -0.038  11.751  1.9171 -0.2086 -2.6125
 1008TIP3   OH227218   5.585   2.700  13.046  0.2027 -0.2280  0.0721
 1008TIP3    H127219   5.589   2.767  13.114 -1.5387  0.5311 -0.5365
 1008TIP3    H227220   5.572   2.618  13.094 -0.9467  0.2931  0.6822
 1009TIP3   OH227221   1.263   0.921  10.295  0.4563 -0.1217 -0.2169
 1009TIP3    H127222   1.307   0.847  10.253 -0.6361 -1.3400  0.6949
 1009TIP3    H227223   1.227   0.885  10.376 -0.0946  1.4287  0.2711
 1010TIP3   OH227224   4.094   3.061   9.909 -0.3834 -0.9199  0.4941
 1010TIP3    H127225   4.168   3.007   9.939  1.3909  1.5115  0.7860
 1010TIP3    H227226   4.017   3.017   9.945  1.0756 -2.4276  1.9833
 1011TIP3   OH227227   2.221   4.333  10.314 -0.0106  0.3781 -0.4070
 1011TIP3    H127228   2.140   4.282  10.322  0.5114 -0.4356 -0.1766
 1011TIP3    H227229   2.202   4.415  10.358  0.1049 -0.7779  1.9284
 1012TIP3   OH227230   1.201   2.831  11.814 -0.3169 -0.1827  0.5888
 1012TIP3    H127231   1.117   2.872  11.836  0.6970  3.2391 -1.1173
 1012TIP3    H227232   1.263   2.867  11.878  0.3411 -0.4202  0.0973
 1013TIP3   OH227233   0.226   0.560  11.301 -0.4075 -0.1084  0.3657
 1013TIP3    H127234   0.280   0.627  11.260  1.4705 -1.8771 -0.1994
 1013TIP3    H227235   0.155   0.545  11.239 -0.0015  0.2761 -0.1969
 1014TIP3   OH227236   5.176   5.137  10.326  0.3283 -0.0640 -0.1985
 1014TIP3    H127237   5.137   5.120  10.412  0.7491 -0.2340 -0.0400
 1014TIP3    H227238   5.113   5.102  10.264 -0.5039  1.0168 -0.0105
 1015TIP3   OH227239   6.244   1.362  10.465  0.6261  0.1519 -0.0824
 1015TIP3    H127240   6.227   1.360  10.371 -0.9972  0.4710  0.1720
 1015TIP3    H227241   6.195   1.438  10.497  0.1464 -0.6522  1.1885
 1016TIP3   OH227242   4.526   0.021  11.712  0.0268 -0.7264  0.2244
 1016TIP3    H127243   4.542  -0.056  11.767 -0.8589  0.4183  2.2007
 1016TIP3    H227244   4.433   0.040  11.724  0.7710  2.3579  2.2678
 1017TIP3   OH227245   4.620   6.354  12.379 -0.0824  0.4536 -0.3050
 1017TIP3    H127246   4.563   6.418  12.338  0.2199  1.7733  1.2420
 1017TIP3    H227247   4.702   6.360  12.330 -0.7180 -0.2911 -1.4995
 1018TIP3   OH227248   2.815   2.946  12.396  0.4115  0.1266 -0.3171
 1018TIP3    H127249   2.729   2.909  12.417 -0.9044  1.5918 -2.7414
 1018TIP3    H227250   2.877   2.880  12.427 -1.6814 -2.8732 -1.9884
 1019TIP3   OH227251   6.239   5.852  12.935 -0.1600 -0.0313 -0.1355
 1019TIP3    H127252   6.211   5.885  12.850  0.6848  0.2614 -0.3103
 1019TIP3    H227253   6.223   5.924  12.995  1.4888  0.6797 -0.4816
 1020TIP3   OH227254   2.841   5.352  11.693  0.3078 -0.0476 -0.3867
 1020TIP3    H127255   2.849   5.265  11.653  0.2287  0.1948 -0.9338
 1020TIP3    H227256   2.928   5.372  11.725 -0.1929 -1.4672  2.1530
 1021TIP3   OH227257   0.359   4.965  10.651  0.3433  0.4277 -0.1836
 1021TIP3    H127258   0.336   4.961  10.558  0.7369 -0.7886 -0.2485
 1021TIP3    H227259   0.285   4.926  10.696  0.6153  0.0201 -0.0833
 1022TIP3   OH227260   1.493   6.544  10.627 -0.0643  0.3394 -0.1729
 1022TIP3    H127261   1.522   6.554  10.536 -0.4460  2.9083 -0.0900
 1022TIP3    H227262   1.398   6.558  10.623 -0.1704 -0.1426  0.5509
 1023TIP3   OH227263   4.996   4.332  10.119 -0.9553  0.4874  0.0454
 1023TIP3    H127264   5.005   4.405  10.059 -0.2138  0.5732  0.2519
 1023TIP3    H227265   5.084   4.317  10.152 -1.4922  1.0708  1.8531
 1024TIP3   OH227266   6.080   5.247  10.754 -0.2318  0.1775 -0.1138
 1024TIP3    H127267   6.011   5.296  10.800 -0.5412  1.1562 -1.5685
 1024TIP3    H227268   6.105   5.178  10.816 -1.7668  0.4470  0.8729
 1025TIP3   OH227269   1.041   0.719  10.945  0.3727  0.4186 -0.4139
 1025TIP3    H127270   0.961   0.716  10.893  0.1249  1.5092 -0.1194
 1025TIP3    H227271   1.022   0.665  11.021 -0.0278  0.5467 -0.4195
 1026TIP3   OH227272   3.005   6.377  10.736 -0.0091  0.0013 -0.1720
 1026TIP3    H127273   3.006   6.354  10.829 -0.3360  3.5778  0.8737
 1026TIP3    H227274   2.911   6.384  10.715  0.0534 -1.4141 -0.9827
 1027TIP3   OH227275   3.190   2.629  12.286  0.4807 -0.1125 -0.0484
 1027TIP3    H127276   3.226   2.542  12.272 -0.0997 -0.2087 -1.0061
 1027TIP3    H227277   3.174   2.634  12.381  0.3122 -1.1221 -0.0179
 1028TIP3   OH227278   4.315   0.903  11.348 -0.2753  0.0055 -0.6056
 1028TIP3    H127279   4.320   0.998  11.340 -0.2698  0.0667  0.0510
 1028TIP3    H227280   4.361   0.884  11.430 -0.8881 -0.4912 -0.3667
 1029TIP3   OH227281   0.113   2.508  10.753  0.5269  0.7701  0.6522
 1029TIP3    H127282   0.193   2.541  10.793 -0.5756  1.4995  2.3759
 1029TIP3    H227283   0.078   2.446  10.818 -1.0960  1.6519  0.6609
 1030TIP3   OH227284   3.206   5.788  10.280  0.3285  0.4461  0.5530
 1030TIP3    H127285   3.268   5.839  10.228  1.9288 -1.6427  0.3140
 1030TIP3    H227286   3.122   5.831  10.264  1.3413  2.0600 -0.8465
 1031TIP3   OH227287   4.255   5.800  11.336 -0.5382  0.6042 -0.0161
 1031TIP3    H127288   4.205   5.719  11.322 -0.0394  0.0817  1.1010
 1031TIP3    H227289   4.311   5.808  11.259  0.2405 -0.7493  0.3771
 1032TIP3   OH227290   1.485   3.579  13.040  0.2951 -0.1158 -0.3691
 1032TIP3    H127291   1.462   3.569  13.132 -0.1972  1.0983 -0.3470
 1032TIP3    H227292   1.404   3.558  12.993  0.4140 -0.2725 -0.5051
 1033TIP3   OH227293   1.700   5.872  13.041  0.1838  0.6094  0.0015
 1033TIP3    H127294   1.795   5.880  13.037  0.0817  1.5478 -0.9162
 1033TIP3    H227295   1.673   5.937  13.105  0.0519  1.4511 -0.8881
 1034TIP3   OH227296   3.464   1.647   9.856  0.2449  0.0460 -0.3010
 1034TIP3    H127297   3.469   1.553   9.839  1.4293  0.3045 -1.5292
 1034TIP3    H227298   3.536   1.664   9.916  0.5717  0.2972 -0.7581
 1035TIP3   OH227299   0.523   0.268  11.102  0.4018  0.2810 -0.7081
 1035TIP3    H127300   0.593   0.288  11.164  1.0309 -1.2092 -0.8873
 1035TIP3    H227301   0.475   0.350  11.092  0.4481  0.6374  1.5147
 1036TIP3   OH227302   1.058   2.189  12.713  0.1234  0.3207  0.3270
 1036TIP3    H127303   1.110   2.134  12.654  2.3979  0.6499  1.8854
 1036TIP3    H227304   0.970   2.187  12.676  0.5952 -2.5137 -0.9667
 1037TIP3   OH227305   3.184   4.236  10.542  0.5242  0.0621 -0.0466
 1037TIP3    H127306   3.203   4.179  10.467  0.4245 -0.0924  0.0452
 1037TIP3    H227307   3.133   4.181  10.602  0.4709  0.2326  0.0651
 1038TIP3   OH227308   4.390   6.212  10.200 -0.3060 -0.1137  0.5572
 1038TIP3    H127309   4.395   6.307  10.199  1.2398 -0.1710 -0.3081
 1038TIP3    H227310   4.432   6.185  10.118  2.8474 -1.6451  2.4927
 1039TIP3   OH227311   2.924   1.876  10.555  0.4209 -0.2464  0.3766
 1039TIP3    H127312   2.939   1.844  10.466 -0.8430  2.0549 -0.7462
 1039TIP3    H227313   2.955   1.966  10.554  0.6674 -0.2495  2.3944
 1040TIP3   OH227314   0.958   1.349  12.816 -0.7900 -0.0453  0.0925
 1040TIP3    H127315   0.980   1.265  12.858  1.7256  0.6497  0.3224
 1040TIP3    H227316   0.954   1.412  12.888  0.2187  0.5392 -0.3432
 1041TIP3   OH227317   2.931   6.578  11.964 -0.8581 -0.3532  0.1302
 1041TIP3    H127318   2.918   6.639  12.037 -0.5727 -0.0059 -0.1030
 1041TIP3    H227319   2.944   6.493  12.005  0.4430  0.0243  0.5392
 1042TIP3   OH227320   1.259   0.673  12.944 -0.5812 -0.0259  0.4540
 1042TIP3    H127321   1.234   0.708  13.030 -0.0482  0.5140  0.3948
 1042TIP3    H227322   1.180   0.630  12.912 -0.6373 -0.6840  1.4411
 1043TIP3   OH227323   1.499   4.029  11.979 -0.6402 -0.4866  0.0664
 1043TIP3    H127324   1.594   4.032  11.977 -0.6484  0.1464  0.3742
 1043TIP3    H227325   1.472   4.061  11.893 -0.5867  0.2776  0.3299
 1044TIP3   OH227326   2.039   3.836  10.163  0.0511 -0.6902  0.2009
 1044TIP3    H127327   1.969   3.782  10.127  0.4209 -1.0999  0.0791
 1044TIP3    H227328   2.061   3.794  10.247  0.2166 -0.6219  0.1923
 1045TIP3   OH227329   4.017   0.570  10.375 -0.5953  0.0880 -0.2568
 1045TIP3    H127330   3.922   0.575  10.388 -0.4555 -0.4188  1.0684
 1045TIP3    H227331   4.048   0.514  10.445  0.5635 -0.7033 -1.3655
 1046TIP3   OH227332   4.915   2.318  10.908  0.1424 -0.0869 -0.1912
 1046TIP3    H127333   4.827   2.341  10.937  0.2629  0.4856 -0.2624
 1046TIP3    H227334   4.970   2.390  10.939  0.7206 -0.8312  0.5468
 1047TIP3   OH227335   5.503   1.716  12.332  0.5908 -0.4003  0.5074
 1047TIP3    H127336   5.504   1.622  12.349 -0.7575 -0.8360 -1.5026
 1047TIP3    H227337   5.499   1.723  12.236 -0.0913  1.6938  0.6421
 1048TIP3   OH227338   6.544   1.585  11.670  0.5349  0.2000 -0.3320
 1048TIP3    H127339   6.618   1.533  11.640 -0.4180 -1.0492 -0.6408
 1048TIP3    H227340   6.557   1.593  11.764  1.1938  0.2069 -0.4215
 1049TIP3   OH227341   1.933   2.172  11.419  0.1827 -0.3483 -0.7730
 1049TIP3    H127342   1.866   2.226  11.377  1.5430  2.8727  0.8746
 1049TIP3    H227343   1.977   2.128  11.347 -1.1232  0.5634 -2.1919
 1050TIP3   OH227344   6.667   2.024  11.802  0.5217 -0.5868 -0.4541
 1050TIP3    H127345   6.592   2.071  11.764  0.0180  0.4429  1.6789
 1050TIP3    H227346   6.639   2.002  11.890  2.6443 -0.3699  0.3223
 1051TIP3   OH227347   3.950   5.202  12.524 -0.1606 -0.1624  0.1793
 1051TIP3    H127348   3.974   5.289  12.491 -3.5143  0.2488 -1.6503
 1051TIP3    H227349   3.880   5.218  12.588 -0.3299 -1.4651  0.3532
 1052TIP3   OH227350   6.611   0.837  13.177 -1.0026 -0.2336 -0.5616
 1052TIP3    H127351   6.623   0.828  13.083  1.1911  0.6299 -0.4190
 1052TIP3    H227352   6.540   0.901  13.186 -0.1478  0.9113 -1.6517
 1053TIP3   OH227353   1.390   5.886  12.670 -0.2811  0.7694  0.1765
 1053TIP3    H127354   1.416   5.914  12.758  2.6533 -2.0417  0.3381
 1053TIP3    H227355   1.318   5.825  12.685  1.8407 -1.6688  0.9612
 1054TIP3   OH227356   6.347   2.767  10.481  0.2817 -0.1884  0.5710
 1054TIP3    H127357   6.395   2.761  10.399  0.6430  0.5552  0.7250
 1054TIP3    H227358   6.378   2.693  10.533 -0.7582 -1.3392 -0.3642
 1055TIP3   OH227359   0.780   1.951  10.261 -0.2407 -0.9003  0.2026
 1055TIP3    H127360   0.847   2.006  10.220 -0.5821 -0.9418 -0.4265
 1055TIP3    H227361   0.791   1.865  10.219 -1.8878 -0.4402 -1.3177
 1056TIP3   OH227362   5.288   3.932  10.634  0.5685  0.4235 -0.7194
 1056TIP3    H127363   5.225   3.988  10.588  1.6581  1.4616 -0.9957
 1056TIP3    H227364   5.303   3.859  10.573 -1.0171 -0.3256 -0.2680
 1057TIP3   OH227365   0.180   3.675  10.018 -0.1447  0.6560 -0.3027
 1057TIP3    H127366   0.198   3.586   9.987  2.2172  0.8418  0.3449
 1057TIP3    H227367   0.149   3.721   9.940  0.7609 -0.1812 -1.2033
 1058TIP3   OH227368   5.567   0.712  12.644 -1.2142  0.4245  0.4091
 1058TIP3    H127369   5.560   0.796  12.690  1.6395 -1.1366  4.3255
 1058TIP3    H227370   5.629   0.729  12.573 -0.1266  1.5680  1.5596
 1059TIP3   OH227371   1.441   6.567  12.473  0.7909 -0.4222 -0.6477
 1059TIP3    H127372   1.406   6.595  12.389  0.2998 -1.8586 -0.9311
 1059TIP3    H227373   1.442   6.472  12.470  0.9397 -0.5054  0.9044
 1060TIP3   OH227374   4.763   1.417  10.153 -0.5604 -0.3309 -0.1456
 1060TIP3    H127375   4.818   1.433  10.076 -0.1512 -1.6067 -0.1433
 1060TIP3    H227376   4.821   1.429  10.228 -0.4992 -0.8340 -0.1099
 1061TIP3   OH227377   2.493   1.234  10.598  0.2496 -0.1265 -0.2073
 1061TIP3    H127378   2.437   1.192  10.532 -2.3282  0.9128  1.2132
 1061TIP3    H227379   2.500   1.168  10.668  0.5107 -0.1113 -0.2181
 1062TIP3   OH227380   4.448   3.814  11.409  0.2382 -0.1745  0.6068
 1062TIP3    H127381   4.394   3.850  11.479 -2.8414 -1.8763 -0.6919
 1062TIP3    H227382   4.386   3.789  11.340  2.6710 -2.3791 -1.0154
 1063TIP3   OH227383   0.606   2.310  12.681  0.2285  0.5750 -0.3912
 1063TIP3    H127384   0.546   2.280  12.748  1.0439  2.6602  1.4088
 1063TIP3    H227385   0.553   2.366  12.624 -0.2252 -0.3275 -0.8766
 1064TIP3   OH227386   1.920   0.106  12.812  0.4866 -0.5739 -0.5173
 1064TIP3    H127387   1.958   0.078  12.895 -0.0521 -2.1961 -0.7819
 1064TIP3    H227388   1.826   0.106  12.827  0.3797 -0.9591 -1.1537
 1065TIP3   OH227389   1.662   3.198  11.016 -0.7852 -0.8685 -0.1580
 1065TIP3    H127390   1.670   3.283  10.973  0.9173 -1.2079 -0.6126
 1065TIP3    H227391   1.710   3.138  10.958 -0.9809 -1.9041  0.7287
 1066TIP3   OH227392   6.346   3.520  12.341 -0.1527  0.1166  0.5784
 1066TIP3    H127393   6.262   3.474  12.335 -0.8382  1.4021 -0.3364
 1066TIP3    H227394   6.322   3.609  12.366  1.2357 -0.2819  3.7903
 1067TIP3   OH227395   0.942   2.851   9.913  0.0363 -0.4443 -0.5541
 1067TIP3    H127396   0.957   2.851  10.008 -1.2800  0.3898 -0.3169
 1067TIP3    H227397   1.029   2.858   9.875  0.6822 -1.8926  0.5589
 1068TIP3   OH227398   4.722   6.842  10.786 -0.0230 -0.0693  0.0952
 1068TIP3    H127399   4.789   6.909  10.780  0.7274 -0.6994  1.0949
 1068TIP3    H227400   4.691   6.847  10.876 -0.8491 -0.2350 -0.1694
 1069TIP3   OH227401   3.096   2.710  13.099 -0.0102  0.3178  0.1250
 1069TIP3    H127402   3.027   2.708  13.034  0.6646 -4.0816 -0.7809
 1069TIP3    H227403   3.096   2.622  13.137  2.7898  1.2152  2.6575
 1070TIP3   OH227404   1.043   0.756  11.715  0.0635  0.2270  0.3923
 1070TIP3    H127405   1.137   0.770  11.719 -0.0265  0.5144  2.5834
 1070TIP3    H227406   1.020   0.714  11.798 -2.0508  2.4220  1.0553
 1071TIP3   OH227407   2.288   5.689  12.758  0.1771  0.0863 -0.1860
 1071TIP3    H127408   2.371   5.648  12.734 -0.0110 -0.5657  0.2187
 1071TIP3    H227409   2.267   5.651  12.844 -0.6029  0.1329 -0.3469
 1072TIP3   OH227410   0.868   5.540  10.447 -0.1476 -0.0703  0.2000
 1072TIP3    H127411   0.963   5.543  10.457 -0.1244 -0.4088  0.0718
 1072TIP3    H227412   0.834   5.530  10.536 -0.0814  0.4821  0.2891
 1073TIP3   OH227413   0.395   4.391  11.034  0.2468  0.4298  0.5065
 1073TIP3    H127414   0.351   4.409  10.951 -0.4931  1.9152  1.1959
 1073TIP3    H227415   0.355   4.451  11.097  3.6218  2.4091  1.0564
 1074TIP3   OH227416   2.329   6.258  12.365 -0.4151  0.2649 -0.1977
 1074TIP3    H127417   2.295   6.342  12.335  1.8557  0.9494 -0.9813
 1074TIP3    H227418   2.310   6.198  12.292 -0.5206  0.4757 -0.3476
 1075TIP3   OH227419   4.995   3.521  12.815  0.3487  0.8760 -0.1685
 1075TIP3    H127420   5.017   3.500  12.724 -1.4929 -0.1510 -0.4048
 1075TIP3    H227421   5.079   3.514  12.861  1.0536 -0.0733 -1.5114
 1076TIP3   OH227422   3.587   5.607  11.847  0.3217  0.0782 -0.4485
 1076TIP3    H127423   3.534   5.680  11.878 -0.7251 -0.5441 -0.7196
 1076TIP3    H227424   3.675   5.626  11.878 -0.0840  1.0636  0.1366
 1077TIP3   OH227425   5.428   0.449  10.545 -0.3282  0.2053 -0.7300
 1077TIP3    H127426   5.382   0.486  10.469 -1.8442 -0.8052 -0.3566
 1077TIP3    H227427   5.471   0.524  10.585 -2.7343  1.5209 -0.3831
 1078TIP3   OH227428   3.543   1.090  11.948 -0.0770 -0.2159  0.0282
 1078TIP3    H127429   3.542   1.021  11.881 -0.3517  0.7649 -1.0175
 1078TIP3    H227430   3.631   1.085  11.985  0.4734 -0.1009 -1.1818
 1079TIP3   OH227431   0.984   4.235  12.357  0.2568 -0.5301 -0.3003
 1079TIP3    H127432   0.926   4.232  12.432 -0.7024  3.7876 -0.6265
 1079TIP3    H227433   0.925   4.239  12.281  1.1704 -2.2661 -1.1622
 1080TIP3   OH227434   4.758   1.039   9.568 -0.3484 -0.4889  0.3793
 1080TIP3    H127435   4.787   1.114   9.517 -0.3720 -0.5706  0.2449
 1080TIP3    H227436   4.833   1.018   9.623 -0.0707 -0.8236 -0.1135
 1081TIP3   OH227437   5.366   4.506  12.370  0.1354 -0.3259 -0.0090
 1081TIP3    H127438   5.270   4.504  12.379  0.2416  0.3200  1.5878
 1081TIP3    H227439   5.394   4.575  12.431  1.4841  0.9343 -1.9589
 1082TIP3   OH227440   0.514   1.548  10.604  0.7143  0.2270 -0.1227
 1082TIP3    H127441   0.518   1.599  10.685  0.1926 -0.9537  0.6901
 1082TIP3    H227442   0.598   1.564  10.561  0.3119  2.2554 -0.2408
 1083TIP3   OH227443   3.666   6.833  10.372  0.2406  0.1527 -0.6081
 1083TIP3    H127444   3.606   6.760  10.354 -0.2496  0.3348  0.2678
 1083TIP3    H227445   3.727   6.799  10.438 -0.0214  0.5527 -0.1581
 1084TIP3   OH227446   5.940   6.849  11.944  0.4842 -0.1055 -0.1608
 1084TIP3    H127447   5.854   6.813  11.964  0.1845  0.3764 -0.5794
 1084TIP3    H227448   5.961   6.815  11.857  0.7576 -0.2839 -0.0298
 1085TIP3   OH227449   6.121   1.362  12.081  0.6802  0.3268 -0.0350
 1085TIP3    H127450   6.114   1.272  12.048 -3.5189  0.4856 -0.0922
 1085TIP3    H227451   6.100   1.355  12.174 -2.5858  1.3867 -0.5636
 1086TIP3   OH227452   1.338   0.601  10.572  0.1324  0.3521 -0.2127
 1086TIP3    H127453   1.245   0.604  10.548  0.0311  0.5459  0.1931
 1086TIP3    H227454   1.343   0.533  10.639  0.2904  0.2951 -0.2847
 1087TIP3   OH227455   5.520   0.643  10.020 -0.1447  0.3891  0.4394
 1087TIP3    H127456   5.487   0.693   9.945 -1.0076  0.7493  1.0399
 1087TIP3    H227457   5.602   0.606   9.989 -1.6363 -1.5489 -1.5404
 1088TIP3   OH227458   0.207   1.416  12.803 -0.1074 -0.4081 -0.4402
 1088TIP3    H127459   0.176   1.472  12.875  0.0883 -0.5161 -0.2739
 1088TIP3    H227460   0.269   1.471  12.755 -0.3127 -0.3018 -0.5862
 1089TIP3   OH227461   2.621   0.184  11.423  0.0457  0.0572  0.4341
 1089TIP3    H127462   2.699   0.174  11.478 -1.0489 -1.6617  1.7653
 1089TIP3    H227463   2.622   0.276  11.398  3.3987 -0.2101 -1.0125
 1090TIP3   OH227464   4.745   0.946  11.432  0.1978  0.1466  0.1660
 1090TIP3    H127465   4.696   0.995  11.365 -2.3255  1.3756  2.7095
 1090TIP3    H227466   4.811   1.009  11.463  0.2699  0.1604 -0.0140
 1091TIP3   OH227467   4.647   4.350  10.363 -0.0568 -0.4229 -0.1014
 1091TIP3    H127468   4.606   4.263  10.367 -0.1562 -0.3220  1.9510
 1091TIP3    H227469   4.635   4.378  10.273  0.1794 -2.6430 -0.8904
 1092TIP3   OH227470   6.627   4.788  12.867  0.1230 -0.5284 -0.4484
 1092TIP3    H127471   6.565   4.860  12.879  1.0806  0.2070  0.2619
 1092TIP3    H227472   6.691   4.822  12.805  0.4594 -0.8408 -0.2765
 1093TIP3   OH227473   6.165   1.194   9.754 -0.1831  0.2622  0.0039
 1093TIP3    H127474   6.205   1.129   9.696  0.4849  0.5844  0.0982
 1093TIP3    H227475   6.225   1.201   9.827 -0.9619 -0.0467  0.6929
 1094TIP3   OH227476   6.509   2.180  10.907  0.6543  0.0057  0.2592
 1094TIP3    H127477   6.597   2.156  10.879  0.7567  0.8018 -0.1125
 1094TIP3    H227478   6.500   2.272  10.884 -0.6868 -0.3488 -0.7760
 1095TIP3   OH227479   6.612   3.279  10.796 -0.2552  0.5956  0.7179
 1095TIP3    H127480   6.595   3.357  10.744 -1.1855 -0.7647 -1.1762
 1095TIP3    H227481   6.633   3.211  10.731 -0.4997 -0.9625  2.1850
 1096TIP3   OH227482   2.967   1.114  12.527  0.4734  0.0819  0.1662
 1096TIP3    H127483   3.030   1.098  12.456  0.0122 -0.6515 -0.0895
 1096TIP3    H227484   2.926   1.198  12.505  1.8757  0.9467  0.7285
 1097TIP3   OH227485   4.847   6.190  11.843  0.4664 -0.0827 -0.1887
 1097TIP3    H127486   4.862   6.140  11.923 -3.2956 -3.1153 -1.0543
 1097TIP3    H227487   4.849   6.124  11.773 -0.4814  1.7227 -2.0211
 1098TIP3   OH227488   0.786   4.687   9.929  0.1845  0.0539 -0.4654
 1098TIP3    H127489   0.849   4.699  10.000  0.3528 -1.4551 -0.3267
 1098TIP3    H227490   0.794   4.594   9.905  0.3738  0.5974 -2.7026
 1099TIP3   OH227491   5.149   4.979  10.818  0.5128 -0.5007  0.0009
 1099TIP3    H127492   5.113   4.901  10.776 -0.5650 -0.0468  0.0548
 1099TIP3    H227493   5.079   5.011  10.875  0.4343  1.2417 -1.0000
 1100TIP3   OH227494   1.557   2.664  11.654 -0.6264  0.0853 -0.6538
 1100TIP3    H127495   1.566   2.573  11.684 -2.3374 -0.4072 -1.5080
 1100TIP3    H227496   1.640   2.684  11.611 -0.0572 -0.9140 -0.0485
 1101TIP3   OH227497   4.505   5.067  11.022 -0.4234  0.1190 -0.1615
 1101TIP3    H127498   4.572   5.118  11.068  0.4317  0.4448 -1.7088
 1101TIP3    H227499   4.555   5.002  10.973 -1.4205 -1.2549  0.5966
 1102TIP3   OH227500   2.258   1.769  12.170 -0.2551  0.2921  0.2400
 1102TIP3    H127501   2.324   1.830  12.138 -0.1653  0.3692  0.5690
 1102TIP3    H227502   2.266   1.773  12.265  1.1066 -1.6921  0.2626
 1103TIP3   OH227503   2.845   5.810  12.440 -0.2890  0.0733 -0.6007
 1103TIP3    H127504   2.877   5.893  12.404 -2.2318  0.2480 -2.1285
 1103TIP3    H227505   2.770   5.835  12.494  0.0437 -0.5907  0.1947
 1104TIP3   OH227506   4.907   0.903  12.468 -0.4957 -0.0765  0.4410
 1104TIP3    H127507   4.869   0.927  12.553 -0.1649 -1.7957  1.1166
 1104TIP3    H227508   4.854   0.829  12.438 -0.4914  0.3989 -0.7762
 1105TIP3   OH227509   0.276   2.270  10.628 -0.1000  0.3465 -0.1199
 1105TIP3    H127510   0.189   2.310  10.614 -0.3080  0.2402  0.8286
 1105TIP3    H227511   0.328   2.302  10.554 -1.2460 -0.4965 -1.3512
 1106TIP3   OH227512   4.734   1.171  11.705  0.0516  0.4158 -0.0228
 1106TIP3    H127513   4.645   1.205  11.699 -0.2531 -0.4441 -0.5227
 1106TIP3    H227514   4.789   1.240  11.668 -0.3556  1.1149  0.6455
 1107TIP3   OH227515   1.293   0.789  12.584  0.1630 -0.0020 -0.4058
 1107TIP3    H127516   1.383   0.757  12.581 -0.1115 -0.7464 -1.8178
 1107TIP3    H227517   1.299   0.879  12.615  1.5004  0.2880 -1.4392
 1108TIP3   OH227518   0.516   6.519  10.820  0.0692 -0.3535  0.5080
 1108TIP3    H127519   0.463   6.560  10.752 -1.0287 -1.1623  0.8407
 1108TIP3    H227520   0.601   6.505  10.780  0.0531  0.9765 -0.0452
 1109TIP3   OH227521   2.864   1.390  10.981 -0.3036 -0.2866  0.4532
 1109TIP3    H127522   2.779   1.406  11.021 -0.0761  0.7219  0.5520
 1109TIP3    H227523   2.923   1.453  11.023  0.4090 -0.6904  0.0884
 1110TIP3   OH227524   0.041   5.435  11.342 -0.2625  0.8141  0.3414
 1110TIP3    H127525   0.111   5.457  11.280  1.1187 -3.6751 -0.0647
 1110TIP3    H227526   0.079   5.452  11.428 -0.3723  2.5065  0.0799
 1111TIP3   OH227527   5.356   6.830  13.250 -0.2246  0.0365 -0.0541
 1111TIP3    H127528   5.424   6.896  13.263 -1.1315  0.8135  0.9215
 1111TIP3    H227529   5.275   6.880  13.244 -1.4199 -1.0123  4.0911
 1112TIP3   OH227530   0.653   2.375   9.300  0.0332  0.0003  1.0237
 1112TIP3    H127531   0.654   2.314   9.226  2.3339  1.5902 -0.3673
 1112TIP3    H227532   0.565   2.412   9.299 -0.7043 -1.6435  0.5365
 1113TIP3   OH227533   4.425   4.827  12.817  0.4166  0.1812 -0.2067
 1113TIP3    H127534   4.395   4.909  12.777  1.0508  1.7731  2.3227
 1113TIP3    H227535   4.482   4.787  12.751 -0.6913  1.2359 -1.8898
 1114TIP3   OH227536   3.262   3.307  13.173 -0.2421 -0.2326  0.6683
 1114TIP3    H127537   3.266   3.215  13.145 -1.9376 -0.5755  1.3990
 1114TIP3    H227538   3.184   3.311  13.228  0.4862  1.4010  1.6378
 1115TIP3   OH227539   0.035   5.379  10.897  0.1919 -0.1484 -0.5831
 1115TIP3    H127540   0.067   5.466  10.875 -0.4745 -0.0025 -1.0249
 1115TIP3    H227541  -0.041   5.366  10.840  1.0324 -1.5307 -1.4335
 1116TIP3   OH227542   4.950   4.539  11.227 -0.2787  0.9169 -0.2223
 1116TIP3    H127543   5.033   4.530  11.179  0.7783  0.0724  1.6467
 1116TIP3    H227544   4.900   4.461  11.202  1.1949 -0.7578  1.6149
 1117TIP3   OH227545   3.043   2.823  11.446  0.7088  0.2165 -0.1885
 1117TIP3    H127546   2.993   2.749  11.480  2.3126 -0.3650  0.9833
 1117TIP3    H227547   2.977   2.891  11.431 -0.6309 -1.0363 -0.1657
 1118TIP3   OH227548   6.482   1.431  13.076  0.3607  0.3045  0.3912
 1118TIP3    H127549   6.562   1.386  13.050  0.8068  0.5682  1.2744
 1118TIP3    H227550   6.494   1.521  13.046  0.0706  0.1770 -0.1263
 1119TIP3   OH227551   5.318   5.156  12.301 -0.5859  0.1355  0.2099
 1119TIP3    H127552   5.381   5.102  12.349 -0.9134 -0.3328  0.1226
 1119TIP3    H227553   5.306   5.234  12.356  2.0114  1.4841 -0.9756
 1120TIP3   OH227554   3.884   0.415  11.933  0.0084 -0.5164 -0.4398
 1120TIP3    H127555   3.898   0.442  12.024 -0.4731  1.0935 -0.8074
 1120TIP3    H227556   3.789   0.408  11.925 -0.2355  2.6688 -1.6366
 1121TIP3   OH227557   1.124   1.074  12.741  0.3719  0.1471  0.1822
 1121TIP3    H127558   1.101   1.038  12.827 -0.1752  0.4340  0.1596
 1121TIP3    H227559   1.051   1.049  12.684  1.2763 -1.0645 -0.5009
 1122TIP3   OH227560   0.599   6.812  10.759 -0.3864  0.1303  0.2129
 1122TIP3    H127561   0.592   6.899  10.719 -1.7387  0.4501  1.0807
 1122TIP3    H227562   0.508   6.786  10.776  0.0346 -1.1467  0.6361
 1123TIP3   OH227563   2.359   5.149  12.016 -0.1743  0.1787  0.3759
 1123TIP3    H127564   2.287   5.099  12.056 -0.9684  0.4963 -0.6221
 1123TIP3    H227565   2.315   5.216  11.963  0.8735  1.1445  0.6948
 1124TIP3   OH227566   3.514   4.581  10.819 -0.3354 -0.5228  0.2123
 1124TIP3    H127567   3.508   4.583  10.915  0.3041 -0.4791  0.2549
 1124TIP3    H227568   3.450   4.515  10.793  1.1820 -2.3200  0.8291
 1125TIP3   OH227569   1.911   5.898  12.332  0.0722  0.7261 -0.4787
 1125TIP3    H127570   1.954   5.946  12.402 -0.7067 -0.4605  0.8713
 1125TIP3    H227571   1.839   5.954  12.303 -0.4171  0.6800  0.6120
 1126TIP3   OH227572   4.530   3.066  12.673 -0.2867  0.3483  0.0788
 1126TIP3    H127573   4.557   3.131  12.738  2.2608 -1.3107  0.8336
 1126TIP3    H227574   4.456   3.021  12.714  1.5209 -0.9346  2.1163
 1127TIP3   OH227575   0.581   5.985  11.894  0.4048 -0.5301  0.2514
 1127TIP3    H127576   0.529   6.064  11.910  3.4135  1.4096  1.5017
 1127TIP3    H227577   0.615   5.997  11.805 -2.0420 -2.3745 -1.0323
 1128TIP3   OH227578   2.587   3.915  11.311  0.1934 -0.5347 -0.1978
 1128TIP3    H127579   2.571   4.007  11.291 -0.3958 -0.8706 -1.3670
 1128TIP3    H227580   2.591   3.912  11.407  2.3273  1.0150 -0.1727
 1129TIP3   OH227581   6.208   6.672  12.995  0.0659  0.0025  0.3912
 1129TIP3    H127582   6.301   6.650  13.005 -0.4193 -2.2535  0.4216
 1129TIP3    H227583   6.198   6.754  13.043  2.0931  0.4885  0.1006
 1130TIP3   OH227584   2.162   5.404  10.518 -0.2541  0.5851 -0.1186
 1130TIP3    H127585   2.126   5.433  10.602 -1.2731 -1.7201  0.3327
 1130TIP3    H227586   2.115   5.322  10.499  1.3880 -0.0183 -1.9377
 1131TIP3   OH227587   0.899   1.608  11.882 -0.5191 -0.2574 -0.3381
 1131TIP3    H127588   0.835   1.601  11.812 -1.9920 -3.0568  1.1155
 1131TIP3    H227589   0.896   1.700  11.909 -0.7163  0.6315 -3.0883
 1132TIP3   OH227590   0.496   5.221   9.929 -0.2846 -0.0565  0.3151
 1132TIP3    H127591   0.482   5.248  10.020 -1.0284  1.4033 -0.2145
 1132TIP3    H227592   0.591   5.228   9.916 -0.3046  0.8452  0.6387
 1133TIP3   OH227593   4.817   4.199  11.653  0.0976 -0.1781 -0.3138
 1133TIP3    H127594   4.763   4.233  11.725  0.4265  0.0322 -0.1633
 1133TIP3    H227595   4.759   4.139  11.606  0.0197 -0.6822  0.4066
 1134TIP3   OH227596   2.248   3.524  11.008  0.6693 -0.7977  0.8178
 1134TIP3    H127597   2.343   3.525  11.004  0.6474 -0.0633  0.5155
 1134TIP3    H227598   2.228   3.467  11.082  1.3357 -1.1492  0.7304
 1135TIP3   OH227599   4.843   1.420  11.401  0.2076  0.1853 -0.2320
 1135TIP3    H127600   4.843   1.500  11.454 -1.4676 -1.3850  2.3458
 1135TIP3    H227601   4.936   1.399  11.390  0.6971  2.3794 -0.9679
 1136TIP3   OH227602   1.270   3.483  11.628  0.2079 -0.3236 -0.1304
 1136TIP3    H127603   1.292   3.572  11.602 -2.3984  0.6556  0.7282
 1136TIP3    H227604   1.325   3.466  11.705 -0.5747  1.3086  0.8490
 1137TIP3   OH227605   2.530   5.623  10.651 -0.0848  0.3435  0.6899
 1137TIP3    H127606   2.517   5.614  10.557 -0.0460 -0.9781  0.7887
 1137TIP3    H227607   2.582   5.546  10.676  0.0198  0.7430  1.7631
 1138TIP3   OH227608   0.119   6.789  10.975 -0.2512 -0.2549 -0.2523
 1138TIP3    H127609   0.198   6.830  11.009 -0.9650  2.2050 -1.3019
 1138TIP3    H227610   0.147   6.741  10.897  0.3122  0.0182 -0.2207
 1139TIP3   OH227611   3.349   2.249  12.597  0.6660 -0.0572  0.2317
 1139TIP3    H127612   3.279   2.211  12.544 -0.5653  1.7586  0.4673
 1139TIP3    H227613   3.428   2.239  12.543 -0.3609  0.7870 -1.5292
 1140TIP3   OH227614   2.850   5.685  12.757  0.2076 -0.3883  0.2415
 1140TIP3    H127615   2.762   5.708  12.789 -0.2975  0.1400 -1.4158
 1140TIP3    H227616   2.846   5.591  12.740 -0.0733 -0.3562  0.1198
 1141TIP3   OH227617   6.057   6.673  11.445  0.2312 -0.5323 -0.2499
 1141TIP3    H127618   6.113   6.608  11.489  2.3333 -0.2845 -2.3658
 1141TIP3    H227619   6.117   6.726  11.394 -1.7218  1.4971 -0.6027
 1142TIP3   OH227620   4.446   4.416  11.354  0.0607 -0.3183  0.0295
 1142TIP3    H127621   4.413   4.504  11.332  0.6999  0.0107  0.3587
 1142TIP3    H227622   4.477   4.424  11.444 -1.0500 -1.2310  0.5055
 1143TIP3   OH227623   6.526   4.516  12.579  0.1129 -0.2600 -0.0422
 1143TIP3    H127624   6.609   4.469  12.590  0.1849  0.3640  3.3456
 1143TIP3    H227625   6.550   4.608  12.578 -0.4849 -0.0937  0.2508
 1144TIP3   OH227626   6.078   4.804  11.340  0.1594 -0.7287 -0.4404
 1144TIP3    H127627   5.999   4.763  11.305 -0.8613  0.1670  0.6961
 1144TIP3    H227628   6.126   4.732  11.381 -1.3122 -0.9632  1.0173
 1145TIP3   OH227629   1.032   4.843  12.959 -0.3602  0.2653 -0.5844
 1145TIP3    H127630   1.096   4.829  13.029  1.4346 -0.5620 -2.2886
 1145TIP3    H227631   1.043   4.936  12.936 -0.4356  0.3547 -0.2691
 1146TIP3   OH227632   1.492   6.660  11.636  0.1403 -0.1034 -0.5392
 1146TIP3    H127633   1.534   6.603  11.700 -0.1407  0.7162  0.3946
 1146TIP3    H227634   1.406   6.622  11.622  1.1541 -1.8754 -2.5683
 1147TIP3   OH227635   5.037   3.519  11.346 -0.0472  0.9362 -0.0091
 1147TIP3    H127636   4.997   3.435  11.365  1.1514  0.4698  0.5699
 1147TIP3    H227637   5.080   3.544  11.428  1.7053  0.8919 -0.8802
 1148TIP3   OH227638   1.540   3.113  11.946 -0.1325 -0.5363  0.0510
 1148TIP3    H127639   1.595   3.057  11.999  0.1536  1.0082  1.4404
 1148TIP3    H227640   1.568   3.096  11.856  0.9308 -1.5413  0.5527
 1149TIP3   OH227641   1.426   6.315  12.356 -0.2438  0.1876  0.2494
 1149TIP3    H127642   1.445   6.264  12.277 -0.3158  0.7189 -0.1110
 1149TIP3    H227643   1.377   6.255  12.412 -0.3464 -0.1318 -0.1801
 1150TIP3   OH227644   5.222   4.136  10.831 -0.0519  0.3202  0.1089
 1150TIP3    H127645   5.269   4.085  10.765  0.8189  0.9769  0.2053
 1150TIP3    H227646   5.246   4.094  10.914 -0.6471 -0.1175  0.0655
 1151TIP3   OH227647   0.448   3.181  10.629 -0.2405  0.4550  0.0503
 1151TIP3    H127648   0.438   3.215  10.541  2.5526  1.1363 -0.1104
 1151TIP3    H227649   0.492   3.096  10.617  0.7407  0.8416  0.7636
 1152TIP3   OH227650   1.695   5.331  12.814  0.5777 -0.2406 -0.0736
 1152TIP3    H127651   1.693   5.293  12.902 -0.4304 -1.5326 -0.6192
 1152TIP3    H227652   1.689   5.425  12.829 -0.0020 -0.4550  1.2289
 1153TIP3   OH227653   4.426   5.288  12.523  0.3221  0.4835  0.0007
 1153TIP3    H127654   4.517   5.271  12.548  0.4038  0.5672 -0.2324
 1153TIP3    H227655   4.431   5.308  12.430 -0.0078 -0.0907 -0.1455
 1154TIP3   OH227656   0.512   6.373  12.381  0.4067 -0.2096  0.4790
 1154TIP3    H127657   0.532   6.284  12.410 -1.1329  0.2122  3.0878
 1154TIP3    H227658   0.582   6.427  12.418  0.9091 -0.2187 -0.4403
 1155TIP3   OH227659   0.414   2.756  11.785 -0.1258 -0.3941 -0.0160
 1155TIP3    H127660   0.427   2.826  11.721 -0.8884  1.0171  1.3012
 1155TIP3    H227661   0.428   2.675  11.735 -0.0985  0.6510 -1.8084
 1156TIP3   OH227662   4.691   2.796  10.650  0.1458  0.5888  0.1272
 1156TIP3    H127663   4.716   2.778  10.740 -1.0329 -1.8085  0.0741
 1156TIP3    H227664   4.773   2.821  10.607  1.1743 -0.5160  1.3555
 1157TIP3   OH227665   0.193   1.336  11.500  0.0677  0.4949 -0.0944
 1157TIP3    H127666   0.203   1.428  11.522 -0.3508  0.6538 -0.5558
 1157TIP3    H227667   0.130   1.335  11.428  1.9831  0.0728 -1.8779
 1158TIP3   OH227668   3.056   1.910  12.794 -0.8341 -0.7263  0.2826
 1158TIP3    H127669   3.023   1.956  12.717  0.6086  1.1315  0.7014
 1158TIP3    H227670   3.110   1.839  12.758 -0.2799  0.0421 -0.4207
 1159TIP3   OH227671   0.336   5.957  12.203  0.5152 -0.4326 -0.0090
 1159TIP3    H127672   0.390   5.901  12.148  1.0332 -0.0714  0.1187
 1159TIP3    H227673   0.262   5.902  12.229  1.5841 -1.4390  1.0595
 1160TIP3   OH227674   2.999   1.328  12.999  0.5204  0.0920  0.1492
 1160TIP3    H127675   3.009   1.248  13.050 -2.4091 -0.1582  0.5344
 1160TIP3    H227676   2.944   1.302  12.925  2.4605  1.0409 -1.7131
 1161TIP3   OH227677   6.187   3.604  10.256  0.1192 -0.0387 -0.9580
 1161TIP3    H127678   6.103   3.650  10.261 -0.5396 -1.2903  0.1152
 1161TIP3    H227679   6.193   3.575  10.165 -1.2682 -1.0589 -0.7608
 1162TIP3   OH227680   4.142   2.535  10.508 -0.1594  0.7092  0.1957
 1162TIP3    H127681   4.108   2.452  10.541  0.3941  1.2588  2.2711
 1162TIP3    H227682   4.066   2.579  10.471 -0.2078 -1.3075 -2.4173
 1163TIP3   OH227683   4.055   5.747  11.953  0.3065 -0.4184  0.6772
 1163TIP3    H127684   4.129   5.744  11.892  0.1023  0.5457  0.3756
 1163TIP3    H227685   4.057   5.662  11.997  0.5725 -1.0625 -0.5389
 1164TIP3   OH227686   3.732   1.587  12.618  0.0075  0.1774 -0.0578
 1164TIP3    H127687   3.744   1.681  12.632  0.3997  0.2070 -0.5625
 1164TIP3    H227688   3.739   1.549  12.706  0.5317  0.5508  0.0722
 1165TIP3   OH227689   4.895   1.954  11.069  0.3229 -0.1508  0.2358
 1165TIP3    H127690   4.915   2.010  11.144 -0.8028  0.7050 -0.0848
 1165TIP3    H227691   4.930   2.001  10.993 -0.0033 -0.2246  0.0394
 1166TIP3   OH227692   3.804   2.373  11.999  0.6049 -0.3252 -0.7757
 1166TIP3    H127693   3.829   2.286  11.968  2.4421 -0.6878  1.4609
 1166TIP3    H227694   3.880   2.428  11.978 -0.2677  0.6257 -1.5576
 1167TIP3   OH227695   2.592   0.950  10.784  0.0264 -0.3077  0.0430
 1167TIP3    H127696   2.576   0.905  10.867 -2.2053 -0.6333 -0.5113
 1167TIP3    H227697   2.622   1.037  10.809 -0.4668 -0.4551  1.1927
 1168TIP3   OH227698   3.349   6.696  10.973 -0.5384  0.3138  0.3389
 1168TIP3    H127699   3.286   6.687  11.045  0.3308 -1.4745  0.9266
 1168TIP3    H227700   3.306   6.656  10.898 -0.2523 -0.5983  0.6534
 1169TIP3   OH227701   5.404   3.039  13.159 -0.4194  0.0763  0.1362
 1169TIP3    H127702   5.436   3.101  13.093 -1.5825 -0.2216 -0.7496
 1169TIP3    H227703   5.314   3.020  13.132 -0.6009 -0.8013  1.2814
 1170TIP3   OH227704   2.748   6.446  11.756 -0.5953  0.0540  0.4391
 1170TIP3    H127705   2.822   6.462  11.815  0.9057 -0.9987 -1.0581
 1170TIP3    H227706   2.729   6.532  11.718  1.5409 -0.0277 -0.9846
 1171TIP3   OH227707   1.367   6.700  12.213 -0.1138 -0.2127  0.5400
 1171TIP3    H127708   1.293   6.760  12.208 -1.1457 -1.4697  0.1344
 1171TIP3    H227709   1.444   6.757  12.210 -1.0502  1.1307  1.0745
 1172TIP3   OH227710   6.298   0.276  12.941 -0.0116 -0.2848  0.2304
 1172TIP3    H127711   6.361   0.331  12.988 -1.1180  0.2109  1.1540
 1172TIP3    H227712   6.253   0.336  12.882  0.0873 -0.5666 -0.1370
 1173TIP3   OH227713   6.054   1.953  11.095 -0.4454 -0.1632  0.4632
 1173TIP3    H127714   6.136   1.955  11.046  1.0909  0.8800  2.8552
 1173TIP3    H227715   6.081   1.942  11.186 -3.1217 -2.2411  1.1603
 1174TIP3   OH227716   2.365   4.714  12.330  0.4261  0.0683 -0.2114
 1174TIP3    H127717   2.314   4.659  12.390  0.9698 -0.6648 -0.4070
 1174TIP3    H227718   2.441   4.742  12.381 -0.0532  0.9836  0.0124
 1175TIP3   OH227719   3.574   2.540  10.185 -0.5085 -0.5921  0.2147
 1175TIP3    H127720   3.485   2.505  10.177  0.2761 -2.9231  0.8491
 1175TIP3    H227721   3.627   2.483  10.130  0.5453  1.1426 -0.6548
 1176TIP3   OH227722   4.841   3.633  10.601 -0.1206 -0.5212  0.1049
 1176TIP3    H127723   4.893   3.713  10.589  1.6818 -1.3765  1.6577
 1176TIP3    H227724   4.817   3.607  10.512  1.2782  0.4912 -0.6226
 1177TIP3   OH227725   5.341   5.580  13.026  0.2580  0.3296 -0.4157
 1177TIP3    H127726   5.367   5.626  13.106  1.3465 -0.1018 -0.5126
 1177TIP3    H227727   5.287   5.644  12.979 -0.6821  0.4775  0.7967
 1178TIP3   OH227728   3.436   2.962  12.140  0.5089  0.4057  0.0958
 1178TIP3    H127729   3.382   2.951  12.062  1.8712  1.6177 -1.0759
 1178TIP3    H227730   3.459   2.873  12.166 -0.7051 -0.0489 -0.3109
 1179TIP3   OH227731   0.380   0.066  11.456  0.3676  0.1971  0.6568
 1179TIP3    H127732   0.427   0.130  11.403  0.4602  0.9562  1.6354
 1179TIP3    H227733   0.446   0.001  11.480  0.5794  0.4473  0.7538
 1180TIP3   OH227734   0.177   1.148  13.173 -0.1842 -0.5753 -0.6992
 1180TIP3    H127735   0.098   1.103  13.202 -0.0912 -0.2264  0.1045
 1180TIP3    H227736   0.249   1.092  13.201 -0.0512  0.1883  0.5906
 1181TIP3   OH227737   2.423   6.712  12.256 -0.3870  0.4036 -0.0675
 1181TIP3    H127738   2.381   6.692  12.340 -0.9966  1.6590 -0.0513
 1181TIP3    H227739   2.489   6.777  12.277  0.5599 -0.4496 -0.3374
 1182TIP3   OH227740   3.318   4.646  11.292  0.1800  0.3290  0.0435
 1182TIP3    H127741   3.306   4.562  11.337 -2.5429 -0.2672 -1.5707
 1182TIP3    H227742   3.401   4.636  11.245  0.2328 -1.2085  0.4094
 1183TIP3   OH227743   4.264   6.286  12.078  0.5583 -0.0331  0.5940
 1183TIP3    H127744   4.321   6.280  12.002  0.1286  2.6302 -0.0406
 1183TIP3    H227745   4.197   6.219  12.064 -2.4077  3.2639 -4.0659
 1184TIP3   OH227746   0.719   1.358  13.219 -0.0335 -0.1977  0.4577
 1184TIP3    H127747   0.654   1.375  13.287  0.8618 -1.8180  1.8036
 1184TIP3    H227748   0.673   1.374  13.137 -1.7471 -0.0977  1.3907
 1185TIP3   OH227749   3.547   2.871  11.357  0.2014  0.3013 -0.1853
 1185TIP3    H127750   3.563   2.785  11.319 -0.8083 -0.2726  0.6452
 1185TIP3    H227751   3.454   2.887  11.342  0.5926  1.7323 -1.2654
 1186TIP3   OH227752   0.458   5.184  12.313 -0.3579 -0.9950 -0.3023
 1186TIP3    H127753   0.429   5.108  12.261 -0.0258 -1.5331  0.2891
 1186TIP3    H227754   0.477   5.251  12.247 -2.1389 -0.8823 -0.7691
 1187TIP3   OH227755   6.372   2.843  12.806  0.2928  0.2911 -0.0997
 1187TIP3    H127756   6.419   2.869  12.885  0.0814 -0.1787  0.1882
 1187TIP3    H227757   6.317   2.919  12.785  0.7648  0.6333 -0.1258
 1188TIP3   OH227758   3.488   5.997  11.348 -0.0492 -0.1451  0.5050
 1188TIP3    H127759   3.446   6.070  11.392 -0.8758  0.2496 -0.8622
 1188TIP3    H227760   3.503   5.932  11.417 -1.5848  0.3074  1.2996
 1189TIP3   OH227761   6.506   3.492  10.244  0.0906  0.1101  0.0813
 1189TIP3    H127762   6.456   3.535  10.313 -1.3246 -1.1893 -0.0912
 1189TIP3    H227763   6.596   3.523  10.257 -0.4750  1.2991  1.3606
 1190TIP3   OH227764   4.952   3.255  11.324 -0.4484  0.4883  0.2423
 1190TIP3    H127765   4.895   3.219  11.392 -0.5603  1.1510  0.5103
 1190TIP3    H227766   4.927   3.210  11.244  1.8873 -2.7872  1.1285
 1191TIP3   OH227767   5.995   5.639  11.551 -0.3044  0.1611  0.4665
 1191TIP3    H127768   5.942   5.562  11.531  0.1506  0.5134 -2.7058
 1191TIP3    H227769   5.963   5.706  11.490  1.1091  1.6401  1.2715
 1192TIP3   OH227770   2.595   5.253  11.080  0.4708 -0.3430  0.5045
 1192TIP3    H127771   2.598   5.175  11.025  0.6899 -0.0297  0.0598
 1192TIP3    H227772   2.529   5.309  11.039  1.7110  0.5528 -0.3718
 1193TIP3   OH227773   2.179   5.300  13.050  0.0202  0.4771  0.2107
 1193TIP3    H127774   2.217   5.214  13.033 -0.0418  0.7503 -1.4819
 1193TIP3    H227775   2.088   5.282  13.072  0.4460  0.0091  1.7931
 1194TIP3   OH227776   0.142   3.857  12.404  0.4096 -0.1646 -0.1803
 1194TIP3    H127777   0.170   3.841  12.494  0.8031  2.1081  0.1561
 1194TIP3    H227778   0.213   3.908  12.366 -1.2110  1.8125 -0.7060
 1195TIP3   OH227779   3.095   0.405  11.158  0.8310 -0.5001  1.3483
 1195TIP3    H127780   3.001   0.422  11.159  1.1089  1.2272  1.2914
 1195TIP3    H227781   3.111   0.351  11.236 -0.3013 -1.4967  0.9107
 1196TIP3   OH227782   3.271   3.157  12.267  0.6147  0.5505  0.5934
 1196TIP3    H127783   3.273   3.252  12.271 -0.5248  0.5452  2.3884
 1196TIP3    H227784   3.351   3.133  12.219  0.8335  2.3873 -0.0266
 1197TIP3   OH227785   5.532   3.176  10.644 -0.3579 -0.0510  0.0582
 1197TIP3    H127786   5.598   3.227  10.596  0.7269  1.1508  2.6397
 1197TIP3    H227787   5.577   3.095  10.668 -0.1615  0.2694  0.8157
 1198TIP3   OH227788   0.525   1.546  12.760  0.1655 -0.6103  0.4771
 1198TIP3    H127789   0.593   1.593  12.711  0.6868 -1.1335  0.6989
 1198TIP3    H227790   0.515   1.463  12.713 -0.6801 -0.3362  0.1498
 1199TIP3   OH227791   1.560   3.610  11.976  0.0958  0.2677  0.4271
 1199TIP3    H127792   1.641   3.649  11.944  1.1032 -0.9394  1.4594
 1199TIP3    H227793   1.547   3.533  11.921  0.5379 -0.4517  1.3097
 1200TIP3   OH227794   2.057   6.212  10.742  0.1329 -0.3990  0.4360
 1200TIP3    H127795   2.119   6.221  10.815 -0.5732  0.9876  0.9027
 1200TIP3    H227796   2.013   6.297  10.738 -1.3976 -1.1876 -0.2058
 1201TIP3   OH227797   1.068   5.550  12.406  0.0529 -0.1396 -0.0383
 1201TIP3    H127798   0.997   5.486  12.409  0.7636 -1.0788 -1.7448
 1201TIP3    H227799   1.080   5.568  12.313  3.4902 -1.7403 -0.0861
 1202TIP3   OH227800   1.751   3.944  10.005  0.5278 -0.0417 -0.2174
 1202TIP3    H127801   1.684   3.924   9.940  0.1893 -1.5652  0.5438
 1202TIP3    H227802   1.801   3.863  10.013  1.2751  0.4772  0.5972
 1203TIP3   OH227803   6.799   1.863  12.028 -0.1258  0.5247 -0.0430
 1203TIP3    H127804   6.704   1.866  12.040 -0.0647  1.4588  0.2253
 1203TIP3    H227805   6.828   1.793  12.087 -0.4146  1.6585  1.5061
 1204TIP3   OH227806   1.353   3.344  12.257 -1.2090  0.9112  0.3078
 1204TIP3    H127807   1.304   3.298  12.189 -1.5507  1.9836 -0.1975
 1204TIP3    H227808   1.332   3.437  12.243  0.3356  1.3301  0.5776
 1205TIP3   OH227809   4.528   2.563  12.704  0.0078 -1.0729  0.2246
 1205TIP3    H127810   4.588   2.609  12.644 -0.5749  0.1093  0.5188
 1205TIP3    H227811   4.584   2.499  12.748  1.2566  0.4436  0.9868
 1206TIP3   OH227812   0.812   2.745  12.308 -0.2127  0.2027 -0.2451
 1206TIP3    H127813   0.797   2.772  12.399  1.3180  1.6454 -0.3512
 1206TIP3    H227814   0.886   2.684  12.314 -0.5654 -0.2417 -0.4570
 1207TIP3   OH227815   2.113   3.761  10.412  0.2486  0.6326  0.0247
 1207TIP3    H127816   2.042   3.750  10.476 -0.7069 -0.5972 -1.1919
 1207TIP3    H227817   2.189   3.721  10.453 -0.2525  0.2041  0.5472
 1208TIP3   OH227818   2.006   1.086   9.958  0.1655 -0.3051 -0.3621
 1208TIP3    H127819   1.939   1.026   9.928  1.2012 -1.6619 -0.0426
 1208TIP3    H227820   2.011   1.154   9.890 -1.7433  0.0324 -0.2112
 1209TIP3   OH227821   2.330   1.160  11.483  0.3848  0.3956  0.0738
 1209TIP3    H127822   2.320   1.204  11.567  1.9269  0.9231  0.0182
 1209TIP3    H227823   2.361   1.229  11.423 -2.1426  0.4133 -1.3595
 1210TIP3   OH227824   1.140   1.894   9.976  0.1245  0.6898  0.2627
 1210TIP3    H127825   1.116   1.868   9.887  0.5937  0.9275  0.0606
 1210TIP3    H227826   1.170   1.814  10.018  1.8543  0.9175 -0.4500
 1211TIP3   OH227827   6.729   2.483  11.997 -0.0791 -0.2389  0.3736
 1211TIP3    H127828   6.777   2.418  12.048 -1.0604  0.6426  2.5211
 1211TIP3    H227829   6.742   2.565  12.044  1.4934  1.3196 -2.5084
 1212TIP3   OH227830   0.782   5.811  10.855  0.2161 -0.0163 -0.1280
 1212TIP3    H127831   0.776   5.868  10.932 -0.1300  0.4740 -0.5096
 1212TIP3    H227832   0.748   5.727  10.885  1.4415 -0.2507  0.6517
 1213TIP3   OH227833   5.238   1.296  12.460 -0.0216  0.7458 -0.1851
 1213TIP3    H127834   5.185   1.290  12.380 -0.7538  1.6064  0.2221
 1213TIP3    H227835   5.255   1.390  12.470  0.9016  0.5537  0.1407
 1214TIP3   OH227836   0.678   4.197  12.219  0.5597 -0.0962 -0.3121
 1214TIP3    H127837   0.668   4.261  12.289  4.1775 -0.7243  1.0160
 1214TIP3    H227838   0.747   4.234  12.164 -0.6302 -0.7064 -2.3148
 1215TIP3   OH227839   2.593   4.950  12.818 -0.4798 -0.5237  0.2702
 1215TIP3    H127840   2.584   4.955  12.913  0.0491 -0.5379  0.3210
 1215TIP3    H227841   2.683   4.921  12.803 -0.2241  0.4940 -0.2592
 1216TIP3   OH227842   2.066   6.493  12.913 -0.0324 -0.0246 -0.0217
 1216TIP3    H127843   1.991   6.498  12.972  0.2736  1.2895  0.2919
 1216TIP3    H227844   2.030   6.513  12.826 -0.4929 -2.0149 -0.3364
 1217TIP3   OH227845   4.524   6.748  12.205  0.8913  0.0043 -0.1154
 1217TIP3    H127846   4.451   6.685  12.205 -1.1542  2.1427 -2.1541
 1217TIP3    H227847   4.600   6.697  12.178  0.2124 -2.3067  1.9434
 1218TIP3   OH227848   1.687   5.068  11.062  0.0249 -0.5335 -0.4733
 1218TIP3    H127849   1.735   5.145  11.093  0.1379 -0.9360  0.3716
 1218TIP3    H227850   1.678   5.012  11.139 -0.7458 -1.0165 -0.8984
 1219TIP3   OH227851   1.267   6.074  10.151  0.0098 -0.4403 -0.1618
 1219TIP3    H127852   1.312   6.006  10.102 -1.5911  0.1644 -2.6665
 1219TIP3    H227853   1.267   6.150  10.092 -2.5442  0.1410  0.4726
 1220TIP3   OH227854   1.223   1.281  13.253 -0.2240  0.3572  0.1279
 1220TIP3    H127855   1.245   1.373  13.240  1.1947  0.0231 -0.0335
 1220TIP3    H227856   1.248   1.239  13.171  0.1170 -0.3323  0.5783
 1221TIP3   OH227857   3.175   0.212  12.415 -0.4461 -0.3558  0.2840
 1221TIP3    H127858   3.207   0.127  12.384 -1.0294 -1.3454  2.2677
 1221TIP3    H227859   3.081   0.200  12.426 -0.5552  0.5913  0.4517
 1222TIP3   OH227860   4.349   1.947  11.959  0.4857 -0.0927  0.5317
 1222TIP3    H127861   4.329   1.981  12.046 -0.9378 -1.7443  0.8965
 1222TIP3    H227862   4.372   1.855  11.973  0.9224 -0.2090 -0.7681
 1223TIP3   OH227863   2.743   2.520  11.325  0.6230  0.2307  0.1635
 1223TIP3    H127864   2.798   2.558  11.393 -1.3252  0.9637  1.4357
 1223TIP3    H227865   2.663   2.574  11.327 -1.3218 -2.4564  0.4241
 1224TIP3   OH227866   2.860   3.813  11.622 -0.3431 -0.0334  0.0465
 1224TIP3    H127867   2.931   3.870  11.595 -0.1169 -0.6624 -0.7183
 1224TIP3    H227868   2.878   3.794  11.714 -0.2607  0.8715  0.2221
 1225TIP3   OH227869   0.545   6.183  11.048 -0.7024  0.3187 -0.0474
 1225TIP3    H127870   0.452   6.194  11.064 -0.4547  1.6724  0.6735
 1225TIP3    H227871   0.587   6.247  11.106  0.7060 -0.7057  0.1229
 1226TIP3   OH227872   3.009   1.394  10.761  0.1077  0.3916 -0.0988
 1226TIP3    H127873   3.021   1.489  10.760  1.3681  0.2518 -0.5753
 1226TIP3    H227874   2.930   1.380  10.813 -1.3542  1.8216 -1.7934
 1227TIP3   OH227875   6.821   2.682  12.463 -0.0055 -0.0784  0.3179
 1227TIP3    H127876   6.854   2.675  12.374 -0.4457  0.6969  0.0780
 1227TIP3    H227877   6.728   2.704  12.452 -0.0305  0.1542  0.9623
 1228TIP3   OH227878   4.357   6.573  12.942  0.4609  0.4445  0.2313
 1228TIP3    H127879   4.420   6.503  12.925 -0.9314 -1.0297  0.8584
 1228TIP3    H227880   4.362   6.629  12.864  1.6934 -0.2755 -0.2362
 1229TIP3   OH227881   6.372   0.732  10.064  0.8003  0.5188 -0.1225
 1229TIP3    H127882   6.307   0.712  10.131  1.0049 -1.6730 -0.5001
 1229TIP3    H227883   6.397   0.822  10.081  0.8832  0.0393  2.7882
 1230TIP3   OH227884   5.028   4.142  12.540 -0.2206  0.1688 -0.2732
 1230TIP3    H127885   4.965   4.094  12.486 -0.6373 -0.5296  0.8026
 1230TIP3    H227886   4.983   4.156  12.624  0.3386  1.4006 -0.1424
 1231TIP3   OH227887   6.471   3.891  10.493  0.0264 -0.6000 -0.1153
 1231TIP3    H127888   6.556   3.922  10.463  1.1829 -0.2118  3.1749
 1231TIP3    H227889   6.470   3.798  10.471  2.2002 -1.0532  1.4358
 1232TIP3   OH227890   6.381   5.320  12.833  0.3371 -0.3348 -0.1011
 1232TIP3    H127891   6.305   5.318  12.890  0.1309  3.0927 -0.0485
 1232TIP3    H227892   6.347   5.349  12.748  1.2700 -1.2134 -0.8149
 1233TIP3   OH227893   6.415   0.493  12.052 -0.2517  0.3217 -0.7079
 1233TIP3    H127894   6.373   0.459  11.973 -1.0274 -0.0222 -0.1614
 1233TIP3    H227895   6.419   0.588  12.037  0.1394  0.2049 -1.4021
 1234TIP3   OH227896   0.490   6.617  11.890  0.0859  0.5195  0.5508
 1234TIP3    H127897   0.475   6.616  11.984  0.9488 -0.2374  0.6921
 1234TIP3    H227898   0.437   6.690  11.858 -1.3322 -0.1040  1.4137
 1235TIP3   OH227899   5.217   3.003  11.598  0.0072  0.1186  0.3777
 1235TIP3    H127900   5.194   3.091  11.629 -0.5886 -0.1594  0.7520
 1235TIP3    H227901   5.267   2.965  11.671 -0.0337  0.0250  0.3568
 1236TIP3   OH227902   5.905   5.579  11.815 -0.1002 -0.1030 -0.3879
 1236TIP3    H127903   5.870   5.495  11.843  3.3573 -1.5434  0.0036
 1236TIP3    H227904   5.914   5.571  11.720  1.9781 -1.0035 -0.1658
 1237TIP3   OH227905   0.085   1.628  12.125 -0.5183 -0.3529 -0.1706
 1237TIP3    H127906   0.092   1.574  12.204 -0.3980  0.1303  0.1512
 1237TIP3    H227907   0.091   1.565  12.053  0.5102 -0.6741  0.1843
 1238TIP3   OH227908   3.522   5.588  12.289 -0.2798  0.3027 -0.2616
 1238TIP3    H127909   3.554   5.529  12.358 -0.0280  2.1984  1.3240
 1238TIP3    H227910   3.468   5.532  12.233  1.9162 -1.9621 -0.2906
 1239TIP3   OH227911   3.352   2.698  11.689 -0.4765 -0.7825 -0.3646
 1239TIP3    H127912   3.376   2.776  11.640 -1.4795 -1.1613 -1.5175
 1239TIP3    H227913   3.433   2.647  11.694 -0.0271 -0.0863 -0.3750
 1240TIP3   OH227914   0.286   4.969  12.255  0.0988 -0.5949  0.5567
 1240TIP3    H127915   0.211   4.987  12.199  0.9586  0.1177 -0.4179
 1240TIP3    H227916   0.257   4.989  12.343 -0.6836  0.2048  0.1244
 1241TIP3   OH227917   5.341   5.090  10.073 -0.4907  0.6330  0.3230
 1241TIP3    H127918   5.436   5.098  10.085 -0.3285  2.5841 -1.7270
 1241TIP3    H227919   5.305   5.113  10.159  0.8412 -2.7158  1.9682
 1242TIP3   OH227920   6.631   4.221  10.257 -0.3517  0.5490  0.4201
 1242TIP3    H127921   6.710   4.173  10.280 -0.3523  0.6690  0.6705
 1242TIP3    H227922   6.621   4.286  10.326 -0.4619  0.7789  0.1896
 1243TIP3   OH227923   0.136   3.120  11.417 -0.0236  0.1414 -0.5331
 1243TIP3    H127924   0.091   3.192  11.462 -1.3123 -1.2114  0.4230
 1243TIP3    H227925   0.138   3.147  11.325 -1.5744  0.8554 -0.3792
 1244TIP3   OH227926   3.021   2.148  12.951 -0.2054  0.3583 -0.1470
 1244TIP3    H127927   3.055   2.063  12.923 -1.2025 -0.5148  1.1743
 1244TIP3    H227928   2.942   2.160  12.899  0.4805  0.9942 -1.0784
 1245TIP3   OH227929   5.755   6.640  12.809 -0.1103 -0.4434  0.0099
 1245TIP3    H127930   5.732   6.670  12.897 -0.1836  1.1867 -0.5366
 1245TIP3    H227931   5.706   6.559  12.798  0.4345 -1.0639  1.7125
 1246TIP3   OH227932   0.167   6.418  11.010  0.5617 -0.4717  0.2740
 1246TIP3    H127933   0.260   6.433  11.025  1.0404 -1.7188 -1.1245
 1246TIP3    H227934   0.135   6.381  11.092  1.2930 -0.0620  0.7568
 1247TIP3   OH227935   1.013   3.904  13.205 -0.5278  0.4373  0.3298
 1247TIP3    H127936   0.931   3.950  13.219 -0.3488  1.1286 -0.7104
 1247TIP3    H227937   1.066   3.965  13.152  0.2009 -0.4560 -0.0067
 1248TIP3   OH227938   0.652   2.115  11.974 -0.1518  0.3362  0.2084
 1248TIP3    H127939   0.563   2.080  11.966  0.4330 -1.3065  0.6208
 1248TIP3    H227940   0.678   2.134  11.884 -0.6364  0.0700  0.0079
 1249TIP3   OH227941   5.323   0.071  12.636  0.0904 -0.7259 -0.1598
 1249TIP3    H127942   5.248   0.023  12.601  0.8821  0.2573 -3.5330
 1249TIP3    H227943   5.286   0.154  12.666 -0.2178 -0.1426 -2.0340
 1250TIP3   OH227944   2.757   0.550  10.679  0.0612  0.2045  0.0200
 1250TIP3    H127945   2.816   0.582  10.748  0.2865 -1.2499  0.5410
 1250TIP3    H227946   2.672   0.586  10.702  0.3369  0.5853  0.4676
 1251TIP3   OH227947   4.812   5.333  11.039 -0.9628 -0.1422  0.4538
 1251TIP3    H127948   4.775   5.421  11.027 -0.2193  0.0109 -0.9582
 1251TIP3    H227949   4.897   5.348  11.080 -0.6024 -0.1313 -0.2664
 1252TIP3   OH227950   1.612   4.910  13.152  0.0568 -1.0686  0.2551
 1252TIP3    H127951   1.626   4.975  13.220  0.6400 -1.2595  0.3280
 1252TIP3    H227952   1.676   4.932  13.084 -0.5709 -0.8367 -0.2631
 1253TIP3   OH227953   6.227   0.262  12.076 -0.5080  0.0344  0.1432
 1253TIP3    H127954   6.282   0.187  12.098  0.5752 -0.8358 -4.5393
 1253TIP3    H227955   6.286   0.338  12.080 -0.2696 -0.1411 -0.0462
 1254TIP3   OH227956   0.895   2.474  11.956  0.3760 -0.3382  0.3881
 1254TIP3    H127957   0.947   2.529  11.897 -0.3453  0.8717  0.8507
 1254TIP3    H227958   0.857   2.408  11.899  0.5269  0.1901 -0.3416
 1255TIP3   OH227959   5.956   2.889  11.916 -0.2727 -0.5840  0.2830
 1255TIP3    H127960   5.900   2.812  11.909 -1.9671  0.7035 -1.0048
 1255TIP3    H227961   6.045   2.855  11.903 -1.1096 -2.1123 -2.0497
 1256TIP3   OH227962   3.354   1.673  10.798  0.7282 -0.5370  0.1767
 1256TIP3    H127963   3.266   1.634  10.797  0.4497  0.0565  0.7488
 1256TIP3    H227964   3.355   1.728  10.876  1.5961 -0.4951  0.1439
 1257TIP3   OH227965   5.794   1.872  12.093  0.3811  0.2757  0.1709
 1257TIP3    H127966   5.829   1.893  12.006 -2.1433  1.8998 -0.5411
 1257TIP3    H227967   5.709   1.832  12.076 -0.1984  0.6843  1.9270
 1258TIP3   OH227968   1.768   4.380  10.892 -0.4327 -0.4642  0.5702
 1258TIP3    H127969   1.751   4.429  10.972 -1.1285  0.6177 -0.2275
 1258TIP3    H227970   1.715   4.300  10.901 -1.4584  0.2169  0.6587
 1259TIP3   OH227971   2.351   6.348  11.268  0.3678 -0.2389  0.3178
 1259TIP3    H127972   2.399   6.350  11.185  1.3071 -0.6590  0.8300
 1259TIP3    H227973   2.407   6.396  11.329 -0.2926  0.0290  0.7181
 1260TIP3   OH227974   3.487   5.122  10.779 -0.7689  0.2607  0.2831
 1260TIP3    H127975   3.422   5.180  10.818 -2.0841  0.3413 -1.8532
 1260TIP3    H227976   3.524   5.173  10.707 -0.0664 -0.6516 -0.0169
 1261TIP3   OH227977   2.909   3.826  12.318  0.1346 -1.1006  0.1589
 1261TIP3    H127978   2.835   3.780  12.359  1.0115 -0.3831  2.7467
 1261TIP3    H227979   2.931   3.896  12.379  1.7478 -0.0782 -1.4775
 1262TIP3   OH227980   1.156   5.359  11.415  0.2504 -0.1027 -0.7620
 1262TIP3    H127981   1.067   5.381  11.444  0.2176  2.5653 -2.5707
 1262TIP3    H227982   1.179   5.283  11.468 -2.6070 -0.1234  0.6947
 1263TIP3   OH227983   3.923   6.269  12.857 -0.4039  0.5070 -0.1971
 1263TIP3    H127984   3.927   6.304  12.768 -0.0846 -1.5383 -1.0297
 1263TIP3    H227985   4.013   6.277  12.889  0.0128 -0.8430 -0.9430
 1264TIP3   OH227986   0.764   5.416  12.047 -0.0799 -0.2064 -0.0249
 1264TIP3    H127987   0.768   5.343  11.984  0.1578 -0.4315  0.2470
 1264TIP3    H227988   0.794   5.492  11.998  0.9413 -0.5461  0.0496
 1265TIP3   OH227989   5.304   5.436  10.599 -0.5157 -0.2113  0.8541
 1265TIP3    H127990   5.288   5.355  10.647 -1.6950 -0.7365 -0.3478
 1265TIP3    H227991   5.243   5.432  10.525 -0.1821  1.5046  0.4480
 1266TIP3   OH227992   6.851   2.194  10.660 -0.4632  0.3908  0.0784
 1266TIP3    H127993   6.835   2.195  10.754 -0.1407 -2.0720  0.2194
 1266TIP3    H227994   6.899   2.113  10.644 -0.0184  1.0082 -2.1573
 1267TIP3   OH227995   6.005   4.912  10.754 -0.2757  0.3289  0.7991
 1267TIP3    H127996   6.084   4.942  10.798  0.1172 -0.2599  0.5147
 1267TIP3    H227997   5.936   4.969  10.787 -0.3219 -1.1120  3.4849
 1268TIP3   OH227998   2.836   4.011  12.495  0.4459 -0.0562  0.0148
 1268TIP3    H127999   2.770   3.995  12.562  1.1066  0.1359  0.7381
 1268TIP3    H228000   2.863   4.102  12.509  0.0144  0.2402 -1.0451
 1269TIP3   OH228001   5.851   2.800  10.015  0.6059  0.1017  0.5983
 1269TIP3    H128002   5.929   2.789  10.069 -0.3499 -1.7580  1.7324
 1269TIP3    H228003   5.838   2.714   9.975 -0.8145  0.3924  0.3900
 1270TIP3   OH228004   4.031   1.873  11.510 -0.7843  0.6325  0.2589
 1270TIP3    H128005   4.025   1.783  11.541  0.8359  1.1794  2.3379
 1270TIP3    H228006   4.009   1.868  11.417  2.8931 -2.5480 -0.6836
 1271TIP3   OH228007   1.509   4.184  10.436 -0.2328  0.3269 -0.5354
 1271TIP3    H128008   1.481   4.094  10.451  0.2925 -0.1082 -1.9078
 1271TIP3    H228009   1.603   4.184  10.456  0.0104  0.2621 -1.5676
 1272TIP3   OH228010   0.411   4.774  11.961 -0.3801  0.1368 -0.5174
 1272TIP3    H128011   0.352   4.762  11.886 -0.4422  1.2460 -0.6630
 1272TIP3    H228012   0.418   4.686  12.000 -0.4375 -0.4362 -1.7452
 1273TIP3   OH228013   2.883   4.542  11.297 -0.3427  0.3673  0.5176
 1273TIP3    H128014   2.890   4.609  11.229  1.1856  0.6584  0.9122
 1273TIP3    H228015   2.947   4.569  11.363  0.6001 -1.6840  0.5146
 1274TIP3   OH228016   2.125   1.166  11.152 -0.2590 -0.3231 -0.1798
 1274TIP3    H128017   2.051   1.220  11.180  0.2875 -0.4583  1.6401
 1274TIP3    H228018   2.096   1.076  11.168 -0.4514 -0.4993 -1.4137
 1275TIP3   OH228019   0.675   5.580  11.650 -0.3801 -0.6075 -0.2546
 1275TIP3    H128020   0.612   5.647  11.678 -0.8730 -1.3296  0.4321
 1275TIP3    H228021   0.719   5.618  11.574 -1.2180  0.1627 -0.3759
 1276TIP3   OH228022   6.066   0.542  12.013 -0.0768 -0.2583  0.5954
 1276TIP3    H128023   5.975   0.567  11.997  0.3818  1.4358  0.4540
 1276TIP3    H228024   6.070   0.449  11.991 -1.1778  0.2089 -1.9300
 1277TIP3   OH228025   3.917   6.855  11.556  0.1338  0.8208  0.1798
 1277TIP3    H128026   3.905   6.854  11.462 -0.5431  0.1633  0.2612
 1277TIP3    H228027   3.873   6.935  11.586 -1.8807 -0.2216  0.1859
 1278TIP3   OH228028   3.289   1.095  12.514 -0.0700 -0.2857 -0.7406
 1278TIP3    H128029   3.263   1.007  12.541 -1.7221  1.0461  2.6153
 1278TIP3    H228030   3.255   1.104  12.425 -0.5783 -2.7083 -0.8695
 1279TIP3   OH228031   6.348   1.231  11.088  0.0664  0.5309  0.0553
 1279TIP3    H128032   6.403   1.153  11.080  1.6629  1.3471  2.0907
 1279TIP3    H228033   6.268   1.209  11.040  1.1537 -1.6724 -0.8873
 1280TIP3   OH228034   0.852   0.534  10.325  0.0751  0.7808  0.1213
 1280TIP3    H128035   0.796   0.605  10.354 -0.7299  0.1410  0.1747
 1280TIP3    H228036   0.871   0.553  10.233 -0.1176  1.0708  0.1410
 1281TIP3   OH228037   4.256   5.959  12.207  0.7553  0.2303  0.1258
 1281TIP3    H128038   4.291   5.872  12.190  0.6059  0.6646 -2.8369
 1281TIP3    H228039   4.195   5.975  12.135  1.3175  3.0604  0.1766
 1282TIP3   OH228040   2.843   1.719  10.901  0.0829  0.2657 -0.1617
 1282TIP3    H128041   2.788   1.662  10.846 -0.1647  1.2733 -0.9843
 1282TIP3    H228042   2.792   1.731  10.981  0.4269 -1.1830  0.3097
 1283TIP3   OH228043   3.684   5.915  11.166  0.4338 -1.0346 -0.3143
 1283TIP3    H128044   3.623   5.958  11.226  0.9098 -0.3045 -0.3262
 1283TIP3    H228045   3.726   5.847  11.218  0.3626 -0.8438 -0.0069
 1284TIP3   OH228046   5.217   4.478  11.147  0.0553  0.0231  0.6178
 1284TIP3    H128047   5.249   4.537  11.078 -1.2997 -0.9110 -0.8623
 1284TIP3    H228048   5.283   4.485  11.215  0.3824  2.6045  0.1589
 1285TIP3   OH228049   4.728   5.822  10.450  0.0558  0.3086  0.3697
 1285TIP3    H128050   4.691   5.911  10.447  0.9412  0.6728 -2.9334
 1285TIP3    H228051   4.663   5.767  10.406 -0.7589 -0.9239  2.8979
 1286TIP3   OH228052   3.677   6.356  12.493  0.0015 -0.3044 -0.7731
 1286TIP3    H128053   3.649   6.339  12.583  1.5101  0.7438 -0.0665
 1286TIP3    H228054   3.595   6.367  12.444 -0.8339  0.0401  0.6573
 1287TIP3   OH228055   0.406   4.121  12.773 -0.2109  0.0607  0.2574
 1287TIP3    H128056   0.423   4.215  12.761  0.2286 -0.1067 -0.5118
 1287TIP3    H228057   0.316   4.109  12.744  0.4144 -0.1075 -1.7901
 1288TIP3   OH228058   1.174   4.731  12.004 -0.8139  0.4508 -0.8086
 1288TIP3    H128059   1.217   4.808  11.966  1.4363 -0.1826  0.2841
 1288TIP3    H228060   1.203   4.731  12.095 -1.7489 -1.0325 -0.4829
 1289TIP3   OH228061   1.387   0.026  11.971 -0.2479  0.0572 -0.1471
 1289TIP3    H128062   1.466   0.073  11.946 -0.5425  0.8016  0.2962
 1289TIP3    H228063   1.318   0.093  11.970 -0.5718 -0.2314  1.0313
 1290TIP3   OH228064   1.618   3.949  13.230 -0.1746 -0.2897  0.3429
 1290TIP3    H128065   1.667   3.874  13.265 -1.7274 -1.5777 -0.1185
 1290TIP3    H228066   1.540   3.910  13.192 -1.6066  1.6864  1.1249
 1291TIP3   OH228067   0.380   3.562  12.095 -0.4675  0.4535  0.0269
 1291TIP3    H128068   0.414   3.533  12.010 -1.0297  1.6117 -0.6066
 1291TIP3    H228069   0.458   3.587  12.144 -0.2082  0.6470 -0.4779
 1292TIP3   OH228070   6.404   1.462   9.602 -0.3120  0.4559  0.4941
 1292TIP3    H128071   6.463   1.441   9.674 -2.3893  1.0949  2.4765
 1292TIP3    H228072   6.401   1.383   9.549  0.8378 -0.2118  1.3971
 1293TIP3   OH228073   5.203   0.231  11.905  0.4855 -0.3881 -0.1258
 1293TIP3    H128074   5.211   0.326  11.895  2.2236 -0.4366  0.5539
 1293TIP3    H228075   5.209   0.197  11.815  1.8979  0.0283 -0.2068
 1294TIP3   OH228076   6.717   6.785  11.616  0.0002 -0.1302  0.0452
 1294TIP3    H128077   6.668   6.786  11.534 -0.7510  0.6987  0.4852
 1294TIP3    H228078   6.660   6.740  11.678  1.1881 -2.1190 -0.2268
 1295TIP3   OH228079   0.165   4.452  12.339  0.3382 -0.1799 -0.6164
 1295TIP3    H128080   0.077   4.442  12.302 -1.6703  1.9873  2.9243
 1295TIP3    H228081   0.183   4.366  12.378 -0.5421 -0.4613 -0.7938
 1296TIP3   OH228082   0.650   1.266  10.964 -0.3755 -0.2993  0.0043
 1296TIP3    H128083   0.647   1.361  10.949  0.7893  0.0934  1.9114
 1296TIP3    H228084   0.696   1.257  11.047 -0.4713 -2.5639 -0.1439
 1297TIP3   OH228085   4.194   0.429   9.721  0.1384  0.3071  0.3228
 1297TIP3    H128086   4.284   0.462   9.729  0.5041 -0.4738 -0.4410
 1297TIP3    H228087   4.140   0.496   9.764  0.8514  1.9290 -1.1720
 1298TIP3   OH228088   1.417   4.673  12.365 -0.1366 -0.0536 -0.2412
 1298TIP3    H128089   1.492   4.614  12.353 -0.3302 -0.4570  0.4710
 1298TIP3    H228090   1.398   4.669  12.459 -0.7740  0.3869 -0.3433
 1299TIP3   OH228091   2.254   2.390   9.983 -0.3553 -0.0403 -0.1705
 1299TIP3    H128092   2.166   2.412   9.952  0.3845  2.4062 -0.8230
 1299TIP3    H228093   2.312   2.436   9.923  1.3943 -1.5098  0.3127
 1300TIP3   OH228094   3.196   1.633  11.490  0.2226  0.1944  0.2500
 1300TIP3    H128095   3.116   1.593  11.524 -1.0441  2.8377  0.6535
 1300TIP3    H228096   3.220   1.699  11.555  2.0784  0.2767 -0.4419
 1301TIP3   OH228097   4.587   6.664  10.340 -0.1456  0.2174 -0.1802
 1301TIP3    H128098   4.647   6.699  10.274 -0.3107  1.0340  0.0842
 1301TIP3    H228099   4.634   6.675  10.423  0.1084 -0.9084 -0.1577
 1302TIP3   OH228100   1.363   4.233  12.255 -0.0044  0.1364 -0.2071
 1302TIP3    H128101   1.294   4.300  12.251 -1.3116 -1.0963  0.5288
 1302TIP3    H228102   1.381   4.224  12.349  0.4389 -0.2658 -0.3322
 1303TIP3   OH228103   4.537   2.172  10.745  0.2599  0.0876  0.5042
 1303TIP3    H128104   4.614   2.117  10.729  0.0090  0.0375 -0.5541
 1303TIP3    H228105   4.568   2.238  10.808  0.6354 -1.0741  1.5822
 1304TIP3   OH228106   5.196   5.049  12.545 -0.2117 -0.5805  0.5689
 1304TIP3    H128107   5.288   5.025  12.552  0.0606  0.4514  0.6868
 1304TIP3    H228108   5.188   5.131  12.593 -1.4886 -1.3517  1.7443
 1305TIP3   OH228109   6.731   0.375  10.601 -0.5940  0.2888  0.5221
 1305TIP3    H128110   6.771   0.320  10.669  0.3195  0.2738 -0.0235
 1305TIP3    H228111   6.724   0.317  10.525 -0.0598  0.7866  0.0882
 1306TIP3   OH228112   1.978   4.855  10.601 -0.1092 -0.8434  0.2535
 1306TIP3    H128113   2.051   4.796  10.580  0.2644 -0.1119 -0.5701
 1306TIP3    H228114   1.905   4.821  10.549  0.1946 -0.3990 -0.4793
 1307TIP3   OH228115   6.423   0.107  12.166 -0.3622 -0.2964 -0.2818
 1307TIP3    H128116   6.460   0.019  12.168  1.8472  0.5699 -0.2807
 1307TIP3    H228117   6.408   0.129  12.258 -0.7796 -0.6024 -0.2738
 1308TIP3   OH228118   2.566   4.385  12.286  0.5262 -0.0521  0.1079
 1308TIP3    H128119   2.574   4.470  12.242 -1.7089  0.4621  0.5708
 1308TIP3    H228120   2.645   4.337  12.261  3.0431  2.9412  1.6382
 1309TIP3   OH228121   5.535   2.748  12.107 -0.3974 -0.0816 -0.0448
 1309TIP3    H128122   5.508   2.663  12.072  1.1025 -0.1352 -1.1498
 1309TIP3    H228123   5.520   2.809  12.035 -2.4241  0.8311  1.0611
 1310TIP3   OH228124   3.139   2.398  12.842  0.8358 -0.7121  0.2018
 1310TIP3    H128125   3.084   2.366  12.914  0.9354  0.8522  1.0106
 1310TIP3    H228126   3.228   2.378  12.870  0.9963  1.3408  1.3350
 1311TIP3   OH228127   5.162   6.066  13.045 -0.1544 -0.4038 -0.0575
 1311TIP3    H128128   5.244   6.020  13.061  0.8778  1.4416  0.3333
 1311TIP3    H228129   5.093   6.003  13.066  1.1722 -1.3072  1.8050
 1312TIP3   OH228130   2.731   4.409  10.539  0.5037 -0.3222  0.0281
 1312TIP3    H128131   2.640   4.438  10.546 -0.1956 -1.7078 -2.3842
 1312TIP3    H228132   2.782   4.490  10.549 -1.1116  0.9001 -1.0555
 1313TIP3   OH228133   5.196   3.549  10.829  0.1306  0.2569  0.3754
 1313TIP3    H128134   5.120   3.514  10.782  0.3843 -0.4958  0.5136
 1313TIP3    H228135   5.159   3.594  10.904 -0.2316  0.7440 -0.0835
 1314TIP3   OH228136   4.969   3.433  10.720 -0.1924 -0.0142 -0.4373
 1314TIP3    H128137   4.917   3.357  10.692  0.3933 -1.1575  1.4667
 1314TIP3    H228138   4.924   3.508  10.680 -2.3244 -1.1158 -0.2310
 1315TIP3   OH228139   0.862   0.689   9.520  0.2001 -0.0391 -0.0590
 1315TIP3    H128140   0.849   0.708   9.428 -0.6830  0.9624  0.2516
 1315TIP3    H228141   0.941   0.635   9.523  0.2042 -0.1334 -1.3921
 1316TIP3   OH228142   0.903   0.589  10.051 -0.4900  0.0366  0.3568
 1316TIP3    H128143   0.884   0.566   9.960  0.5049  2.4071 -0.5303
 1316TIP3    H228144   0.999   0.589  10.056 -0.5321 -0.3300  1.4936
 1317TIP3   OH228145   6.723   6.239  13.063 -0.3555  0.5775  0.5719
 1317TIP3    H128146   6.751   6.148  13.053 -0.6654  0.6581 -1.5549
 1317TIP3    H228147   6.798   6.290  13.031 -1.5498  0.8966 -1.9565
 1318TIP3   OH228148   0.867   1.267  11.457 -0.2237 -0.1414  0.0663
 1318TIP3    H128149   0.817   1.285  11.536  1.5014  0.9901  0.9587
 1318TIP3    H228150   0.945   1.220  11.488 -0.8448 -2.2476 -1.3268
 1319TIP3   OH228151   6.742   0.557  11.636 -0.1015 -0.0047 -0.8783
 1319TIP3    H128152   6.808   0.557  11.706 -1.1812 -1.5741  0.2159
 1319TIP3    H228153   6.775   0.492  11.573  0.1024  0.2557 -1.0384
 1320TIP3   OH228154   3.099   0.356  12.028 -0.0223  0.4397 -0.0789
 1320TIP3    H128155   3.183   0.394  12.053  0.1672 -0.4827  0.7610
 1320TIP3    H228156   3.107   0.339  11.935  0.6816  0.4816 -0.0334
 1321TIP3   OH228157   1.429   4.179  11.197 -0.2960 -0.6339 -0.0126
 1321TIP3    H128158   1.478   4.253  11.161  0.1393 -1.2026 -0.6072
 1321TIP3    H228159   1.346   4.180  11.150 -0.7999  0.2141  0.8592
 1322TIP3   OH228160   1.144   3.183  12.765  0.3815  0.1364 -0.4689
 1322TIP3    H128161   1.220   3.165  12.820 -0.1705 -1.0054 -0.0557
 1322TIP3    H228162   1.114   3.097  12.736  0.0720  0.6606 -1.7635
 1323TIP3   OH228163   6.150   5.095  11.711 -0.7489  0.7093  0.1054
 1323TIP3    H128164   6.103   5.015  11.732  2.5167 -1.9196 -1.5507
 1323TIP3    H228165   6.120   5.119  11.623 -0.8100  0.5314  0.0790
 1324TIP3   OH228166   0.658   6.475   9.660  0.1276  0.2105  0.6295
 1324TIP3    H128167   0.732   6.415   9.664 -1.1135 -1.3915  0.7953
 1324TIP3    H228168   0.607   6.456   9.739 -0.8075  0.7714  0.1901
 1325TIP3   OH228169   3.869   4.216  10.014  0.0035 -0.1418 -0.3045
 1325TIP3    H128170   3.937   4.231   9.948 -2.1796  1.2387 -2.4013
 1325TIP3    H228171   3.878   4.289  10.075  0.3179  0.0943 -0.6279
 1326TIP3   OH228172   0.172   2.364  13.034 -0.2238 -0.8479  0.1991
 1326TIP3    H128173   0.193   2.320  12.952  0.7119 -2.2199  1.1472
 1326TIP3    H228174   0.080   2.343  13.049 -0.8257  0.5451 -1.1298
 1327TIP3   OH228175   3.509   1.611  11.654  0.6402  0.1189  0.4034
 1327TIP3    H128176   3.432   1.631  11.707  1.4090 -2.7049  2.8688
 1327TIP3    H228177   3.583   1.626  11.714  1.8856  0.5754 -1.1765
 1328TIP3   OH228178   4.963   6.780  12.292 -0.3201 -0.0728 -0.8489
 1328TIP3    H128179   4.988   6.834  12.218  2.0217  1.4979  0.9234
 1328TIP3    H228180   4.899   6.832  12.340  0.4422  0.2999 -0.2060
 1329TIP3   OH228181   0.888   2.821  10.791 -0.1874 -0.0583 -0.1544
 1329TIP3    H128182   0.955   2.856  10.733  0.9851 -0.4280  0.9261
 1329TIP3    H228183   0.806   2.827  10.741  0.4725  1.3724 -1.1182
 1330TIP3   OH228184   5.405   6.648  11.631 -0.0482 -0.4107  0.4283
 1330TIP3    H128185   5.363   6.572  11.672  0.7079 -1.7474 -1.1255
 1330TIP3    H228186   5.497   6.639  11.654  0.1075 -0.2089 -0.0885
 1331TIP3   OH228187   1.775   2.255   9.458  0.1398 -0.0360 -0.1195
 1331TIP3    H128188   1.811   2.193   9.395  0.3577 -1.3009  1.2013
 1331TIP3    H228189   1.836   2.328   9.458 -0.2913  0.3796 -1.9388
 1332TIP3   OH228190   5.990   5.241  12.782  0.3506  0.1015  0.3982
 1332TIP3    H128191   5.922   5.291  12.737 -0.5712  0.5413  2.1816
 1332TIP3    H228192   6.020   5.299  12.852  0.4819 -1.1725  1.4365
 1333TIP3   OH228193   1.157   4.128  11.112 -0.1852 -0.0878  0.2934
 1333TIP3    H128194   1.104   4.059  11.152 -0.0593 -0.3812 -0.0445
 1333TIP3    H228195   1.103   4.207  11.120 -0.2878 -0.2036  0.7667
 1334TIP3   OH228196   6.067   4.136  10.716  0.4389 -0.6930 -0.6885
 1334TIP3    H128197   6.144   4.099  10.760 -0.1392 -1.1297 -0.0233
 1334TIP3    H228198   5.993   4.096  10.761 -0.2340  1.6901  0.4385
 1335TIP3   OH228199   3.825   1.186  11.755  0.1738 -0.1214 -0.6885
 1335TIP3    H128200   3.811   1.280  11.766  0.7934 -0.2243  1.2025
 1335TIP3    H228201   3.831   1.151  11.843 -2.1063 -2.3091 -1.2803
 1336TIP3   OH228202   3.738   3.439   9.944  0.1479  0.6377 -0.2736
 1336TIP3    H128203   3.826   3.475   9.937 -0.0309  1.0517 -0.4281
 1336TIP3    H228204   3.680   3.514   9.929 -0.2602  0.8414  2.0830
 1337TIP3   OH228205   3.245   0.467  12.324  0.1839 -0.1572  0.5468
 1337TIP3    H128206   3.329   0.435  12.292  0.4287  0.5892  0.4234
 1337TIP3    H228207   3.205   0.391  12.366 -0.0431 -1.1150 -1.3031
 1338TIP3   OH228208   3.702   6.379  10.466  0.2537  0.1034 -1.0946
 1338TIP3    H128209   3.791   6.406  10.488 -0.0618  0.7152 -0.5212
 1338TIP3    H228210   3.702   6.284  10.477  0.4777  0.2379  0.2715
 1339TIP3   OH228211   3.133   2.042  11.097  0.0262 -0.3546 -0.0153
 1339TIP3    H128212   3.038   2.055  11.091 -0.2645 -2.0945  0.2590
 1339TIP3    H228213   3.170   2.115  11.047 -1.3522  1.6782  1.7068
 1340TIP3   OH228214   1.185   1.087   9.210 -0.6413  0.3262 -0.1453
 1340TIP3    H128215   1.196   1.163   9.153  0.1317 -1.1664 -2.1259
 1340TIP3    H228216   1.228   1.016   9.163 -1.6789 -1.4428  1.4282
 1341TIP3   OH228217   0.512   0.992  11.735 -0.0659 -1.2132  0.4208
 1341TIP3    H128218   0.527   1.035  11.820 -0.7323 -1.4422  0.6639
 1341TIP3    H228219   0.495   1.065  11.675  2.0867 -0.9304  0.0874
 1342TIP3   OH228220   3.120   5.512  10.758  0.3582  0.1154  0.5784
 1342TIP3    H128221   3.158   5.435  10.715 -0.5600 -0.6296  1.0795
 1342TIP3    H228222   3.129   5.582  10.693  1.7138 -0.2557  0.3236
 1343TIP3   OH228223   1.884   2.635  10.541  0.3802  0.8606 -0.0458
 1343TIP3    H128224   1.851   2.546  10.528  0.1210  0.9123  0.2494
 1343TIP3    H228225   1.961   2.640  10.484  0.9287  0.1501  0.6156
 1344TIP3   OH228226   0.263   5.441  10.479  0.1186  0.0113  0.2175
 1344TIP3    H128227   0.273   5.417  10.387  0.9578  0.7081  0.1151
 1344TIP3    H228228   0.195   5.509  10.479 -2.2543 -2.2344  0.5073
 1345TIP3   OH228229   1.288   2.968  12.409  0.1659  0.2492  0.0311
 1345TIP3    H128230   1.296   2.895  12.470  0.8329  0.9501  0.8106
 1345TIP3    H228231   1.217   3.021  12.444  0.9936  1.0142  0.6259
 1346TIP3   OH228232   5.157   3.263  11.663  0.0483  0.2002  0.0077
 1346TIP3    H128233   5.086   3.327  11.653 -0.3859  0.1897  2.5415
 1346TIP3    H228234   5.215   3.302  11.728  1.8069 -0.3386 -1.1553
 1347TIP3   OH228235   6.013   4.218  10.467 -0.1796 -0.2335 -0.2182
 1347TIP3    H128236   6.073   4.200  10.395 -0.1019 -0.5427 -0.0784
 1347TIP3    H228237   6.056   4.182  10.545 -1.2168 -1.8822 -0.3473
 1348TIP3   OH228238   4.140   5.738  10.924  0.3423  0.2442  0.5544
 1348TIP3    H128239   4.090   5.707  10.849 -0.0329  0.0971  0.8595
 1348TIP3    H228240   4.074   5.773  10.983  0.7772  2.1771 -0.0279
 1349TIP3   OH228241   3.665   0.457  10.181 -0.2377 -0.4702  0.4873
 1349TIP3    H128242   3.716   0.506  10.116 -2.4052  0.9115 -0.2767
 1349TIP3    H228243   3.663   0.368  10.147 -0.6635  0.0614 -0.9460
 1350TIP3   OH228244   1.564   1.521  10.395  0.1310  0.0489 -0.3961
 1350TIP3    H128245   1.618   1.467  10.451  0.3321 -0.5535 -1.1592
 1350TIP3    H228246   1.514   1.459  10.342 -0.0778  0.6001 -0.8567
 1351TIP3   OH228247   0.121   4.802   9.873 -0.4036  0.5281  0.1382
 1351TIP3    H128248   0.073   4.860   9.815 -0.9601  0.1384  0.2038
 1351TIP3    H228249   0.212   4.831   9.867 -0.8126  2.0454  0.9323
 1352TIP3   OH228250   0.440   0.816  10.895 -0.2121  0.5746  0.0924
 1352TIP3    H128251   0.455   0.906  10.867  1.0094  0.0617 -0.9979
 1352TIP3    H228252   0.391   0.776  10.823  1.6582 -0.3529 -0.7223
 1353TIP3   OH228253   3.670   4.933  10.729 -0.0323 -0.6971  0.2613
 1353TIP3    H128254   3.585   4.974  10.711  0.4187 -0.6781 -2.2143
 1353TIP3    H228255   3.655   4.840  10.711  0.3677 -0.7535  0.2151
 1354TIP3   OH228256   0.496   2.513  10.005 -0.1161  0.0492 -0.2341
 1354TIP3    H128257   0.407   2.539   9.979 -0.7884 -1.0815  0.8055
 1354TIP3    H228258   0.525   2.453   9.937 -1.1175 -1.4283  0.5891
 1355TIP3   OH228259   1.511   5.402  11.309  0.0886 -0.6415 -0.2815
 1355TIP3    H128260   1.456   5.387  11.233  2.2565 -0.8424 -1.8980
 1355TIP3    H228261   1.518   5.317  11.351 -1.8686 -0.3420  0.7369
 1356TIP3   OH228262   0.604   3.159  12.298 -0.3070  0.5922 -0.1558
 1356TIP3    H128263   0.655   3.175  12.378 -0.0714  0.8060 -0.3461
 1356TIP3    H228264   0.658   3.099  12.247 -0.5591  0.2792 -0.0584
 1357TIP3   OH228265   1.658   4.742  11.856  0.2416  0.5655  0.1040
 1357TIP3    H128266   1.612   4.680  11.912  1.4717  0.4630  1.0469
 1357TIP3    H228267   1.683   4.691  11.779  1.0430 -0.0726  0.7667
 1358TIP3   OH228268   2.435   6.805  10.316 -0.2979 -0.2908 -0.1619
 1358TIP3    H128269   2.467   6.803  10.226 -0.0606 -1.2326 -0.0635
 1358TIP3    H228270   2.341   6.789  10.309 -0.2732 -0.4007 -0.2468
 1359TIP3   OH228271   5.556   0.018  12.514  0.3351  0.2565 -0.7857
 1359TIP3    H128272   5.535  -0.074  12.531 -1.3988  0.6278 -0.6600
 1359TIP3    H228273   5.476   0.065  12.538  1.2064  1.8134 -0.7907
 1360TIP3   OH228274   6.074   5.740  12.636  0.3433  0.2523 -0.5152
 1360TIP3    H128275   6.119   5.807  12.584  0.6623  0.8403  0.4880
 1360TIP3    H228276   6.145   5.688  12.673  0.1111 -0.3079 -0.8607
 1361TIP3   OH228277   6.021   4.593  10.890  0.2653 -0.6130  0.0684
 1361TIP3    H128278   5.985   4.673  10.852  2.3868 -0.5201 -1.9081
 1361TIP3    H228279   5.950   4.529  10.882 -0.2631  0.1223 -1.6482
 1362TIP3   OH228280   4.647   6.831  12.688  0.5487  0.0469  0.4294
 1362TIP3    H128281   4.660   6.752  12.739 -1.9099  0.5873  2.0749
 1362TIP3    H228282   4.582   6.806  12.622 -0.2444  0.6608  0.9616
 1363TIP3   OH228283   6.795   5.715  12.683  0.2247 -0.5469 -0.3476
 1363TIP3    H128284   6.750   5.645  12.636 -0.5583 -1.1706  1.2361
 1363TIP3    H228285   6.879   5.676  12.709  0.0325 -0.7155  0.0322
 1364TIP3   OH228286   5.676   3.714  12.319  0.0841 -0.1333 -0.4531
 1364TIP3    H128287   5.638   3.724  12.232 -0.1677  0.2695 -0.3012
 1364TIP3    H228288   5.600   3.706  12.377  0.1775  1.7468 -0.0121
 1365TIP3   OH228289   6.166   1.151  10.092  0.0061  0.0661 -0.3593
 1365TIP3    H128290   6.250   1.171  10.051  0.2314 -2.2501 -1.1204
 1365TIP3    H228291   6.187   1.089  10.162 -1.0898 -0.7635 -0.7466
 1366TIP3   OH228292   0.484   5.244  10.199 -0.2531  0.3656 -0.2243
 1366TIP3    H128293   0.420   5.313  10.217 -0.2927  0.0623  0.8444
 1366TIP3    H228294   0.547   5.251  10.271  1.5360  1.3606 -1.7926
 1367TIP3   OH228295   2.180   0.224  10.506 -0.3791  0.6631  0.2164
 1367TIP3    H128296   2.141   0.311  10.517 -2.2917 -0.3959  2.4639
 1367TIP3    H228297   2.142   0.171  10.575  0.6311 -2.0556 -1.1692
 1368TIP3   OH228298   1.633   5.969  12.542 -0.1059  0.1986  0.3998
 1368TIP3    H128299   1.562   5.925  12.589  0.2313 -0.2288  0.5184
 1368TIP3    H228300   1.656   5.910  12.470 -0.3282  0.6522 -0.0471
 1369TIP3   OH228301   3.939   5.742  12.416  0.7074 -0.4055 -0.1526
 1369TIP3    H128302   3.989   5.824  12.416 -1.4982  1.0469  1.4057
 1369TIP3    H228303   3.911   5.731  12.325  1.8479 -0.0074 -0.5754
 1370TIP3   OH228304   3.219   5.425  11.112  0.1767 -0.0469  0.4805
 1370TIP3    H128305   3.308   5.390  11.102  0.6505  1.5329 -1.3834
 1370TIP3    H228306   3.225   5.484  11.186  1.2038  1.4103 -0.6974
 1371TIP3   OH228307   2.029   2.912  13.326  0.6001  0.0974  0.5660
 1371TIP3    H128308   2.046   2.950  13.412  0.0887  0.3505  0.5560
 1371TIP3    H228309   2.057   2.980  13.264  0.8718 -0.0440  0.5334
 1372TIP3   OH228310   0.584   6.173  10.785  0.1507  0.4582  0.5248
 1372TIP3    H128311   0.497   6.184  10.746  0.0004 -1.9071  0.0454
 1372TIP3    H228312   0.567   6.165  10.879 -0.4260 -1.7349  0.2983
 1373TIP3   OH228313   6.381   1.772  11.564 -0.3472  0.1002 -0.1919
 1373TIP3    H128314   6.440   1.704  11.597 -2.2259 -1.6917 -0.3475
 1373TIP3    H228315   6.420   1.797  11.480  0.2831 -0.9584 -0.2455
 1374TIP3   OH228316   3.284   6.211   9.467  0.0378  0.3124 -0.1178
 1374TIP3    H128317   3.285   6.306   9.474  1.1283  0.3388 -0.4433
 1374TIP3    H228318   3.192   6.188   9.454 -0.2299  1.3169 -0.0305
 1375TIP3   OH228319   6.816   4.383  10.766 -0.0287 -0.0386  0.0285
 1375TIP3    H128320   6.734   4.357  10.807  0.3824 -1.4668  0.0033
 1375TIP3    H228321   6.808   4.478  10.754 -1.0298  0.0840  1.4221
 1376TIP3   OH228322   1.210   2.697  10.250  0.1133 -0.3744  0.5620
 1376TIP3    H128323   1.267   2.663  10.180 -1.5782  1.1168 -1.6846
 1376TIP3    H228324   1.269   2.748  10.306  1.0447  1.6827 -2.0626
 1377TIP3   OH228325   3.102   1.118  12.301 -0.5935  0.4817 -0.0552
 1377TIP3    H128326   3.133   1.062  12.230 -1.1545  0.7596 -0.5218
 1377TIP3    H228327   3.107   1.207  12.266 -0.1391  0.6929  0.5241
 1378TIP3   OH228328   3.669   1.822  11.768  0.0472 -0.3888  0.1422
 1378TIP3    H128329   3.578   1.846  11.750 -0.1057 -2.0677 -1.6714
 1378TIP3    H228330   3.713   1.905  11.786 -1.5813  0.5993 -0.2690
 1379TIP3   OH228331   5.433   4.842  11.206 -0.2053  0.4421  0.1899
 1379TIP3    H128332   5.433   4.754  11.243 -0.3586  0.5403  0.4244
 1379TIP3    H228333   5.438   4.828  11.111  0.0193  0.1882  0.2368
 1380TIP3   OH228334   1.912   1.821  10.031  0.2525  0.4709  0.0505
 1380TIP3    H128335   1.899   1.873   9.951 -0.8750 -0.6413 -0.5200
 1380TIP3    H228336   2.002   1.842  10.058  0.3672  1.5085 -1.0299
 1381TIP3   OH228337   4.319   2.942  10.946 -0.3672 -0.4604 -0.2593
 1381TIP3    H128338   4.279   2.993  10.876 -0.8459 -1.2865 -0.5951
 1381TIP3    H228339   4.407   2.921  10.913 -0.2473 -0.0550 -0.2092
 1382TIP3   OH228340   1.502   4.374  12.079  0.0372 -0.4914 -0.0813
 1382TIP3    H128341   1.585   4.330  12.064  0.5070  0.3098  0.0903
 1382TIP3    H228342   1.462   4.327  12.152  0.3190 -0.8967 -0.1834
 1383TIP3   OH228343   3.120   0.494  10.831  0.3285  0.0665  0.4338
 1383TIP3    H128344   3.154   0.505  10.741  0.4447  0.0492  0.4751
 1383TIP3    H228345   3.141   0.403  10.853  0.1925  0.0352  0.4346
 1384TIP3   OH228346   5.309   0.598  10.333  0.8654 -0.1406 -0.8315
 1384TIP3    H128347   5.281   0.690  10.342  0.8580 -0.2351  0.2794
 1384TIP3    H228348   5.276   0.571  10.247 -1.4585  0.1197 -0.0910
 1385TIP3   OH228349   3.791   5.420  10.713 -0.0811 -0.5238 -0.2304
 1385TIP3    H128350   3.697   5.411  10.700  0.0075  1.7653 -4.0566
 1385TIP3    H228351   3.828   5.339  10.677 -0.5242  0.0630 -2.1186
 1386TIP3   OH228352   0.544   4.537   9.942  0.4490  0.6840  0.1712
 1386TIP3    H128353   0.597   4.613   9.916  3.6233 -2.1744 -2.6455
 1386TIP3    H228354   0.603   4.484   9.996 -0.8275 -0.8854  0.0917
 1387TIP3   OH228355   1.589   1.254  10.971 -0.3232  0.0356 -0.2503
 1387TIP3    H128356   1.519   1.218  10.916 -2.5498  2.1648  0.9713
 1387TIP3    H228357   1.629   1.177  11.012 -1.0801 -1.3323 -1.9729
 1388TIP3   OH228358   0.109   6.580  10.780  0.1071  0.1437 -0.0396
 1388TIP3    H128359   0.016   6.603  10.781  0.2016  0.6749  2.0490
 1388TIP3    H228360   0.115   6.501  10.834  0.9328  0.5103  0.4323
 1389TIP3   OH228361   2.492   0.911  11.308  0.0343  0.1728 -0.0224
 1389TIP3    H128362   2.402   0.920  11.337 -0.5872 -1.2112 -1.3709
 1389TIP3    H228363   2.523   1.000  11.294 -0.6642  0.7243  1.6971
 1390TIP3   OH228364   5.988   3.996  12.856  0.2054 -0.6043  0.2371
 1390TIP3    H128365   5.959   3.907  12.876  1.6724 -1.1261  0.1639
 1390TIP3    H228366   5.908   4.048  12.857 -0.7280 -1.9893 -0.1053
 1391TIP3   OH228367   4.857   1.249   9.400  0.3503 -0.3232  0.2948
 1391TIP3    H128368   4.942   1.243   9.358  0.0941  0.6045 -0.3847
 1391TIP3    H228369   4.864   1.324   9.460 -0.1258  0.0679 -0.1278
 1392TIP3   OH228370   2.384   1.586  12.887  0.6082  0.4385  0.6020
 1392TIP3    H128371   2.309   1.639  12.860 -0.0145 -1.5999 -2.0393
 1392TIP3    H228372   2.361   1.555  12.975 -1.8958 -0.4287 -0.2625
 1393TIP3   OH228373   3.148   1.463  11.278 -0.0627 -0.0962 -0.4502
 1393TIP3    H128374   3.152   1.514  11.358 -0.0745 -0.8839  0.0584
 1393TIP3    H228375   3.093   1.515  11.219  0.2610  0.6635 -0.0864
 1394TIP3   OH228376   2.452   2.905  11.257 -0.0527 -0.5134  0.5077
 1394TIP3    H128377   2.473   2.812  11.267  1.0931 -0.3761 -0.4754
 1394TIP3    H228378   2.470   2.943  11.342  1.8652 -0.7695  0.2662
 1395TIP3   OH228379   1.107   1.518  12.069 -0.0882 -0.1693  0.2009
 1395TIP3    H128380   1.020   1.512  12.029 -0.5304  1.5996  0.8237
 1395TIP3    H228381   1.127   1.611  12.070  1.4105 -0.4706  0.9514
 1396TIP3   OH228382   6.063   4.682  12.866 -0.2860 -0.0560  0.1324
 1396TIP3    H128383   6.140   4.708  12.816 -0.7529 -1.7119 -1.5470
 1396TIP3    H228384   6.014   4.764  12.878  1.3925  0.9109  0.7215
 1397TIP3   OH228385   2.149   1.722  12.850  0.0540 -0.2125  0.5527
 1397TIP3    H128386   2.159   1.799  12.795  0.8626 -0.1782  0.7405
 1397TIP3    H228387   2.088   1.666  12.801 -1.2947  0.9234  0.8498
 1398TIP3   OH228388   4.642   3.401  12.129 -0.3401  0.1483 -0.3405
 1398TIP3    H128389   4.557   3.431  12.098 -0.2702  1.4719  0.6677
 1398TIP3    H228390   4.623   3.320  12.178 -1.1818  0.9954  0.7693
 1399TIP3   OH228391   4.224   5.797  10.541 -0.3354 -0.4724  0.3360
 1399TIP3    H128392   4.161   5.781  10.471  0.1463 -0.4872 -0.1057
 1399TIP3    H228393   4.298   5.739  10.519 -0.9069 -1.8485  1.8418
 1400TIP3   OH228394   0.843   2.227  12.542 -0.3590 -0.2020 -0.2269
 1400TIP3    H128395   0.877   2.313  12.517 -1.2482  0.4458  0.7432
 1400TIP3    H228396   0.766   2.246  12.595 -1.0875 -1.6151 -0.7293
 1401TIP3   OH228397   1.792   3.085  12.146  0.1429  0.2133  0.4779
 1401TIP3    H128398   1.716   3.120  12.193 -1.5998 -1.6943 -0.7602
 1401TIP3    H228399   1.839   3.162  12.115 -1.1217  1.4431  1.4937
 1402TIP3   OH228400   3.235   3.704  10.815  0.5771 -0.3426  0.2705
 1402TIP3    H128401   3.217   3.702  10.909  1.2042 -0.7004  0.3916
 1402TIP3    H228402   3.303   3.638  10.803  1.1535  0.3511 -0.3017
 1403TIP3   OH228403   3.463   4.735  11.948  0.3033  0.3175  0.3411
 1403TIP3    H128404   3.550   4.739  11.908  0.7366 -1.2483  1.0784
 1403TIP3    H228405   3.427   4.651  11.919 -0.4176  0.3466  1.1278
 1404TIP3   OH228406   4.250   3.262  12.315 -0.3460  0.4271  0.3165
 1404TIP3    H128407   4.299   3.227  12.240 -0.9382  2.0223 -0.8588
 1404TIP3    H228408   4.316   3.275  12.383  0.3101 -0.4020 -0.1445
 1405TIP3   OH228409   6.061   6.834  10.122  0.2516 -0.5244 -0.6211
 1405TIP3    H128410   6.079   6.922  10.088 -0.2168  0.4197  1.4480
 1405TIP3    H228411   6.008   6.793  10.053  0.1177  0.9605 -1.4494
 1406TIP3   OH228412   0.665   4.476  12.298  0.4008 -0.4099  0.1933
 1406TIP3    H128413   0.584   4.518  12.329  0.6236 -1.7493  2.9078
 1406TIP3    H228414   0.733   4.542  12.315  0.4233 -0.8776  2.1392
 1407TIP3   OH228415   4.314   1.607  12.569  0.3935 -0.0434 -0.1942
 1407TIP3    H128416   4.243   1.626  12.631 -0.7209  0.0923 -1.4625
 1407TIP3    H228417   4.276   1.543  12.509  1.8203 -1.0092 -0.0867
 1408TIP3   OH228418   6.210   1.849  12.880  0.3440  0.0699 -0.5120
 1408TIP3    H128419   6.130   1.796  12.875  1.5226 -1.8439 -0.0084
 1408TIP3    H228420   6.183   1.929  12.925 -0.9991 -1.1669  0.9838
 1409TIP3   OH228421   2.584   5.103  11.329 -0.7881  0.2571  0.4215
 1409TIP3    H128422   2.596   5.020  11.283  1.0191  0.6745  0.0588
 1409TIP3    H228423   2.574   5.168  11.259  1.9196  0.8875  0.5191
 1410TIP3   OH228424   4.138   2.962  11.448  0.1016  0.8595 -0.3970
 1410TIP3    H128425   4.168   2.972  11.357 -2.3030  1.1087 -1.2289
 1410TIP3    H228426   4.158   3.046  11.489  1.8664  0.5021 -0.4430
 1411TIP3   OH228427   4.631   2.162  12.300 -0.6969  0.2048  0.1666
 1411TIP3    H128428   4.584   2.228  12.350 -1.8331  0.7764 -1.5624
 1411TIP3    H228429   4.585   2.158  12.216 -0.2356 -2.2862 -0.0511
 1412TIP3   OH228430   0.314   2.238   9.661 -0.2147  0.0393 -0.1597
 1412TIP3    H128431   0.351   2.322   9.634  1.6576 -0.2983  1.1377
 1412TIP3    H228432   0.335   2.178   9.590  1.9824 -0.1613  0.5654
 1413TIP3   OH228433   3.134   4.032   9.788  0.1812 -0.4461  0.4685
 1413TIP3    H128434   3.072   4.053   9.858 -1.1974 -2.1325 -0.1483
 1413TIP3    H228435   3.115   3.940   9.767  0.2247  0.0974 -2.3986
 1414TIP3   OH228436   1.777   0.344  11.892 -0.1809  0.4748  0.4734
 1414TIP3    H128437   1.786   0.252  11.868 -0.6268  1.0955 -2.5182
 1414TIP3    H228438   1.710   0.345  11.960  0.4070 -1.4526  1.1366
 1415TIP3   OH228439   3.181   3.971  11.814 -0.2062 -0.0885 -0.6549
 1415TIP3    H128440   3.173   4.037  11.883  2.5620 -0.4473  0.1317
 1415TIP3    H228441   3.171   3.888  11.859  1.6209 -0.3258 -0.6066
 1416TIP3   OH228442   5.316   1.955  10.709 -0.7778  0.3649 -0.2030
 1416TIP3    H128443   5.252   1.900  10.665  0.4025  0.8625 -2.7357
 1416TIP3    H228444   5.271   2.039  10.722 -1.6440 -0.2628  1.0675
 1417TIP3   OH228445   2.851   3.106  10.308  0.7635 -0.4745  0.2021
 1417TIP3    H128446   2.867   3.049  10.233  1.5583 -0.7632  0.5839
 1417TIP3    H228447   2.898   3.187  10.287 -0.4029  0.0763 -0.3593
 1418TIP3   OH228448   5.509   4.163  12.225  0.5740 -0.1325  0.5519
 1418TIP3    H128449   5.416   4.144  12.232  0.1006  1.7288 -0.0646
 1418TIP3    H228450   5.542   4.156  12.314 -0.7046  1.5614  1.2186
 1419TIP3   OH228451   1.445   1.266  11.234  0.0335  0.1664 -0.0940
 1419TIP3    H128452   1.428   1.353  11.271 -0.9960 -0.7012  1.5553
 1419TIP3    H228453   1.484   1.284  11.148 -0.5024  2.2514  0.0512
 1420TIP3   OH228454   0.800   3.939  12.972 -0.2601 -0.1977 -0.1150
 1420TIP3    H128455   0.872   3.949  12.910  0.7748 -1.6611  0.7729
 1420TIP3    H228456   0.793   3.844  12.984 -1.1790  0.0063  1.1355
 1421TIP3   OH228457   3.920   1.403  12.542 -0.3270  0.6730 -0.0278
 1421TIP3    H128458   3.887   1.492  12.557 -2.2778 -0.0558  0.4105
 1421TIP3    H228459   3.917   1.392  12.447 -1.5066  0.6240 -0.0098
 1422TIP3   OH228460   1.389   4.966  11.230  0.1992 -0.0404 -0.2747
 1422TIP3    H128461   1.348   4.924  11.154 -1.6470  0.8582  0.1611
 1422TIP3    H228462   1.364   4.911  11.304 -0.7915  0.8515  0.0778
 1423TIP3   OH228463   5.019   0.099  12.851 -0.0600  0.2250  0.4474
 1423TIP3    H128464   5.064   0.166  12.903  1.4864 -1.1065  0.8990
 1423TIP3    H228465   4.942   0.076  12.903 -0.3571  1.3060  0.5053
 1424TIP3   OH228466   2.697   2.636   9.635 -0.1100 -0.6112 -0.2884
 1424TIP3    H128467   2.721   2.684   9.714 -0.1066 -0.2681 -0.4982
 1424TIP3    H228468   2.776   2.634   9.582 -0.3005 -0.2391 -0.5911
 1425TIP3   OH228469   3.977   2.373  11.669  0.0119  0.1166  0.2969
 1425TIP3    H128470   4.040   2.423  11.720  1.2521 -1.1512  0.0837
 1425TIP3    H228471   3.927   2.439  11.621  0.8987  1.1813  0.7858
 1426TIP3   OH228472   1.818   2.864  11.196 -0.1633 -0.0802  0.0444
 1426TIP3    H128473   1.852   2.791  11.144 -0.1867  0.2854 -0.4899
 1426TIP3    H228474   1.796   2.931  11.131 -1.7721 -0.2465  0.3761
 1427TIP3   OH228475   5.041   0.113  12.085 -0.3403 -0.2433  0.2910
 1427TIP3    H128476   5.002   0.196  12.114  0.5881 -0.5065  2.4329
 1427TIP3    H228477   5.089   0.136  12.006 -1.9124  0.7799 -0.4226
 1428TIP3   OH228478   6.719   4.527  12.819 -0.0522 -0.4322  0.8695
 1428TIP3    H128479   6.734   4.594  12.887 -1.1950 -0.1777  0.8870
 1428TIP3    H228480   6.769   4.558  12.744 -1.6225  1.1983  0.4242
 1429TIP3   OH228481   5.743   2.508  11.001  0.2588  0.3534  0.1393
 1429TIP3    H128482   5.760   2.451  11.076 -0.6795 -2.0605 -1.3550
 1429TIP3    H228483   5.828   2.517  10.957  0.2398 -0.6752 -0.1153
 1430TIP3   OH228484   4.782   5.319  12.862  0.0285  0.1493  0.4186
 1430TIP3    H128485   4.704   5.369  12.886  0.4153 -0.3237  2.8741
 1430TIP3    H228486   4.822   5.369  12.791 -2.6384  0.2321 -1.1382
 1431TIP3   OH228487   0.580   6.711  11.157  0.5767  0.4454 -0.0629
 1431TIP3    H128488   0.647   6.686  11.093  1.6846  0.6435  0.9861
 1431TIP3    H228489   0.626   6.714  11.240 -1.0812 -0.9845  0.9756
 1432TIP3   OH228490   0.067   0.803  13.146 -0.2820 -0.2376 -0.4464
 1432TIP3    H128491   0.079   0.713  13.176  1.3677 -0.0973 -0.5821
 1432TIP3    H228492  -0.024   0.824  13.168  0.1264 -0.9503  2.2546
 1433TIP3   OH228493   4.813   3.362  12.995 -0.0325  0.1417  0.1397
 1433TIP3    H128494   4.800   3.431  13.060 -0.4290  0.0966  0.1083
 1433TIP3    H228495   4.883   3.395  12.938  1.0124 -0.2275  1.1615
 1434TIP3   OH228496   4.244   5.396  10.031  0.2932 -0.5063 -0.1152
 1434TIP3    H128497   4.195   5.354  10.101 -0.9276  0.9706 -0.0379
 1434TIP3    H228498   4.179   5.411   9.962  1.1281 -0.4851 -0.9147
 1435TIP3   OH228499   0.483   4.377  12.499 -0.2382 -0.4158 -0.1883
 1435TIP3    H128500   0.516   4.293  12.465 -1.8888 -0.4635 -1.8466
 1435TIP3    H228501   0.562   4.427  12.518  0.7960 -1.6987 -0.8492
 1436TIP3   OH228502   2.884   6.088  11.153  0.6573 -0.4996 -0.0093
 1436TIP3    H128503   2.816   6.093  11.087  0.5257  1.8092  0.2034
 1436TIP3    H228504   2.838   6.067  11.234  0.6886 -2.2811 -0.4080
 1437TIP3   OH228505   3.765   6.100  10.970 -0.2500  0.4123  0.0206
 1437TIP3    H128506   3.714   6.040  11.025  1.0646 -1.3190 -0.5485
 1437TIP3    H228507   3.733   6.083  10.881  0.7363 -0.1282 -0.2499
 1438TIP3   OH228508   4.290   4.193  10.934 -0.0952  0.2296 -0.2893
 1438TIP3    H128509   4.365   4.243  10.900  0.8314 -2.1680 -2.0313
 1438TIP3    H228510   4.251   4.153  10.857 -0.7790 -1.7188  1.0041
 1439TIP3   OH228511   0.157   3.692  10.319 -0.3325 -0.0893 -0.4242
 1439TIP3    H128512   0.228   3.670  10.379 -2.1460 -1.0574  1.5379
 1439TIP3    H228513   0.194   3.682  10.232  2.1958  0.5232  0.4902
 1440TIP3   OH228514   3.801   6.661  11.710 -0.4631  0.7519 -0.2970
 1440TIP3    H128515   3.833   6.723  11.645  0.5305  0.1745 -0.3760
 1440TIP3    H228516   3.713   6.692  11.731  0.0231  2.2123 -0.2956
 1441TIP3   OH228517   0.075   2.625  11.265 -0.6799 -0.4402  0.3955
 1441TIP3    H128518   0.130   2.571  11.209  0.6120 -1.3091  2.3716
 1441TIP3    H228519  -0.014   2.596  11.248 -0.2139 -1.4302 -0.4110
 1442TIP3   OH228520   0.273   4.482  12.051  0.0146  0.2203  0.0587
 1442TIP3    H128521   0.189   4.466  12.009  0.2720  0.5882 -0.6092
 1442TIP3    H228522   0.252   4.494  12.144 -0.5997 -0.2227 -0.0189
 1443TIP3   OH228523   5.072   0.524  12.556  0.3734  0.6400 -0.6541
 1443TIP3    H128524   5.159   0.557  12.533  0.0625  0.2290 -2.6504
 1443TIP3    H228525   5.046   0.470  12.481  0.0699 -2.6556  1.5953
 1444TIP3   OH228526   6.801   0.093  13.242 -0.3372  0.4093 -0.2001
 1444TIP3    H128527   6.724   0.042  13.268  1.3110 -2.2168 -0.0820
 1444TIP3    H228528   6.767   0.160  13.183 -2.7223 -0.5920 -0.0769
 1445TIP3   OH228529   0.173   4.841  11.517  0.1426 -0.1625  0.8167
 1445TIP3    H128530   0.266   4.858  11.498 -0.1524 -1.0620 -2.0221
 1445TIP3    H228531   0.172   4.815  11.609  2.6304  0.3708  1.0779
 1446TIP3   OH228532   0.376   2.928  13.013 -0.0520  0.1434  0.0960
 1446TIP3    H128533   0.397   2.836  12.996  0.2984 -0.1320  1.8811
 1446TIP3    H228534   0.287   2.927  13.049 -0.0180  0.5020  0.1973
 1447TIP3   OH228535   3.172   2.131  12.432  0.3728 -0.3798 -0.2929
 1447TIP3    H128536   3.094   2.099  12.478  1.0321  0.0049  1.1722
 1447TIP3    H228537   3.160   2.103  12.342 -2.1464  0.8977 -0.4507
 1448TIP3   OH228538   6.529   0.206  11.667 -0.2881 -0.0360 -0.1161
 1448TIP3    H128539   6.620   0.235  11.665 -0.2367 -0.2125 -1.3865
 1448TIP3    H228540   6.503   0.203  11.575 -1.3448 -0.7171  0.1877
 1449TIP3   OH228541   3.001   5.566  10.206 -0.2949  0.4100 -0.1765
 1449TIP3    H128542   2.922   5.576  10.259 -0.3670 -0.1964 -0.1660
 1449TIP3    H228543   2.978   5.603  10.120 -1.0595 -1.0185 -0.6117
 1450TIP3   OH228544   6.315   4.201  11.697 -0.1977  0.0509 -0.4600
 1450TIP3    H128545   6.398   4.237  11.728 -1.1007  0.8442  1.1437
 1450TIP3    H228546   6.292   4.135  11.763 -0.9518 -0.0175 -0.7902
 1451TIP3   OH228547   0.477   6.753  12.520 -0.6904 -0.1553 -0.0869
 1451TIP3    H128548   0.424   6.830  12.501  0.6004  0.9398  0.5874
 1451TIP3    H228549   0.437   6.716  12.599 -0.7361  0.4018  0.1580
 1452TIP3   OH228550   3.191   5.193  10.972 -0.4528  0.0815 -0.0781
 1452TIP3    H128551   3.163   5.260  11.035 -0.4989 -0.0220  0.0125
 1452TIP3    H228552   3.128   5.122  10.983 -1.1840  0.5467 -1.0813
 1453TIP3   OH228553   2.824   0.715  11.872  0.1324 -0.9488 -0.3397
 1453TIP3    H128554   2.852   0.766  11.796 -0.3990  1.2753  0.8474
 1453TIP3    H228555   2.806   0.627  11.838 -0.0276 -0.0477 -2.7570
 1454TIP3   OH228556   2.705   1.463  12.268 -0.8812 -0.3187 -0.1994
 1454TIP3    H128557   2.641   1.530  12.292 -1.3034 -0.6202 -0.4603
 1454TIP3    H228558   2.656   1.381  12.269 -0.3703 -0.6289  0.1101
 1455TIP3   OH228559   0.635   4.956  11.314  0.2313  0.0257  0.0346
 1455TIP3    H128560   0.580   4.906  11.254 -0.9217 -0.1186  1.1745
 1455TIP3    H228561   0.711   4.900  11.328  0.1264 -0.3042 -0.6293
 1456TIP3   OH228562   5.870   0.562  11.597 -0.4651  0.5052  0.1092
 1456TIP3    H128563   5.841   0.562  11.688 -0.5679  2.4883  0.1162
 1456TIP3    H228564   5.961   0.591  11.601 -1.0346  2.4951 -0.5297
 1457TIP3   OH228565   1.414   2.245  10.087 -0.3516  0.1459 -0.3276
 1457TIP3    H128566   1.336   2.294  10.112 -0.4436 -0.2296  0.1363
 1457TIP3    H228567   1.476   2.312  10.057 -0.0030  0.6775  1.5029
 1458TIP3   OH228568   0.669   0.917  11.049 -0.2767 -0.5771  0.0151
 1458TIP3    H128569   0.589   0.902  10.998 -1.3052 -0.5995  1.5784
 1458TIP3    H228570   0.731   0.954  10.986 -1.8158  0.3214 -1.0306
 1459TIP3   OH228571   1.444   0.414   9.958  0.4284  0.4074 -0.3290
 1459TIP3    H128572   1.525   0.399   9.909  0.0362 -1.4172 -0.4658
 1459TIP3    H228573   1.375   0.381   9.901 -0.2968  0.7886  0.3193
 1460TIP3   OH228574   3.030   5.925  10.148 -0.2300  0.7596  0.5710
 1460TIP3    H128575   2.958   5.977  10.112 -0.2698  0.3203 -0.0044
 1460TIP3    H228576   3.031   5.846  10.094  0.8241  0.8561  0.4362
 1461TIP3   OH228577   5.940   5.419  12.228 -0.0916 -0.8838  0.5108
 1461TIP3    H128578   5.910   5.506  12.256  0.7350 -0.4708  0.1591
 1461TIP3    H228579   5.925   5.417  12.134 -0.0535 -1.0999  0.5090
 1462TIP3   OH228580   4.373   2.345  13.133  0.0732 -0.2898  0.4791
 1462TIP3    H128581   4.283   2.315  13.118  0.7753 -1.7107 -1.4740
 1462TIP3    H228582   4.371   2.439  13.115 -0.7887 -0.5516 -0.9610
 1463TIP3   OH228583   0.706   3.315  11.907  0.2320  0.1983 -0.4292
 1463TIP3    H128584   0.770   3.260  11.862 -0.0127 -0.9368  0.5461
 1463TIP3    H228585   0.643   3.253  11.945 -1.4497  1.2809 -1.3368
 1464TIP3   OH228586   2.942   2.065  12.569 -0.3199  0.3105  0.3457
 1464TIP3    H128587   2.900   2.114  12.640 -1.4470  1.1942 -0.8657
 1464TIP3    H228588   2.872   2.010  12.534 -0.1660  0.8879 -0.9266
 1465TIP3   OH228589   0.431   5.657  10.950  0.5167 -0.0630 -0.2557
 1465TIP3    H128590   0.459   5.653  10.858 -0.5388 -0.9584 -0.5526
 1465TIP3    H228591   0.357   5.597  10.956  0.2166  0.3979  1.0684
 1466TIP3   OH228592   2.632   6.811  10.661 -0.2438 -0.4651 -0.1523
 1466TIP3    H128593   2.632   6.905  10.674 -0.9024 -0.5494  0.5562
 1466TIP3    H228594   2.700   6.778  10.720 -2.1527 -0.6962  2.0771
 1467TIP3   OH228595   0.998   3.029  11.904  0.0000 -0.9928 -0.5451
 1467TIP3    H128596   0.975   3.106  11.851 -0.0005 -0.4444  0.2349
 1467TIP3    H228597   0.915   3.000  11.941  0.2462 -0.2513  0.6290
 1468TIP3   OH228598   2.040   0.718  10.479  0.7216  1.0544 -0.2981
 1468TIP3    H128599   1.951   0.753  10.475 -0.1655 -0.5519  2.5353
 1468TIP3    H228600   2.081   0.765  10.551  0.7703 -0.8806  1.0179
 1469TIP3   OH228601   0.132   1.155  11.260 -0.8388  0.4780  0.3385
 1469TIP3    H128602   0.049   1.200  11.244 -0.5274  0.7274 -0.5999
 1469TIP3    H228603   0.193   1.192  11.197 -0.1818 -0.1917  0.5617
 1470TIP3   OH228604   2.762   2.488  11.801  0.3266  0.3216  0.6906
 1470TIP3    H128605   2.743   2.573  11.841  0.1446  0.2102  0.8435
 1470TIP3    H228606   2.763   2.427  11.875  0.5301  0.2046  0.5894
 1471TIP3   OH228607   4.030   0.393  13.124  0.0942 -0.5875 -0.0163
 1471TIP3    H128608   3.998   0.321  13.179  1.3532 -0.0800  1.4260
 1471TIP3    H228609   3.950   0.436  13.093 -0.6992 -2.5711 -0.9481
 1472TIP3   OH228610   5.147   4.449  12.040  0.1927  0.1269 -0.2641
 1472TIP3    H128611   5.153   4.389  12.115  1.1107  0.3094 -0.1909
 1472TIP3    H228612   5.063   4.427  12.000 -0.7828  0.6740  1.3611
 1473TIP3   OH228613   2.004   5.654  10.239 -0.4947  0.3035  0.5777
 1473TIP3    H128614   1.911   5.675  10.233 -0.3187  0.9406 -0.0657
 1473TIP3    H228615   2.038   5.718  10.302  0.1372  2.4408 -1.7467
 1474TIP3   OH228616   2.387   1.047  10.417  0.0291 -0.1073 -0.0547
 1474TIP3    H128617   2.395   1.041  10.321 -0.1769  0.8798 -0.1450
 1474TIP3    H228618   2.299   1.082  10.431  1.2055  2.9863  0.3268
 1475TIP3   OH228619   2.079   4.210  11.077 -0.2534 -0.4459 -0.3621
 1475TIP3    H128620   2.093   4.293  11.032 -0.5901  0.0789  0.4791
 1475TIP3    H228621   1.992   4.182  11.049 -1.1494  0.6738  1.1322
 1476TIP3   OH228622   4.073   4.611  12.375  0.2307  0.3255  0.5425
 1476TIP3    H128623   3.988   4.575  12.403 -0.0729  0.6555  0.0569
 1476TIP3    H228624   4.105   4.659  12.451  0.4312 -0.5844  1.0531
 1477TIP3   OH228625   5.321   3.602  11.655 -0.2266  0.1606  0.5107
 1477TIP3    H128626   5.246   3.597  11.715 -0.8326  0.4236 -0.2137
 1477TIP3    H228627   5.353   3.512  11.648 -1.2114 -0.1520 -0.0982
 1478TIP3   OH228628   1.802   5.628   9.882 -0.7155 -0.2384 -0.0606
 1478TIP3    H128629   1.866   5.699   9.888 -2.0206  0.9397  0.4709
 1478TIP3    H228630   1.717   5.673   9.881 -1.5304 -1.5956 -2.8939
 1479TIP3   OH228631   4.355   2.291  11.759  0.2312  0.3516  0.3388
 1479TIP3    H128632   4.442   2.316  11.729  1.0145 -1.2029  1.1333
 1479TIP3    H228633   4.312   2.255  11.682  0.9128 -0.3463  0.2655
 1480TIP3   OH228634   1.583   6.838   9.482 -0.4030  0.2454 -0.4298
 1480TIP3    H128635   1.676   6.848   9.504 -0.1491 -1.2894 -0.6350
 1480TIP3    H228636   1.581   6.761   9.424 -1.9358 -0.5092  0.5595
 1481TIP3   OH228637   1.996   4.964  10.226  0.1618  0.5844 -0.0375
 1481TIP3    H128638   2.025   4.873  10.234 -0.7730  0.3703  1.1899
 1481TIP3    H228639   1.996   4.981  10.132 -1.5570 -1.3369 -0.4359
 1482TIP3   OH228640   6.564   1.883   9.879 -0.0598 -0.2031 -0.4569
 1482TIP3    H128641   6.535   1.806   9.830 -0.6346  0.5346 -1.3214
 1482TIP3    H228642   6.599   1.942   9.812 -1.3879  1.0652 -0.0793
 1483TIP3   OH228643   0.496   4.867  10.898 -0.5553  0.1880  0.0700
 1483TIP3    H128644   0.453   4.930  10.839  0.9869  0.4803 -0.7905
 1483TIP3    H228645   0.584   4.857  10.862  0.1247 -0.3599  1.8148
 1484TIP3   OH228646   4.461   3.726  12.581  0.0932 -0.3950 -0.9354
 1484TIP3    H128647   4.545   3.722  12.535 -0.5526  1.8504 -2.4182
 1484TIP3    H228648   4.397   3.750  12.514 -1.0542  2.0073  0.8847
 1485TIP3   OH228649   0.822   0.105  10.527  0.3027  0.1513  0.1001
 1485TIP3    H128650   0.816   0.018  10.489 -0.1789  0.0099  0.4906
 1485TIP3    H228651   0.733   0.140  10.524  0.4185  0.4796  0.2910
 1486TIP3   OH228652   4.811   5.846  11.650  0.3360 -0.3710  0.6716
 1486TIP3    H128653   4.856   5.771  11.689 -0.0202 -1.7169 -1.3528
 1486TIP3    H228654   4.718   5.820  11.649 -0.0654  0.9397  1.7146
 1487TIP3   OH228655   3.591   1.737  11.389 -0.2790  0.0601 -0.0690
 1487TIP3    H128656   3.544   1.717  11.470 -1.2373  0.7886 -0.4374
 1487TIP3    H228657   3.658   1.669  11.384  0.7655  0.8312  2.0777
 1488TIP3   OH228658   2.460   5.194  12.446  0.2182 -0.1850  0.6705
 1488TIP3    H128659   2.524   5.224  12.382  0.6108 -1.4644  0.4438
 1488TIP3    H228660   2.376   5.224  12.411  0.5095 -0.1335  0.0026
 1489TIP3   OH228661   0.753   6.742  11.911  0.1495 -0.2814  0.3327
 1489TIP3    H128662   0.681   6.683  11.890 -1.6604  1.7924  0.2657
 1489TIP3    H228663   0.776   6.781  11.826  1.6455 -1.1704  0.2961
 1490TIP3   OH228664   5.821   3.827  10.994  0.4491  0.3979  0.7282
 1490TIP3    H128665   5.882   3.885  10.947 -0.9909  0.6268 -0.9754
 1490TIP3    H228666   5.852   3.739  10.974  0.3085  0.5153 -0.0784
 1491TIP3   OH228667   3.556   1.900  12.552  0.3027  0.0535 -0.3257
 1491TIP3    H128668   3.629   1.861  12.504 -0.1713 -0.5206 -0.5903
 1491TIP3    H228669   3.528   1.974  12.498  1.2546  0.8339  0.2156
 1492TIP3   OH228670   5.424   3.580  10.127 -0.2080  0.3714  0.0991
 1492TIP3    H128671   5.400   3.667  10.159  0.4748  0.1758  1.2086
 1492TIP3    H228672   5.512   3.591  10.092 -0.9330  0.5705 -1.7551
 1493TIP3   OH228673   3.342   5.385  10.819 -0.1460  0.3925  0.4439
 1493TIP3    H128674   3.272   5.320  10.827 -1.2141  1.0787 -2.4128
 1493TIP3    H228675   3.298   5.469  10.827  0.1998  0.8435 -1.7366
 1494TIP3   OH228676   2.730   0.796   9.879 -0.5956  0.3289  0.5929
 1494TIP3    H128677   2.706   0.706   9.856 -1.0698  0.7639 -0.7318
 1494TIP3    H228678   2.651   0.832   9.919 -0.4247  0.1790  1.0689
 1495TIP3   OH228679   3.465   6.696  11.527 -0.1220  0.4433  0.3154
 1495TIP3    H128680   3.533   6.692  11.595  2.9892  0.7324 -2.5353
 1495TIP3    H228681   3.451   6.604  11.503  0.9404  0.4975 -0.5737
 1496TIP3   OH228682   3.018   3.317  10.254 -0.0696  0.3449 -0.1833
 1496TIP3    H128683   2.985   3.388  10.309  2.4774  1.0803  0.5271
 1496TIP3    H228684   3.016   3.353  10.165 -0.4007  0.6603 -0.0527
 1497TIP3   OH228685   5.690   4.763  11.611  0.4333 -0.1975  0.2994
 1497TIP3    H128686   5.614   4.810  11.579 -1.6044 -1.7650  2.5287
 1497TIP3    H228687   5.655   4.686  11.656  3.0998  0.3120  3.7127
 1498TIP3   OH228688   1.100   1.700  11.433 -0.2796  0.4774 -0.1861
 1498TIP3    H128689   1.058   1.721  11.350 -0.3672  1.1713  0.0331
 1498TIP3    H228690   1.187   1.739  11.426 -0.0493 -0.0272 -0.2061
 1499TIP3   OH228691   2.467   3.524  11.418  0.5390 -0.5001 -0.1573
 1499TIP3    H128692   2.458   3.429  11.432  0.2837 -0.4762 -0.1560
 1499TIP3    H228693   2.549   3.546  11.462 -0.7949 -0.2309  2.3849
 1500TIP3   OH228694   5.649   6.291   9.877 -0.2358 -0.5970  0.0938
 1500TIP3    H128695   5.566   6.245   9.860  0.6730 -2.0887 -0.5704
 1500TIP3    H228696   5.690   6.241   9.948 -0.3948  0.8306  1.2439
 1501TIP3   OH228697   6.807   5.121  11.607 -0.0754  0.0077 -0.4502
 1501TIP3    H128698   6.738   5.179  11.637 -0.8033 -1.0770  0.0480
 1501TIP3    H228699   6.769   5.073  11.533 -0.2714 -1.3466  0.4817
 1502TIP3   OH228700   1.665   2.159  11.280  0.1066 -0.3531 -0.0369
 1502TIP3    H128701   1.598   2.227  11.288  0.9039  0.5839 -1.2356
 1502TIP3    H228702   1.675   2.145  11.186  1.2407 -0.8590  0.1476
 1503TIP3   OH228703   1.622   3.896  10.267 -0.0952  0.1130  0.0663
 1503TIP3    H128704   1.671   3.908  10.186 -0.2844  0.6657  0.0286
 1503TIP3    H228705   1.623   3.802  10.282 -1.1169 -0.1322 -1.2474
 1504TIP3   OH228706   6.837   4.583  11.972 -0.0547 -0.4132  0.1665
 1504TIP3    H128707   6.806   4.629  12.050 -1.5219  0.4597 -0.8852
 1504TIP3    H228708   6.767   4.595  11.908  0.9894 -1.3610 -1.2015
 1505TIP3   OH228709   6.628   4.032  13.129 -0.5264 -0.5233  0.5009
 1505TIP3    H128710   6.539   4.054  13.157 -0.8798 -1.4639  0.1501
 1505TIP3    H228711   6.634   3.937  13.142  0.5650 -0.4061  0.9019
 1506TIP3   OH228712   2.327   0.802  12.047 -0.9376  0.2940  0.0731
 1506TIP3    H128713   2.410   0.774  12.008 -1.0862 -0.2618  0.1454
 1506TIP3    H228714   2.273   0.826  11.972 -1.0931 -0.4141 -0.0532
 1507TIP3   OH228715   5.225   0.546  10.990 -0.1970  0.2612 -0.1769
 1507TIP3    H128716   5.205   0.479  10.925  0.8251  0.3693 -0.6304
 1507TIP3    H228717   5.308   0.584  10.960 -0.3004  1.1051  0.5639
 1508TIP3   OH228718   6.277   5.334  10.582  0.5484  0.1071  0.0714
 1508TIP3    H128719   6.208   5.305  10.641  0.9373 -3.3135 -0.9186
 1508TIP3    H228720   6.352   5.350  10.639 -0.0705  0.4167  0.8166
 1509TIP3   OH228721   6.841   3.843  12.695  0.1831 -0.4018 -0.3532
 1509TIP3    H128722   6.769   3.813  12.750  0.0640  1.4494  0.5711
 1509TIP3    H228723   6.804   3.917  12.646  1.0701 -0.2918 -0.8798
 1510TIP3   OH228724   5.929   0.130  10.604  0.2402  0.0531  0.1985
 1510TIP3    H128725   5.996   0.144  10.671 -0.1469  1.7319  0.2825
 1510TIP3    H228726   5.847   0.152  10.648 -0.2626 -0.8839 -0.2381
 1511TIP3   OH228727   5.399   1.239  12.178  0.2198 -0.2385  0.3423
 1511TIP3    H128728   5.339   1.176  12.217  0.2916  0.3058  1.3602
 1511TIP3    H228729   5.346   1.318  12.167  1.1234  0.7825  2.7876
 1512TIP3   OH228730   6.183   5.817  10.056  0.0780 -0.4260 -0.1534
 1512TIP3    H128731   6.160   5.771   9.975  0.1731  0.0224 -0.4365
 1512TIP3    H228732   6.114   5.791  10.118 -0.4407 -0.1503 -0.6075
 1513TIP3   OH228733   1.344   3.700  12.380 -0.3881  0.4252 -0.6976
 1513TIP3    H128734   1.272   3.710  12.442 -0.7996  0.7467 -1.2216
 1513TIP3    H228735   1.411   3.760  12.412  0.0243 -0.5408  0.3133
 1514TIP3   OH228736   5.609   0.372  10.937 -0.4043 -0.1854 -0.1217
 1514TIP3    H128737   5.541   0.355  11.002  0.7851 -0.1250  1.1920
 1514TIP3    H228738   5.690   0.345  10.980  0.9408  3.4392 -0.0572
 1515TIP3   OH228739   0.179   5.206   9.505 -0.5242 -0.2618 -0.1426
 1515TIP3    H128740   0.241   5.174   9.571  0.7011  0.2410 -1.0187
 1515TIP3    H228741   0.191   5.301   9.505 -0.4613 -0.2648 -1.1244
 1516TIP3   OH228742   6.106   3.023  12.110  0.0267 -0.4335  0.0347
 1516TIP3    H128743   6.117   2.989  12.021 -0.0489 -1.8102  0.5290
 1516TIP3    H228744   6.195   3.041  12.140  0.1809 -1.3824  0.1925
 1517TIP3   OH228745   0.501   2.352  12.296 -0.2012 -0.2002 -0.4492
 1517TIP3    H128746   0.468   2.370  12.384  0.1238  0.2197 -0.4031
 1517TIP3    H228747   0.503   2.438  12.254  1.5568 -0.0615 -0.1815
 1518TIP3   OH228748   6.179   3.117  11.340  0.4001 -0.1187  0.8622
 1518TIP3    H128749   6.133   3.190  11.299  1.7959  0.2179 -0.1971
 1518TIP3    H228750   6.248   3.094  11.277  0.8828 -1.4088  1.8198
 1519TIP3   OH228751   0.400   0.156  12.423 -0.5778 -0.3224 -0.1665
 1519TIP3    H128752   0.318   0.172  12.376 -0.0712 -2.4723 -1.9367
 1519TIP3    H228753   0.467   0.196  12.368 -0.0175 -2.5401 -1.2067
 1520TIP3   OH228754   5.417   3.044  11.244 -0.0306  0.5390  0.2720
 1520TIP3    H128755   5.333   3.067  11.283 -0.6140 -1.4371  0.2350
 1520TIP3    H228756   5.415   3.085  11.157 -0.6544  1.0463  0.5159
 1521TIP3   OH228757   6.216   3.485  11.741 -0.3448  0.3014 -0.1960
 1521TIP3    H128758   6.301   3.494  11.696  0.2505  0.4610  0.9378
 1521TIP3    H228759   6.206   3.391  11.754 -0.0323  0.3223  0.2291
 1522TIP3   OH228760   1.988   0.882  11.172  0.1646 -0.0984  0.9755
 1522TIP3    H128761   1.911   0.831  11.196 -0.1598 -0.3856 -0.6076
 1522TIP3    H228762   2.061   0.820  11.181 -0.3202 -1.1758 -1.7551
 1523TIP3   OH228763   1.446   1.801  10.915  0.6386  0.3145  0.1365
 1523TIP3    H128764   1.527   1.781  10.868  1.8652  1.6731  1.5208
 1523TIP3    H228765   1.437   1.730  10.978  1.3770  0.6959  0.6917
 1524TIP3   OH228766   0.755   5.037  13.148  0.0326 -0.1225  0.4852
 1524TIP3    H128767   0.677   5.063  13.099 -0.3825 -0.9144  0.6906
 1524TIP3    H228768   0.727   5.039  13.240  0.0197 -1.1006  0.5161
 1525TIP3   OH228769   5.053   5.138  10.572 -0.1039  0.1439  0.0843
 1525TIP3    H128770   4.996   5.209  10.601  0.8915  0.7792  0.5364
 1525TIP3    H228771   5.122   5.134  10.639  0.8182 -0.0864 -0.8619
 1526TIP3   OH228772   6.051   0.157  10.345  0.3521  0.2534 -0.1185
 1526TIP3    H128773   6.028   0.117  10.429 -1.8583  1.3664 -0.1248
 1526TIP3    H228774   6.022   0.093  10.280  1.2834 -0.2269 -0.0855
 1527TIP3   OH228775   3.497   0.193  10.315 -0.0690  0.3291 -0.2700
 1527TIP3    H128776   3.536   0.208  10.229 -0.9168 -0.1127 -0.7456
 1527TIP3    H228777   3.556   0.132  10.359 -0.2905 -0.4473 -1.0305
 1528TIP3   OH228778   6.775   1.000  12.737  0.1883 -0.0879  0.5343
 1528TIP3    H128779   6.785   1.090  12.705 -0.8366 -0.0357  0.3222
 1528TIP3    H228780   6.854   0.955  12.709  0.3641  0.5627 -0.0282
 1529TIP3   OH228781   1.355   6.478  10.196 -0.0160 -0.1721  0.6373
 1529TIP3    H128782   1.311   6.556  10.161 -1.7613 -1.6371 -0.6593
 1529TIP3    H228783   1.415   6.451  10.128  0.3492 -0.1550  0.9494
 1530TIP3   OH228784   4.208   3.070  11.171 -0.4921  0.6056  0.5806
 1530TIP3    H128785   4.211   2.989  11.119 -0.1710  1.0375 -0.0879
 1530TIP3    H228786   4.299   3.101  11.172 -0.7133  1.2876  0.2936
 1531TIP3   OH228787   6.013   4.247  10.202  0.3812  0.2964  0.1679
 1531TIP3    H128788   5.967   4.276  10.280  0.2253 -2.0192  1.0161
 1531TIP3    H228789   6.096   4.296  10.203 -0.2950  1.4704  0.8564
 1532TIP3   OH228790   5.167   2.414  12.167  0.0555 -0.1203 -0.1357
 1532TIP3    H128791   5.168   2.378  12.079  0.1228  0.4425 -0.3711
 1532TIP3    H228792   5.077   2.406  12.196 -0.2752  0.9560 -0.7991
 1533TIP3   OH228793   5.168   4.567   9.678 -0.1869 -0.3655 -0.0864
 1533TIP3    H128794   5.223   4.490   9.688 -1.7879 -1.5094  0.2990
 1533TIP3    H228795   5.167   4.584   9.583 -1.7343 -2.3193 -0.4717
 1534TIP3   OH228796   4.732   6.222  11.530  0.2526 -0.1308 -0.2907
 1534TIP3    H128797   4.646   6.261  11.518  0.2952  0.1337  0.2421
 1534TIP3    H228798   4.791   6.296  11.543  0.3842 -0.3520  0.4157
 1535TIP3   OH228799   5.568   1.780  10.573 -0.0614  0.2956 -0.9141
 1535TIP3    H128800   5.564   1.815  10.484 -0.7995 -1.2178 -1.4999
 1535TIP3    H228801   5.576   1.686  10.562  0.1751  0.1088  0.6314
 1536TIP3   OH228802   1.419   5.203  11.828 -0.3129  0.3774  0.3303
 1536TIP3    H128803   1.467   5.237  11.902 -0.3515 -0.3606  0.7081
 1536TIP3    H228804   1.474   5.132  11.794 -0.0860  0.9850 -0.6252
 1537TIP3   OH228805   5.962   0.512  10.604 -0.3267  0.5738 -0.1220
 1537TIP3    H128806   6.004   0.494  10.520  2.3451  0.8221  1.0472
 1537TIP3    H228807   5.978   0.605  10.619 -1.4909  0.7186  0.3217
 1538TIP3   OH228808   6.724   4.667  11.627 -0.0975 -0.4937  0.5455
 1538TIP3    H128809   6.762   4.579  11.616  0.7656  0.0450 -1.0564
 1538TIP3    H228810   6.741   4.711  11.544 -1.1775  0.9619  1.0600
 1539TIP3   OH228811   4.330   5.578  11.607  0.0769 -0.1409 -0.0679
 1539TIP3    H128812   4.305   5.579  11.514 -1.8281  0.2205  0.4049
 1539TIP3    H228813   4.424   5.598  11.607  0.0523  0.1497 -1.8987
 1540TIP3   OH228814   6.297   1.917  10.927  0.2627  0.3679 -0.2256
 1540TIP3    H128815   6.334   1.999  10.960 -0.8954  1.3017 -1.1318
 1540TIP3    H228816   6.311   1.921  10.832  1.4449 -1.1659 -0.1533
 1541TIP3   OH228817   6.251   3.253   9.844  0.0900 -0.0924  0.0906
 1541TIP3    H128818   6.331   3.276   9.890 -0.3864  1.4020  0.2208
 1541TIP3    H228819   6.263   3.291   9.756  0.6517 -2.2127 -0.8079
 1542TIP3   OH228820   2.996   4.537  11.549 -0.3599  0.4160 -0.1370
 1542TIP3    H128821   2.920   4.497  11.592 -1.7352  0.5058 -2.3259
 1542TIP3    H228822   3.032   4.596  11.615 -0.2488 -1.9104  2.0680
 1543TIP3   OH228823   1.873   6.836  12.119 -0.1805  1.0897  0.1330
 1543TIP3    H128824   1.859   6.910  12.179 -0.6111  0.3219  0.9974
 1543TIP3    H228825   1.803   6.846  12.054 -0.1446  1.5328  0.1566
 1544TIP3   OH228826   4.516   0.594  12.930  0.1713  0.1271 -0.4418
 1544TIP3    H128827   4.462   0.673  12.921 -0.5974  0.0743  2.5856
 1544TIP3    H228828   4.473   0.528  12.876 -1.2507  0.8287 -0.2029
 1545TIP3   OH228829   2.003   0.888  11.590  0.3481  0.1179 -0.1377
 1545TIP3    H128830   1.911   0.911  11.581  0.3572  1.2669  2.0441
 1545TIP3    H228831   2.009   0.798  11.558 -1.5148  0.0606 -0.3990
 1546TIP3   OH228832   3.057   1.063  12.786 -0.2971  0.1902  1.0069
 1546TIP3    H128833   3.012   1.102  12.711  1.6402  0.9735  0.2017
 1546TIP3    H228834   3.020   0.975  12.792  0.1054 -0.2136 -1.4390
 1547TIP3   OH228835   4.309   6.755  12.728 -0.0078 -0.2104  0.6284
 1547TIP3    H128836   4.328   6.840  12.768 -0.9542  1.5791 -2.3652
 1547TIP3    H228837   4.225   6.729  12.765  0.2262  0.2072  1.4813
 1548TIP3   OH228838   3.406   2.296  12.885 -0.1160  0.0887 -0.1613
 1548TIP3    H128839   3.385   2.301  12.792 -0.0704 -0.4872 -0.2043
 1548TIP3    H228840   3.405   2.203  12.905  0.6150  0.1565  0.2437
 1549TIP3   OH228841   1.895   1.014  10.505  0.4517 -0.2198  0.2099
 1549TIP3    H128842   1.852   0.982  10.584  0.0528  1.9433  0.9228
 1549TIP3    H228843   1.975   1.057  10.536  0.9846 -0.5253 -0.6969
 1550TIP3   OH228844   2.903   2.603  10.893  0.3697 -0.3269 -0.3322
 1550TIP3    H128845   2.900   2.669  10.962 -3.0654  0.6567 -1.2282
 1550TIP3    H228846   2.872   2.522  10.935 -1.2886  0.1649 -0.5357
 1551TIP3   OH228847   4.985   4.083  12.016 -0.5833  0.3293 -0.1582
 1551TIP3    H128848   4.960   4.001  12.058  0.7378  0.4763  1.0103
 1551TIP3    H228849   4.929   4.149  12.057  0.5856  0.4484  1.3856
 1552TIP3   OH228850   5.643   2.416  10.596  0.1125  0.2393 -0.1192
 1552TIP3    H128851   5.732   2.402  10.629  0.3598 -0.2278 -0.9449
 1552TIP3    H228852   5.632   2.511  10.596  0.8052  0.3354 -0.4675
 1553TIP3   OH228853   6.454   5.740  12.496 -0.3326 -0.5251 -0.3801
 1553TIP3    H128854   6.459   5.718  12.589  1.1592 -0.3002 -0.3730
 1553TIP3    H228855   6.373   5.789  12.486 -1.3044 -1.8716  0.5004
 1554TIP3   OH228856   0.141   0.320  10.423  0.1930 -0.8605  0.2151
 1554TIP3    H128857   0.089   0.397  10.446 -1.1407 -1.8875  0.7904
 1554TIP3    H228858   0.167   0.335  10.332  0.0204  0.2994  0.3427
 1555TIP3   OH228859   0.041   3.346  12.422  0.5509  0.7366  0.1699
 1555TIP3    H128860   0.102   3.419  12.414  1.0879  0.2454 -0.3773
 1555TIP3    H228861   0.013   3.329  12.332  1.2733 -0.4154  0.1398
 1556TIP3   OH228862   5.300   5.473  11.736 -0.2386 -0.0957  0.5006
 1556TIP3    H128863   5.347   5.445  11.658 -0.4697 -1.4780  0.8279
 1556TIP3    H228864   5.264   5.392  11.773  0.1351  0.4846  2.2148
 1557TIP3   OH228865   2.643   5.833   9.616  0.7677  0.5244  0.5517
 1557TIP3    H128866   2.556   5.829   9.654  0.8019 -1.7049  0.5269
 1557TIP3    H228867   2.638   5.905   9.553 -1.2337  0.0832  0.1281
 1558TIP3   OH228868   0.878   2.258  11.112  0.1145 -0.0079  0.1913
 1558TIP3    H128869   0.884   2.197  11.185 -0.7471 -0.3734 -0.0359
 1558TIP3    H228870   0.809   2.319  11.136  0.9726  0.8968  0.4174
 1559TIP3   OH228871   5.157   0.999  10.123  0.0950  0.1549 -0.1145
 1559TIP3    H128872   5.155   1.086  10.161 -0.2760 -0.2850  0.9047
 1559TIP3    H228873   5.160   1.014  10.028 -1.7556  1.2963 -0.0444
 1560TIP3   OH228874   4.473   4.227  11.662 -0.5989 -0.2375  0.4151
 1560TIP3    H128875   4.497   4.277  11.740 -0.5314 -1.4204  1.1732
 1560TIP3    H228876   4.414   4.285  11.614  1.0869  1.3883  0.2026
 1561TIP3   OH228877   1.150   5.567   9.910  0.1957  0.5424 -0.1418
 1561TIP3    H128878   1.177   5.619   9.834  1.4496  0.7938  0.4642
 1561TIP3    H228879   1.182   5.479   9.892 -0.2947  0.3912 -0.3035
 1562TIP3   OH228880   2.528   6.841  11.270 -0.0341  0.4952  0.0768
 1562TIP3    H128881   2.557   6.761  11.313  0.0490  0.4415 -0.0747
 1562TIP3    H228882   2.572   6.912  11.316  1.4747  0.3357 -1.0312
 1563TIP3   OH228883   3.876   6.143  12.047  0.4415 -0.4735 -0.1064
 1563TIP3    H128884   3.832   6.068  12.088  0.2527 -0.4549 -0.2769
 1563TIP3    H228885   3.875   6.211  12.114  0.6299 -0.6267  0.0573
 1564TIP3   OH228886   3.930   2.777  12.250  0.4735  0.0631 -0.4091
 1564TIP3    H128887   4.010   2.822  12.224  2.1263 -1.6968  1.2945
 1564TIP3    H228888   3.904   2.727  12.173  1.2146  0.3692 -0.8677
 1565TIP3   OH228889   0.528   3.380  10.810  0.3549  0.0567  0.2317
 1565TIP3    H128890   0.479   3.460  10.833  1.1645  0.1729  1.6806
 1565TIP3    H228891   0.463   3.324  10.767 -0.1557  1.6047 -1.1253
 1566TIP3   OH228892   3.782   1.222  10.487  0.8806  0.5397 -0.2496
 1566TIP3    H128893   3.780   1.275  10.567  2.5195  0.3900 -0.0794
 1566TIP3    H228894   3.722   1.266  10.427 -0.1984  0.7941  0.9578
 1567TIP3   OH228895   2.812   3.773  10.811 -0.6271 -0.1341  0.3878
 1567TIP3    H128896   2.864   3.697  10.785  0.3794  1.1651 -1.7135
 1567TIP3    H228897   2.857   3.808  10.888 -1.1835 -1.7056  1.4581
 1568TIP3   OH228898   3.771   4.612  12.229 -0.2067  0.2017 -0.0547
 1568TIP3    H128899   3.790   4.554  12.155  0.2494 -0.2512  0.4174
 1568TIP3    H228900   3.845   4.672  12.231  0.0636 -0.1481  0.3933
 1569TIP3   OH228901   6.735   5.878   9.895 -0.3141  0.3525  0.2231
 1569TIP3    H128902   6.642   5.901   9.898 -0.2965  0.6210 -0.8584
 1569TIP3    H228903   6.737   5.790   9.858 -0.1174  0.5385 -0.2174
 1570TIP3   OH228904   2.920   0.634  12.401  0.4155  0.0821  0.0287
 1570TIP3    H128905   2.827   0.639  12.381  0.0662 -0.7667  1.3517
 1570TIP3    H228906   2.963   0.663  12.320 -0.9762  3.4244  0.3452
 1571TIP3   OH228907   5.948   3.490  12.859  0.2815  0.7168 -0.3126
 1571TIP3    H128908   6.013   3.470  12.926  0.1457 -0.8024 -0.5871
 1571TIP3    H228909   5.941   3.585  12.859  1.9336  0.8707  0.2538
 1572TIP3   OH228910   0.973   1.150  13.192 -0.2363 -0.4915 -0.2469
 1572TIP3    H128911   1.049   1.195  13.230  0.5037 -0.4639 -1.6874
 1572TIP3    H228912   0.898   1.185  13.240  0.6093 -0.1938  0.9157
 1573TIP3   OH228913   2.596   2.779  12.306  0.8375  0.2729  0.4902
 1573TIP3    H128914   2.511   2.823  12.313  0.1898 -0.6508 -0.9666
 1573TIP3    H228915   2.591   2.708  12.371 -0.4848 -1.1972 -1.1044
 1574TIP3   OH228916   2.053   4.118  10.226 -0.0079  0.1803  0.2680
 1574TIP3    H128917   1.971   4.157  10.196  0.8449  0.4785 -1.8430
 1574TIP3    H228918   2.047   4.026  10.198 -0.1319 -0.1235  1.2469
 1575TIP3   OH228919   4.431   6.114  11.622 -0.1755 -0.2688 -0.6978
 1575TIP3    H128920   4.461   6.199  11.591  0.3916 -0.3680 -0.4379
 1575TIP3    H228921   4.479   6.051  11.568  0.2392 -0.4329 -0.1466
 1576TIP3   OH228922   6.694   6.191  11.894 -0.9917 -0.1025  0.0670
 1576TIP3    H128923   6.620   6.173  11.952 -1.1697 -2.0597 -0.6739
 1576TIP3    H228924   6.759   6.124  11.917  0.5559  1.4927  0.6189
 1577TIP3   OH228925   6.809   2.261  12.132 -0.4126 -0.0158  0.4650
 1577TIP3    H128926   6.815   2.309  12.214 -2.5737 -0.0273  0.6802
 1577TIP3    H228927   6.723   2.221  12.133  0.3817 -1.9402 -0.7941
 1578TIP3   OH228928   4.390   3.528  12.794 -0.0619 -0.1544 -0.2046
 1578TIP3    H128929   4.358   3.589  12.861 -1.3273  0.1588 -1.0604
 1578TIP3    H228930   4.393   3.580  12.714  0.8122 -0.7000 -0.5403
 1579TIP3   OH228931   1.801   0.706  10.939  0.1045  0.4348  0.5993
 1579TIP3    H128932   1.858   0.639  10.977  0.3314  0.6768  0.6826
 1579TIP3    H228933   1.738   0.656  10.887 -0.1184  0.1156  1.1729
 1580TIP3   OH228934   3.027   5.335  10.381 -0.2232 -0.0860 -0.7843
 1580TIP3    H128935   3.030   5.259  10.323  1.0632 -0.1364 -0.6783
 1580TIP3    H228936   3.039   5.410  10.323 -1.2124  0.0272 -0.8545
 1581TIP3   OH228937   2.847   4.481   9.789 -0.2949 -0.1818  0.7157
 1581TIP3    H128938   2.897   4.414   9.742  0.5927  0.8166  0.1941
 1581TIP3    H228939   2.778   4.507   9.729  1.7247  2.1718 -0.7771
 1582TIP3   OH228940   0.350   6.702  10.668 -0.5204 -0.6911 -0.0496
 1582TIP3    H128941   0.302   6.775  10.629 -1.8967 -1.2736  0.4804
 1582TIP3    H228942   0.283   6.636  10.685 -0.0628 -0.4685  3.3331
 1583TIP3   OH228943   0.368   1.424  11.193  0.1947 -0.1578 -0.2822
 1583TIP3    H128944   0.345   1.375  11.114 -0.3726  0.1473 -0.3102
 1583TIP3    H228945   0.287   1.430  11.242  0.1019  1.2793 -0.5705
 1584TIP3   OH228946   0.864   5.104  12.654 -0.2953  0.2250  0.4066
 1584TIP3    H128947   0.833   5.027  12.702 -0.9934  1.0625  1.3342
 1584TIP3    H228948   0.785   5.139  12.611 -0.0083  0.4870  0.0851
 1585TIP3   OH228949   4.122   5.542   9.829  0.0108  0.5314 -0.7506
 1585TIP3    H128950   4.074   5.471   9.788  0.8831 -1.1340  0.9854
 1585TIP3    H228951   4.057   5.611   9.843 -0.9691 -0.1236 -1.9170
 1586TIP3   OH228952   0.930   1.524   9.923 -0.0389  0.1597  0.0361
 1586TIP3    H128953   0.885   1.586   9.865  0.9038  1.5377  0.7031
 1586TIP3    H228954   0.906   1.438   9.890 -1.1881  0.8829 -1.1072
 1587TIP3   OH228955   0.737   4.846  10.764  0.1679 -0.3783  0.4365
 1587TIP3    H128956   0.751   4.901  10.687  0.4205 -0.1520  0.6449
 1587TIP3    H228957   0.810   4.784  10.763 -0.4248 -1.0900 -0.1213
 1588TIP3   OH228958   2.958   4.561  10.357 -0.3476  0.3594  0.1819
 1588TIP3    H128959   2.946   4.548  10.263 -1.7163  0.0938  0.3590
 1588TIP3    H228960   2.883   4.614  10.383 -0.1976  0.0998  1.1874
 1589TIP3   OH228961   0.462   5.510  12.419  0.3673  0.1181  0.2736
 1589TIP3    H128962   0.518   5.576  12.459 -0.2195  1.6385 -1.2884
 1589TIP3    H228963   0.480   5.516  12.325 -2.2330  0.5589 -0.2667
 1590TIP3   OH228964   3.511   1.861  10.667  0.4286 -0.3104 -0.0044
 1590TIP3    H128965   3.462   1.795  10.716 -0.9829 -0.0329 -0.9820
 1590TIP3    H228966   3.513   1.938  10.724 -0.6862 -0.1828 -0.1188
 1591TIP3   OH228967   2.816   4.060  12.869  0.1352  0.3195 -0.2206
 1591TIP3    H128968   2.812   4.004  12.947 -0.2401 -0.0288 -0.4836
 1591TIP3    H228969   2.904   4.046  12.833  0.1446  0.1179 -0.1215
 1592TIP3   OH228970   4.818   0.532  11.227  0.3873  0.1198 -0.5178
 1592TIP3    H128971   4.790   0.618  11.197  1.4501  0.2824 -1.0504
 1592TIP3    H228972   4.736   0.481  11.233 -0.3015  1.2771  0.2286
 1593TIP3   OH228973   2.269   1.771  11.564 -0.1739 -0.2888 -0.0267
 1593TIP3    H128974   2.255   1.827  11.487  1.9654 -1.6954 -1.5460
 1593TIP3    H228975   2.219   1.692  11.544  0.6379 -0.7801 -0.1403
 1594TIP3   OH228976   6.382   1.664  12.524  0.0435  0.2936  0.2146
 1594TIP3    H128977   6.423   1.583  12.553  0.9205  0.4064 -0.6774
 1594TIP3    H228978   6.296   1.637  12.492 -0.1092 -0.1161  0.9356
 1595TIP3   OH228979   6.752   2.771  11.460  0.3114  0.5050  0.7268
 1595TIP3    H128980   6.671   2.723  11.480  0.4875  0.3424  1.0601
 1595TIP3    H228981   6.738   2.858  11.496  1.1334 -0.1514  2.8221
 1596TIP3   OH228982   0.282   3.080   9.760 -0.3293 -0.5168  0.3534
 1596TIP3    H128983   0.329   2.997   9.765 -1.6771 -1.2605  1.2487
 1596TIP3    H228984   0.324   3.136   9.825  0.1477 -0.7075  0.2137
 1597TIP3   OH228985   1.260   6.328  11.901  0.8152 -0.3316  0.2567
 1597TIP3    H128986   1.165   6.339  11.909  0.5116 -2.8588  0.8621
 1597TIP3    H228987   1.272   6.244  11.858  2.8346  0.8024 -1.6256
 1598TIP3   OH228988   0.491   0.495  12.492  0.3584  0.5529  0.4237
 1598TIP3    H128989   0.469   0.572  12.439  1.9524 -1.7988 -4.2404
 1598TIP3    H228990   0.406   0.458  12.516 -0.8373 -0.2809 -4.1539
 1599TIP3   OH228991   4.551   0.814  12.192  0.0091 -0.1755  0.3142
 1599TIP3    H128992   4.527   0.838  12.282 -0.5361 -0.4837  0.2508
 1599TIP3    H228993   4.547   0.719  12.190 -1.1284 -0.1340 -0.3429
 1600TIP3   OH228994   6.651   4.164  12.175 -0.0695  0.2224 -0.0183
 1600TIP3    H128995   6.736   4.131  12.204 -1.0108 -0.1163  2.6798
 1600TIP3    H228996   6.665   4.257  12.160  0.8108  0.1416  0.2645
 1601TIP3   OH228997   1.986   1.934  12.256 -0.2023  1.0242  0.5703
 1601TIP3    H128998   2.043   2.001  12.293  1.4426  1.1741 -1.9861
 1601TIP3    H228999   2.038   1.892  12.188 -2.1869 -0.8777  0.0764
 1602TIP3   OH229000   2.437   0.184  10.489 -0.2607  0.5058 -0.2973
 1602TIP3    H129001   2.430   0.117  10.422  0.5197  0.5321 -0.4203
 1602TIP3    H229002   2.358   0.237  10.480 -0.4488  0.1421 -0.7884
 1603TIP3   OH229003   5.513   4.631  11.794  1.0775  0.2736 -0.0962
 1603TIP3    H129004   5.440   4.683  11.761 -0.7731 -0.4892  2.4483
 1603TIP3    H229005   5.476   4.544  11.808  2.3172 -0.0337  1.6253
 1604TIP3   OH229006   1.814   0.903  10.743  0.3140  0.2535 -0.1369
 1604TIP3    H129007   1.839   0.812  10.755 -0.5162 -0.0377 -0.5583
 1604TIP3    H229008   1.836   0.945  10.826 -1.7073 -0.8790  1.0354
 1605TIP3   OH229009   5.288   6.115  10.846  0.1307  0.8908 -0.4521
 1605TIP3    H129010   5.347   6.046  10.817 -2.5424 -1.4985 -0.6263
 1605TIP3    H229011   5.332   6.155  10.921  1.7959 -0.9686 -0.3591
 1606TIP3   OH229012   5.695   5.978  12.683 -0.1083 -0.3145 -0.0691
 1606TIP3    H129013   5.744   5.905  12.720  0.6140 -0.8221 -1.8950
 1606TIP3    H229014   5.761   6.044  12.662 -0.4600 -0.1295 -0.6254
 1607TIP3   OH229015   0.353   4.643  12.327  0.0891 -0.3238  0.1638
 1607TIP3    H129016   0.306   4.727  12.332  1.0295  0.1662  1.4799
 1607TIP3    H229017   0.285   4.577  12.341 -0.9160  0.0848 -2.3039
 1608TIP3   OH229018   0.992   1.038  11.219  0.4569  0.1864  0.2970
 1608TIP3    H129019   1.042   1.019  11.140  1.4008  0.9980  0.6833
 1608TIP3    H229020   1.058   1.054  11.286 -0.3118 -1.3431  1.4926
 1609TIP3   OH229021   2.614   0.262  12.067  0.0308  0.0310 -0.2022
 1609TIP3    H129022   2.522   0.267  12.043  0.0679 -1.5439 -0.7740
 1609TIP3    H229023   2.618   0.191  12.131  1.2108 -1.9497 -2.3303
 1610TIP3   OH229024   4.344   4.567  11.609 -0.2997  0.2110 -0.0470
 1610TIP3    H129025   4.307   4.611  11.686 -1.4519 -2.5205  1.0918
 1610TIP3    H229026   4.438   4.561  11.628 -0.4400  0.3453  0.7413
 1611TIP3   OH229027   2.307   0.711  12.613  0.4140  0.0813  0.6667
 1611TIP3    H129028   2.379   0.648  12.610 -0.1870 -0.6196  0.5276
 1611TIP3    H229029   2.298   0.742  12.523 -1.5562 -2.3189 -0.0938
 1612TIP3   OH229030   4.711   1.564   9.842  0.2374  0.1183 -0.0232
 1612TIP3    H129031   4.796   1.520   9.840  1.0688  1.6145  1.1735
 1612TIP3    H229032   4.654   1.502   9.887  0.6389 -0.9376 -0.9110
 1613TIP3   OH229033   0.789   0.908  11.342 -0.0026 -0.1705  0.3633
 1613TIP3    H129034   0.858   0.971  11.321  0.1357 -0.1454  0.8719
 1613TIP3    H229035   0.735   0.905  11.263  0.3498  0.1113  0.1038
 1614TIP3   OH229036   5.417   3.516  10.651  0.4233 -0.5786 -0.1817
 1614TIP3    H129037   5.340   3.530  10.706 -0.5528  2.4829 -2.0887
 1614TIP3    H229038   5.491   3.528  10.711 -0.5504 -0.8223  1.1239
 1615TIP3   OH229039   0.719   5.803  12.010  0.2048  0.1726  0.0777
 1615TIP3    H129040   0.733   5.846  12.095  4.3270  0.8614 -0.7215
 1615TIP3    H229041   0.688   5.874  11.953 -0.9898  0.0855  0.5904
 1616TIP3   OH229042   6.316   4.954  12.463  0.2466 -0.8135 -0.2039
 1616TIP3    H129043   6.277   4.891  12.525 -0.2634 -1.6064 -1.2961
 1616TIP3    H229044   6.243   4.978  12.405  0.4984  0.6273  0.0568
 1617TIP3   OH229045   5.821   0.879  11.971 -0.1765 -0.3375  0.0381
 1617TIP3    H129046   5.887   0.868  12.040  0.1342  0.2553 -0.1652
 1617TIP3    H229047   5.869   0.868  11.889 -0.1884  0.7683 -0.1292
 1618TIP3   OH229048   2.188   0.217  13.117 -0.5667 -0.0894 -0.0998
 1618TIP3    H129049   2.110   0.273  13.116 -0.7681 -0.3623  0.2817
 1618TIP3    H229050   2.258   0.274  13.085 -0.4015  0.9569  1.9152
 1619TIP3   OH229051   4.231   0.174   9.633  0.6840 -0.1948  0.0818
 1619TIP3    H129052   4.139   0.147   9.635  0.2643  1.0411 -1.0663
 1619TIP3    H229053   4.230   0.266   9.659  1.4951  0.0417 -0.6529
 1620TIP3   OH229054   3.217   5.310  10.576  0.4343  0.5020 -0.5086
 1620TIP3    H129055   3.141   5.325  10.520 -0.9691  0.9413  1.4103
 1620TIP3    H229056   3.273   5.252  10.525 -1.4221 -0.2639 -1.7991
 1621TIP3   OH229057   4.178   3.343   9.974 -0.0486  0.0616 -0.0808
 1621TIP3    H129058   4.165   3.264   9.921 -0.6637 -0.3065  0.6011
 1621TIP3    H229059   4.272   3.342   9.994  0.1400  0.0639 -0.9333
 1622TIP3   OH229060   4.440   4.450  11.901  0.5280 -0.1036  0.0994
 1622TIP3    H129061   4.533   4.469  11.909  0.4306  0.1647  0.5860
 1622TIP3    H229062   4.399   4.536  11.886  0.3661 -0.2294 -0.1995
 1623TIP3   OH229063   6.419   3.865  11.460  0.2260 -0.3592  1.0545
 1623TIP3    H129064   6.327   3.875  11.433  0.7355 -1.9517 -1.6520
 1623TIP3    H229065   6.469   3.903  11.388  1.7189  0.1324  2.3116
 1624TIP3   OH229066   6.322   3.285  11.514 -0.5056  0.4028 -0.0626
 1624TIP3    H129067   6.327   3.374  11.478  1.4000 -0.1449 -1.2863
 1624TIP3    H229068   6.270   3.236  11.450 -0.0268  0.2278 -0.3220
 1625TIP3   OH229069   6.649   0.558  13.164  0.0208 -0.2747 -0.3881
 1625TIP3    H129070   6.616   0.644  13.189 -0.1311 -0.1025 -1.1649
 1625TIP3    H229071   6.743   0.563  13.180 -0.2261 -0.6710  1.5578
 1626TIP3   OH229072   4.746   0.563  10.550 -0.1871 -0.3842 -0.3818
 1626TIP3    H129073   4.809   0.493  10.567  0.4337 -0.4467 -2.5867
 1626TIP3    H229074   4.680   0.523  10.492 -1.4951  0.0680  0.7360
 1627TIP3   OH229075   5.463   1.500  11.952 -0.0850 -0.2463  0.1996
 1627TIP3    H129076   5.467   1.416  11.906  1.4623  0.6157 -1.4052
 1627TIP3    H229077   5.373   1.531  11.939 -0.1579 -0.8322 -0.8123
 1628TIP3   OH229078   4.566   0.992  12.907  0.0669 -0.0265 -0.1766
 1628TIP3    H129079   4.633   0.946  12.958  0.1933  0.5285  0.1719
 1628TIP3    H229080   4.491   0.933  12.908 -0.1017  0.1693  1.0914
 1629TIP3   OH229081   0.878   5.280  13.062  0.1801  0.1091  0.0795
 1629TIP3    H129082   0.970   5.278  13.035 -0.1240  0.1722 -0.9791
 1629TIP3    H229083   0.856   5.188  13.078  0.4616  0.1087  0.4960
 1630TIP3   OH229084   4.826   4.191  12.757  0.1944  0.7123 -0.2692
 1630TIP3    H129085   4.837   4.096  12.754  1.1675  0.8108 -0.0592
 1630TIP3    H229086   4.843   4.214  12.849  1.2933  1.2430 -0.5995
 1631TIP3   OH229087   0.472   0.672  12.903  0.1971  0.6194 -0.2666
 1631TIP3    H129088   0.415   0.722  12.962  2.5304  1.2023  1.6496
 1631TIP3    H229089   0.499   0.596  12.954 -1.0661 -1.1985 -2.1626
 1632TIP3   OH229090   0.104   4.931  10.781  0.1407  0.0268  0.8479
 1632TIP3    H129091   0.125   4.971  10.866  0.4180 -1.0897  1.3238
 1632TIP3    H229092   0.020   4.970  10.756  0.1439  0.5045  1.5474
 1633TIP3   OH229093   4.976   1.393  12.083 -0.1450 -0.0674 -0.2698
 1633TIP3    H129094   4.885   1.372  12.103 -0.5105  0.9553 -0.7993
 1633TIP3    H229095   5.010   1.314  12.042 -1.5727  0.3649 -2.4941
 1634TIP3   OH229096   4.251   6.139  12.840  0.4985  0.2197 -0.3542
 1634TIP3    H129097   4.302   6.187  12.775 -0.9169 -1.6820 -3.0596
 1634TIP3    H229098   4.233   6.204  12.908  0.3726  2.9802 -2.7987
 1635TIP3   OH229099   1.070   0.316  10.870  0.0977  1.0194  0.4419
 1635TIP3    H129100   1.164   0.329  10.881  0.4641 -0.9891  0.1229
 1635TIP3    H229101   1.037   0.301  10.959  0.7200 -1.6815  0.2970
 1636TIP3   OH229102   4.069   2.931  10.637 -0.5666  0.0871  0.0641
 1636TIP3    H129103   3.990   2.902  10.592 -1.4964  2.6205 -0.0787
 1636TIP3    H229104   4.106   2.999  10.581 -0.3439  1.5418  1.8798
 1637TIP3   OH229105   2.065   1.066  12.789 -0.0502 -0.6024  0.1363
 1637TIP3    H129106   1.970   1.056  12.787  0.0529 -2.3635  1.5066
 1637TIP3    H229107   2.079   1.160  12.796 -1.7044 -0.3386  0.3105
 1638TIP3   OH229108   1.707   2.531  11.303  0.4903 -0.0658  0.6751
 1638TIP3    H129109   1.749   2.530  11.389 -0.4282  0.7318  1.1672
 1638TIP3    H229110   1.616   2.507  11.321  0.8726 -2.7007 -0.4866
 1639TIP3   OH229111   2.655   1.093  11.868 -0.7004  0.3397 -0.4697
 1639TIP3    H129112   2.563   1.079  11.892 -0.2766  0.8030  1.7046
 1639TIP3    H229113   2.661   1.187  11.853 -0.3011  0.5589  0.9324
 1640TIP3   OH229114   2.957   1.369  12.398  0.1839  0.5122  0.1618
 1640TIP3    H129115   2.866   1.393  12.387  0.4930  2.3698  1.2412
 1640TIP3    H229116   2.973   1.379  12.492  1.6661  0.8928 -0.1014
 1641TIP3   OH229117   2.255   6.690  11.162  0.5805 -0.0274 -0.9334
 1641TIP3    H129118   2.300   6.695  11.078  3.1351 -3.4772  0.0134
 1641TIP3    H229119   2.324   6.702  11.227 -0.8379 -0.2278  0.6765
 1642TIP3   OH229120   3.348   4.494  12.307  0.5962 -0.5151 -0.1984
 1642TIP3    H129121   3.412   4.476  12.238  1.9153 -0.7117  1.0478
 1642TIP3    H229122   3.351   4.418  12.364  0.1314  0.0100  0.5491
 1643TIP3   OH229123   0.303   4.702  11.296 -0.0169 -0.3044  0.3670
 1643TIP3    H129124   0.380   4.715  11.241  0.0213 -2.8952 -0.3153
 1643TIP3    H229125   0.332   4.723  11.385  0.1686  3.0760 -0.3786
 1644TIP3   OH229126   6.334   1.879  10.664 -0.1386  0.7603  0.2614
 1644TIP3    H129127   6.404   1.929  10.622 -0.0455  1.0061  0.7039
 1644TIP3    H229128   6.370   1.790  10.672 -0.3499  0.5803 -0.6353
 1645TIP3   OH229129   5.707   2.938  10.198 -0.0853 -0.5568  0.6989
 1645TIP3    H129130   5.682   2.981  10.116  0.6530 -0.3517  0.5784
 1645TIP3    H229131   5.768   2.870  10.172  0.2012 -0.4513  1.0854
 1646TIP3   OH229132   5.296   0.705   9.655 -0.1358 -0.2643  0.3983
 1646TIP3    H129133   5.230   0.755   9.703  0.0782 -0.4472  0.8885
 1646TIP3    H229134   5.249   0.669   9.580 -0.0063  1.7750 -0.7397
 1647TIP3   OH229135   5.459   4.174  11.717  0.8427 -0.3568 -0.0785
 1647TIP3    H129136   5.474   4.243  11.780  0.1668  1.1362 -1.4808
 1647TIP3    H229137   5.461   4.218  11.632 -1.7036 -1.6446 -0.9096
 1648TIP3   OH229138   5.656   3.641   9.934  0.5657 -0.4332 -0.1526
 1648TIP3    H129139   5.671   3.584   9.859  0.7566  0.5135 -0.8550
 1648TIP3    H229140   5.667   3.730   9.899  1.5104  0.0032  1.1889
 1649TIP3   OH229141   0.915   4.610  12.013  0.0217  0.7208 -0.2408
 1649TIP3    H129142   0.900   4.623  12.107  1.9254  1.0963  0.0650
 1649TIP3    H229143   0.977   4.679  11.990  0.1093  0.1989 -1.6215
 1650TIP3   OH229144   1.394   5.273  11.114  0.1503 -0.4057 -0.3699
 1650TIP3    H129145   1.398   5.178  11.114 -2.3348 -0.5973  0.4316
 1650TIP3    H229146   1.300   5.293  11.113  0.5192  2.0014  1.4840
 1651TIP3   OH229147   5.345   5.594  11.443 -0.0140 -0.3276 -0.2030
 1651TIP3    H129148   5.254   5.571  11.464 -0.0420 -0.7378 -0.7602
 1651TIP3    H229149   5.381   5.516  11.401  0.2579  0.2177 -1.0032
 1652TIP3   OH229150   6.706   2.830  11.845 -0.5407 -0.3641  0.0060
 1652TIP3    H129151   6.750   2.902  11.800 -1.0715 -1.8227 -3.1415
 1652TIP3    H229152   6.628   2.870  11.884 -0.0089  1.0211 -0.2963
 1653TIP3   OH229153   2.984   4.100  10.018 -0.1708  0.3166  0.1429
 1653TIP3    H129154   2.909   4.041  10.023  0.0062 -0.1833 -2.1202
 1653TIP3    H229155   3.057   4.051  10.056 -0.2669 -0.5208 -0.7319
 1654TIP3   OH229156   3.849   0.975  12.310  0.0546  1.3490  0.2009
 1654TIP3    H129157   3.855   1.014  12.398 -1.1641  0.6278  0.6403
 1654TIP3    H229158   3.755   0.975  12.292  0.1770  0.1405 -0.4798
 1655TIP3   OH229159   3.903   2.579   9.698 -0.6821  0.9967 -0.0583
 1655TIP3    H129160   3.876   2.512   9.636  0.8760  2.4039 -2.3950
 1655TIP3    H229161   3.995   2.595   9.678 -1.1045  4.1282  0.1003
 1656TIP3   OH229162   1.499   5.138  11.445 -0.2290  1.0608  0.2355
 1656TIP3    H129163   1.435   5.136  11.515 -0.0504  1.7435  0.4318
 1656TIP3    H229164   1.453   5.104  11.369 -0.6556  1.0257  0.5097
 1657TIP3   OH229165   5.455   5.719  12.463 -0.2470 -0.8262 -0.2278
 1657TIP3    H129166   5.488   5.713  12.374  0.2775 -1.8312  0.0212
 1657TIP3    H229167   5.363   5.745  12.453  0.1419  0.3413 -0.9888
 1658TIP3   OH229168   1.046   1.842  13.067  0.7958 -0.5255  0.1435
 1658TIP3    H129169   1.032   1.937  13.071 -1.1370 -0.8081  1.8303
 1658TIP3    H229170   1.080   1.827  12.979 -1.7005  1.4536 -1.3069
 1659TIP3   OH229171   2.880   4.063  11.786  0.4602  0.4962 -0.1911
 1659TIP3    H129172   2.942   3.991  11.799  1.5919  1.3988 -0.3992
 1659TIP3    H229173   2.929   4.127  11.734 -0.9618  0.8511 -1.1234
 1660TIP3   OH229174   0.525   4.085  11.829 -0.0194  0.6249 -0.1629
 1660TIP3    H129175   0.535   4.180  11.828  1.2108  0.5135 -1.0330
 1660TIP3    H229176   0.464   4.066  11.757  0.5083  0.7024 -0.6412
 1661TIP3   OH229177   2.912   3.493  12.212  0.0040 -0.1703  0.4991
 1661TIP3    H129178   2.920   3.437  12.135  0.4334  1.6958 -0.8918
 1661TIP3    H229179   2.995   3.541  12.216 -0.0602 -0.1325  2.0674
 1662TIP3   OH229180   0.848   1.300  12.031 -0.4352 -0.7723  0.0564
 1662TIP3    H129181   0.829   1.393  12.021 -1.5442 -1.1503 -1.9116
 1662TIP3    H229182   0.854   1.286  12.126  0.5510  1.4209  0.3610
 1663TIP3   OH229183   2.540   4.612  12.123  0.4600 -0.7167 -0.4486
 1663TIP3    H129184   2.485   4.587  12.049  0.0198 -1.2151  0.0424
 1663TIP3    H229185   2.480   4.654  12.185  0.8773 -0.0408 -0.4909
 1664TIP3   OH229186   5.693   2.402  12.745  0.1648  0.2316 -0.1599
 1664TIP3    H129187   5.661   2.315  12.770 -0.3707  0.3519 -0.4215
 1664TIP3    H229188   5.785   2.388  12.722 -0.6358 -0.8546 -3.1030
 1665TIP3   OH229189   0.359   0.839  13.108 -0.0667 -0.6318 -0.1668
 1665TIP3    H129190   0.264   0.833  13.119 -0.2837 -0.3430 -1.6727
 1665TIP3    H229191   0.384   0.913  13.164 -0.9325  0.1289 -0.7464
 1666TIP3   OH229192   0.573   2.906  11.156 -0.5289 -0.0995  0.0190
 1666TIP3    H129193   0.533   2.978  11.204  0.6099  1.1353 -0.8049
 1666TIP3    H229194   0.567   2.933  11.064 -0.7022 -1.3927 -0.3701
 1667TIP3   OH229195   6.061   2.722  10.713 -0.2789  0.2189 -0.2585
 1667TIP3    H129196   6.070   2.814  10.739 -1.0133  0.8023 -1.9297
 1667TIP3    H229197   6.014   2.725  10.629 -0.3569 -1.6892 -0.3282
 1668TIP3   OH229198   6.372   0.008  11.860 -0.5517  0.4449  0.0502
 1668TIP3    H129199   6.431   0.077  11.832 -0.2175 -0.2961 -1.1624
 1668TIP3    H229200   6.336   0.038  11.944  1.4823  0.9495  0.7918
 1669TIP3   OH229201   6.127   4.868  10.515 -0.2859 -0.3515 -0.5027
 1669TIP3    H129202   6.095   4.886  10.604  0.6152  0.1064 -0.2560
 1669TIP3    H229203   6.048   4.847  10.465 -0.9722  0.7350  0.0817
 1670TIP3   OH229204   2.116   5.835  11.534  0.1711 -0.0945 -0.5188
 1670TIP3    H129205   2.161   5.916  11.558 -0.8276  0.2273  0.3700
 1670TIP3    H229206   2.186   5.771  11.524  0.7817 -0.2575  3.3108
 1671TIP3   OH229207   2.136   2.553  10.686 -0.5722 -0.0267  0.3277
 1671TIP3    H129208   2.193   2.619  10.727  2.3072 -2.3171  0.3396
 1671TIP3    H229209   2.124   2.585  10.597  1.5291  0.1816  0.0526
 1672TIP3   OH229210   3.793   3.890  13.276  0.1283  0.3777 -0.0888
 1672TIP3    H129211   3.820   3.821  13.337  0.4985  0.5728 -0.0235
 1672TIP3    H229212   3.745   3.845  13.207  0.9259 -0.0299 -0.3867
 1673TIP3   OH229213   1.396   3.316  12.560  0.5234  0.1986 -0.1342
 1673TIP3    H129214   1.342   3.302  12.483 -0.2783  0.9704  0.2584
 1673TIP3    H229215   1.447   3.395  12.540 -0.0198  0.6688  0.2788
 1674TIP3   OH229216   4.640   1.223  11.327  0.0392 -0.2271 -0.1758
 1674TIP3    H129217   4.722   1.269  11.346 -0.7517  0.6658  1.2060
 1674TIP3    H229218   4.595   1.279  11.265 -0.5297  0.4753  0.8359
 1675TIP3   OH229219   6.642   1.919  12.967 -0.4238  0.0980 -0.0513
 1675TIP3    H129220   6.629   1.995  13.025 -3.6142  0.2960 -0.8095
 1675TIP3    H229221   6.626   1.953  12.879  0.1281 -1.0463 -0.6158
 1676TIP3   OH229222   0.239   4.000  10.510 -0.6605  0.5054 -0.0581
 1676TIP3    H129223   0.323   4.012  10.554  0.1825 -0.3965 -1.3264
 1676TIP3    H229224   0.194   4.084  10.520 -0.2499  0.5404  1.8956
 1677TIP3   OH229225   4.867   4.633  12.807 -0.6599  0.3056  0.0756
 1677TIP3    H129226   4.907   4.576  12.873 -0.4385 -1.0824 -1.1834
 1677TIP3    H229227   4.781   4.655  12.842 -0.7833 -0.8890  0.5809
 1678TIP3   OH229228   6.031   3.971  11.722  0.3740  0.0639  0.1500
 1678TIP3    H129229   6.100   3.906  11.706  0.7054  0.6446 -0.9128
 1678TIP3    H229230   5.988   3.981  11.637 -0.5850  0.2059  0.6448
 1679TIP3   OH229231   3.603   6.821  12.878  0.1027 -0.4019 -0.2150
 1679TIP3    H129232   3.592   6.878  12.802 -2.6925  0.1742  0.5046
 1679TIP3    H229233   3.658   6.872  12.938  0.2715  0.1870 -0.8520
 1680TIP3   OH229234   4.538   1.887  12.962  0.4327 -0.2062  0.3213
 1680TIP3    H129235   4.503   1.901  13.050 -1.3602 -0.0788 -0.3676
 1680TIP3    H229236   4.633   1.890  12.973  0.2422  0.2331  2.1719
 1681TIP3   OH229237   4.930   0.966  10.682 -0.6017 -0.1240 -0.0584
 1681TIP3    H129238   4.946   0.982  10.589 -0.2985 -0.6250 -0.0948
 1681TIP3    H229239   4.986   1.029  10.727 -1.1513  0.4872 -0.2127
 1682TIP3   OH229240   2.855   2.646  12.239 -0.1053 -0.2894 -0.2303
 1682TIP3    H129241   2.773   2.690  12.262  0.5197 -0.1649  1.9281
 1682TIP3    H229242   2.912   2.662  12.313  1.1351 -2.2972 -0.6897
 1683TIP3   OH229243   3.678   1.343  10.242  0.1033  0.2432 -0.3085
 1683TIP3    H129244   3.734   1.289  10.186  1.1622  1.1666 -0.1675
 1683TIP3    H229245   3.699   1.433  10.219 -0.0633  0.6344  0.9543
 1684TIP3   OH229246   1.066   0.183   9.579  0.0260  0.2039 -0.5853
 1684TIP3    H129247   0.994   0.125   9.603  0.9665 -0.6262  0.3423
 1684TIP3    H229248   1.136   0.123   9.553  0.8719  0.9375 -0.0414
 1685TIP3   OH229249   1.118   4.232  10.647 -0.2314 -0.9516  0.0533
 1685TIP3    H129250   1.125   4.238  10.552 -0.3146  1.0264  0.1327
 1685TIP3    H229251   1.041   4.283  10.669  0.3413 -0.5716  1.2551
 1686TIP3   OH229252   2.186   5.617  11.144 -0.7006 -0.1935 -0.1593
 1686TIP3    H129253   2.120   5.549  11.155  0.9402 -1.6523  1.0974
 1686TIP3    H229254   2.267   5.569  11.127  0.7854  1.3257  2.1235
 1687TIP3   OH229255   2.528   1.162  11.179 -0.6160  0.1338  0.0238
 1687TIP3    H129256   2.508   1.243  11.226 -1.0743  0.3832 -0.5909
 1687TIP3    H229257   2.618   1.141  11.205 -1.2025 -0.3402  1.8838
 1688TIP3   OH229258   0.085   0.148  12.968 -0.8595  0.7731  0.0798
 1688TIP3    H129259   0.113   0.237  12.948  0.8077  0.2408 -0.1684
 1688TIP3    H229260  -0.010   0.152  12.973 -0.7558  2.7574  1.0677
 1689TIP3   OH229261   2.795   6.537  12.410 -0.3057  0.1433 -0.2788
 1689TIP3    H129262   2.725   6.478  12.439  0.6589 -0.9783 -0.1743
 1689TIP3    H229263   2.800   6.604  12.479 -0.5852 -0.3473  0.2226
 1690TIP3   OH229264   6.736   5.696  10.218  0.3002  0.4149  0.0723
 1690TIP3    H129265   6.681   5.631  10.174  0.5335 -0.1608  0.6093
 1690TIP3    H229266   6.825   5.668  10.200  0.4017 -0.0657  1.2242
 1691TIP3   OH229267   6.782   1.332  11.348 -0.3081 -0.0547 -0.1073
 1691TIP3    H129268   6.745   1.365  11.430 -1.6302  0.6258 -0.9302
 1691TIP3    H229269   6.719   1.266  11.318  0.0472 -0.1403 -0.6817
 1692TIP3   OH229270   0.181   2.300  10.206  0.3949 -0.6011 -0.3302
 1692TIP3    H129271   0.126   2.271  10.279  0.3134 -1.6517 -0.7980
 1692TIP3    H229272   0.145   2.256  10.129  0.5053  0.4644 -1.0207
 1693TIP3   OH229273   6.202   3.604  10.746  0.1528  0.5034 -0.8693
 1693TIP3    H129274   6.236   3.530  10.697  0.2256  0.7173 -1.1403
 1693TIP3    H229275   6.132   3.566  10.800  0.4816  0.1598 -0.6827
 1694TIP3   OH229276   3.981   3.684  12.668  0.0217 -0.3472 -0.5174
 1694TIP3    H129277   4.033   3.745  12.720 -1.1234 -0.2713  0.5863
 1694TIP3    H229278   3.919   3.740  12.620 -1.3873 -0.6186  0.9011
 1695TIP3   OH229279   6.787   3.226  13.085  0.3847  0.1254  0.2427
 1695TIP3    H129280   6.835   3.216  13.167  2.0403  0.2131 -0.6688
 1695TIP3    H229281   6.822   3.157  13.028 -0.1977  0.5391 -0.6397
 1696TIP3   OH229282   1.180   1.618  10.010  0.4576 -0.5071 -0.4061
 1696TIP3    H129283   1.235   1.543  10.033 -1.3658 -1.6517  0.4743
 1696TIP3    H229284   1.093   1.580   9.994 -0.3302  1.3306 -0.7613
 1697TIP3   OH229285   1.652   6.712  12.006 -0.1591 -0.0945  0.8255
 1697TIP3    H129286   1.664   6.632  12.056  1.1695 -0.6280 -0.2856
 1697TIP3    H229287   1.576   6.695  11.951  0.0159 -0.5346  0.7161
 1698TIP3   OH229288   5.540   0.658  11.235 -0.3983 -0.1577 -0.1039
 1698TIP3    H129289   5.543   0.562  11.228 -0.9997 -0.2527  0.7572
 1698TIP3    H229290   5.554   0.689  11.145  1.7851 -0.9772 -0.1016
 1699TIP3   OH229291   2.458   4.522  12.734 -0.2416  0.1085  0.0850
 1699TIP3    H129292   2.521   4.495  12.801  0.5571  1.4316 -0.0944
 1699TIP3    H229293   2.385   4.461  12.744  1.3348 -1.9251 -0.1522
 1700TIP3   OH229294   2.855   0.347  12.178  0.3592 -0.4115 -0.1499
 1700TIP3    H129295   2.928   0.367  12.119 -0.1266 -0.2280 -0.6948
 1700TIP3    H229296   2.781   0.330  12.120 -0.0889 -0.3896  0.4059
 1701TIP3   OH229297   5.697   0.832  11.397  0.1607  0.1370  0.3814
 1701TIP3    H129298   5.644   0.762  11.358  0.6391  0.1097 -0.2337
 1701TIP3    H229299   5.786   0.795  11.401  0.2926  0.4770  0.6486
 1702TIP3   OH229300   1.541   3.777  12.600 -0.0926  0.8422  0.1344
 1702TIP3    H129301   1.591   3.787  12.681 -0.1790  2.0193  0.0500
 1702TIP3    H229302   1.556   3.858  12.552  2.0447 -0.7803 -2.2155
 1703TIP3   OH229303   3.906   2.215  11.071  0.4817  0.0779 -0.1761
 1703TIP3    H129304   3.958   2.211  11.151 -0.1594 -0.2958  0.2254
 1703TIP3    H229305   3.881   2.124  11.053 -0.0829  0.2596 -0.3308
 1704TIP3   OH229306   6.822   4.112  10.700  0.0818 -0.1996 -0.1088
 1704TIP3    H129307   6.908   4.112  10.743 -1.4672  0.8950  3.2802
 1704TIP3    H229308   6.799   4.204  10.692  0.0806 -0.3621 -3.1181
 1705TIP3   OH229309   2.290   5.930  13.131 -0.5645 -0.2657  0.6174
 1705TIP3    H129310   2.236   5.958  13.205 -0.7851  0.6785  0.1117
 1705TIP3    H229311   2.275   5.835  13.125 -1.0877 -0.2353  1.3356
 1706TIP3   OH229312   1.618   3.501  11.706 -0.3902  0.3024 -0.0037
 1706TIP3    H129313   1.713   3.488  11.711 -0.0643  1.4492 -2.0816
 1706TIP3    H229314   1.581   3.420  11.739  1.3736 -1.0014 -1.0409
 1707TIP3   OH229315   2.263   5.319  12.331  0.1602  0.4246 -0.4207
 1707TIP3    H129316   2.210   5.240  12.340 -0.2930  0.7777  0.1428
 1707TIP3    H229317   2.212   5.376  12.274  0.4884  0.3178 -0.8302
 1708TIP3   OH229318   5.077   1.919  12.832 -0.7124  0.4146 -0.2268
 1708TIP3    H129319   5.081   2.000  12.881 -1.2210  0.2060  0.1622
 1708TIP3    H229320   5.003   1.930  12.772  0.4335  1.0136 -1.5812
 1709TIP3   OH229321   0.614   4.512  10.875  0.0100  0.2200 -0.1153
 1709TIP3    H129322   0.698   4.513  10.922 -0.4512 -0.0056  0.7384
 1709TIP3    H229323   0.549   4.491  10.942 -0.5166 -1.4969 -1.0966
 1710TIP3   OH229324   5.945   3.212  10.965  0.4550  0.1154 -0.5220
 1710TIP3    H129325   5.962   3.255  11.049  1.1280  0.5741 -0.8913
 1710TIP3    H229326   5.928   3.283  10.904  1.3191 -0.1376 -1.0798
 1711TIP3   OH229327   0.344   2.356  11.318  0.2775 -0.1651  0.8856
 1711TIP3    H129328   0.365   2.268  11.348  1.4881 -0.3751 -0.4410
 1711TIP3    H229329   0.313   2.344  11.228 -2.0814  0.5426  1.5329
 1712TIP3   OH229330   3.054   4.225  11.664 -0.9696  0.1190 -0.3743
 1712TIP3    H129331   3.053   4.306  11.614 -1.1615  0.1071 -0.3913
 1712TIP3    H229332   3.117   4.169  11.618 -0.0580  0.6231  0.2207
 1713TIP3   OH229333   4.481   1.637  11.786 -0.7426  0.2151  0.3363
 1713TIP3    H129334   4.413   1.669  11.726 -1.2117  0.6528  1.0855
 1713TIP3    H229335   4.558   1.624  11.730 -1.1374  0.7177 -0.3446
 1714TIP3   OH229336   6.170   0.103  13.090 -0.0602 -0.1750  0.1070
 1714TIP3    H129337   6.199   0.185  13.050  0.1693 -1.9886 -3.9355
 1714TIP3    H229338   6.078   0.095  13.063  0.4129 -1.9905 -1.1788
 1715TIP3   OH229339   0.402   1.161  11.527  0.7957 -0.1151 -0.0045
 1715TIP3    H129340   0.342   1.236  11.527  1.2494  0.2579  0.1814
 1715TIP3    H229341   0.461   1.178  11.454  1.3048  0.0475  0.4364
 1716TIP3   OH229342   6.822   1.411  13.330 -0.2932  0.0342 -0.6457
 1716TIP3    H129343   6.790   1.341  13.273 -0.0673 -0.2614 -0.4133
 1716TIP3    H229344   6.743   1.455  13.362 -0.4127  0.8059 -1.9178
 1717TIP3   OH229345   5.883   3.747  12.919 -0.1599  0.2655  0.1928
 1717TIP3    H129346   5.848   3.733  13.007  0.1936  0.0032  0.2974
 1717TIP3    H229347   5.810   3.784  12.869 -1.8560 -3.6066 -0.6058
 1718TIP3   OH229348   4.968   2.101  11.271  0.0981  0.2784  0.5155
 1718TIP3    H129349   5.042   2.064  11.319  0.7874  1.4008  0.3352
 1718TIP3    H229350   4.908   2.131  11.339 -0.1758 -0.5687  0.6617
 1719TIP3   OH229351   6.011   0.634  12.934 -0.0121 -0.3458  0.0467
 1719TIP3    H129352   5.932   0.601  12.977 -1.3376  0.5139 -1.6206
 1719TIP3    H229353   5.995   0.728  12.924  1.0470 -0.2224 -0.6692
 1720TIP3   OH229354   1.916   5.478  12.488 -0.1642  0.0189 -0.5441
 1720TIP3    H129355   1.931   5.400  12.542 -2.0101  0.2266  0.3277
 1720TIP3    H229356   1.975   5.544  12.524 -0.8024 -0.0801  0.7299
 1721TIP3   OH229357   0.704   3.330  11.417 -0.4964 -0.1609 -0.0476
 1721TIP3    H129358   0.677   3.344  11.508  0.4621 -1.6865  0.5087
 1721TIP3    H229359   0.631   3.281  11.378 -0.7324  0.1415  0.0136
 1722TIP3   OH229360   3.425   5.694  11.363  0.0743  0.1807  0.3309
 1722TIP3    H129361   3.417   5.607  11.326 -0.6369 -0.1574  1.2323
 1722TIP3    H229362   3.369   5.692  11.441  1.0248  1.0422  1.0613
 1723TIP3   OH229363   2.650   5.504  11.387  0.4306  0.2749 -0.0115
 1723TIP3    H129364   2.668   5.544  11.473  1.6769  2.2124 -1.0922
 1723TIP3    H229365   2.733   5.512  11.340 -0.2176 -0.8312 -1.3807
 1724TIP3   OH229366   1.832   4.889  11.558  0.0080  0.2851  0.4630
 1724TIP3    H129367   1.908   4.941  11.582 -0.6228  1.1234  0.7061
 1724TIP3    H229368   1.784   4.945  11.496 -0.2076 -0.3873  0.0186
 1725TIP3   OH229369   5.989   4.734   9.580  0.2657  0.3328  0.6019
 1725TIP3    H129370   6.050   4.808   9.577 -0.9495  1.3355 -0.9271
 1725TIP3    H229371   5.983   4.704   9.489 -1.2737  0.0912  0.7488
 1726TIP3   OH229372   3.152   1.032  10.566  0.3995  0.3952  0.0638
 1726TIP3    H129373   3.127   1.124  10.554  0.1287  0.5367  1.5923
 1726TIP3    H229374   3.068   0.985  10.570  0.4848  0.3089  0.9457
 1727TIP3   OH229375   5.913   2.168  11.879 -0.1818  0.2500  0.7601
 1727TIP3    H129376   5.919   2.073  11.870 -0.6122  0.4026 -1.8522
 1727TIP3    H229377   5.875   2.181  11.966 -1.1581 -2.0123  0.7462
 1728TIP3   OH229378   1.708   6.807  11.531 -0.3664  0.8527  0.2567
 1728TIP3    H129379   1.646   6.746  11.571  0.0204  0.9340  1.0061
 1728TIP3    H229380   1.659   6.847  11.459 -0.0081 -1.7869 -1.5898
 1729TIP3   OH229381   1.945   5.399  10.916 -0.4386 -0.0539  0.2074
 1729TIP3    H129382   1.884   5.428  10.984  0.5059 -0.6217  1.3275
 1729TIP3    H229383   1.890   5.349  10.855 -1.3971  0.9155  0.2468
 1730TIP3   OH229384   5.594   4.832  12.767 -0.4581  0.3717 -0.3598
 1730TIP3    H129385   5.667   4.881  12.730 -0.8511  0.7489 -0.6583
 1730TIP3    H229386   5.528   4.899  12.787 -0.9745 -0.0206 -0.6993
 1731TIP3   OH229387   4.631   2.328  11.182  0.0287  0.1914  0.2122
 1731TIP3    H129388   4.538   2.340  11.202 -0.2112 -1.9747  0.6076
 1731TIP3    H229389   4.637   2.350  11.089 -1.5159 -2.3106 -0.5921
 1732TIP3   OH229390   0.147   3.581  12.279 -0.7799  0.0617  0.1227
 1732TIP3    H129391   0.179   3.589  12.189  2.5639 -0.4112  1.1358
 1732TIP3    H229392   0.167   3.666  12.320 -0.5343 -0.3746  0.9237
 1733TIP3   OH229393   1.146   3.474  10.636  0.0323 -0.2045 -0.4558
 1733TIP3    H129394   1.205   3.538  10.676  1.6810 -0.9851 -1.5258
 1733TIP3    H229395   1.102   3.432  10.710 -0.4587  1.5361  0.2984
 1734TIP3   OH229396   4.779   4.566  11.757 -0.3743  0.4735  0.0980
 1734TIP3    H129397   4.870   4.594  11.771  0.4080 -1.3646 -1.0434
 1734TIP3    H229398   4.735   4.587  11.840  1.2991  0.5614  1.0052
 1735TIP3   OH229399   0.762   2.707  10.253 -0.1419 -0.4531  0.0270
 1735TIP3    H129400   0.822   2.777  10.227 -1.5305  1.1177  0.8800
 1735TIP3    H229401   0.738   2.665  10.171 -0.5674  1.1744 -0.7268
 1736TIP3   OH229402   1.118   4.685  11.215  0.2414 -0.2706 -0.0514
 1736TIP3    H129403   1.133   4.767  11.261 -0.8170  0.6828 -1.3161
 1736TIP3    H229404   1.176   4.622  11.257 -0.5556  0.5545  2.4345
 1737TIP3   OH229405   0.313   6.149  10.717  0.0831  0.3727 -0.2636
 1737TIP3    H129406   0.258   6.197  10.655  0.4133  0.7202 -0.2962
 1737TIP3    H229407   0.319   6.061  10.681  0.3462  0.5980 -0.7768
 1738TIP3   OH229408   6.287   0.148  12.393  0.0439  0.2359  0.1906
 1738TIP3    H129409   6.321   0.172  12.480  2.3080 -0.4345 -0.4519
 1738TIP3    H229410   6.193   0.166  12.399  0.2179  0.7332  2.5953
 1739TIP3   OH229411   4.415   5.868  10.265 -0.3021  0.3269  0.4404
 1739TIP3    H129412   4.422   5.929  10.191 -1.1445 -0.5527 -0.4094
 1739TIP3    H229413   4.424   5.782  10.224  2.4753 -0.1400  1.8015
 1740TIP3   OH229414   2.849   2.880  11.727 -0.0854  0.2037  0.0307
 1740TIP3    H129415   2.929   2.855  11.682 -0.8034 -1.1985 -0.5197
 1740TIP3    H229416   2.862   2.854  11.818 -0.6317 -1.8774 -0.4335
 1741TIP3   OH229417   0.092   2.036  12.969 -0.4645  0.5159  0.0503
 1741TIP3    H129418   0.061   2.124  12.989 -0.4480  0.3163  0.9763
 1741TIP3    H229419   0.018   1.979  12.989 -0.4238  0.2971 -0.4018
 1742TIP3   OH229420   3.383   4.582  13.078  0.0057  0.2771  0.2816
 1742TIP3    H129421   3.476   4.591  13.096  0.5895  0.0893 -2.2192
 1742TIP3    H229422   3.365   4.489  13.086 -0.6994  0.5553  3.4469
 1743TIP3   OH229423   5.817   2.241  10.750  0.2888 -0.2402 -0.6496
 1743TIP3    H129424   5.825   2.222  10.844 -1.5359 -1.6774 -0.7442
 1743TIP3    H229425   5.908   2.240  10.719  1.1287  2.0894  1.3635
 1744TIP3   OH229426   4.723   6.629  12.838  0.1979 -0.1349 -0.3763
 1744TIP3    H129427   4.661   6.575  12.887  0.4254 -1.6036 -1.6152
 1744TIP3    H229428   4.808   6.611  12.879 -0.0948  1.5647  1.0615
 1745TIP3   OH229429   0.315   2.175  10.997 -0.3096 -0.8330 -0.3544
 1745TIP3    H129430   0.389   2.138  11.045 -0.3772 -0.6799 -0.1302
 1745TIP3    H229431   0.314   2.127  10.914  0.5791 -0.2435 -0.7258
 1746TIP3   OH229432   3.164   2.708  12.017  0.0137  0.1416 -0.4223
 1746TIP3    H129433   3.135   2.690  12.106  1.0571 -2.2631 -0.4959
 1746TIP3    H229434   3.260   2.702  12.021  0.0457 -1.1130 -1.8721
 1747TIP3   OH229435   1.676   1.944  10.140 -0.3463 -0.6662  0.2777
 1747TIP3    H129436   1.593   1.902  10.119 -1.3885  0.7079  1.3896
 1747TIP3    H229437   1.742   1.890  10.099 -1.8084 -1.7167 -0.7802
 1748TIP3   OH229438   2.543   6.039  12.195  0.5828  0.4280  0.1502
 1748TIP3    H129439   2.584   5.962  12.233  0.0972 -0.6783 -1.4306
 1748TIP3    H229440   2.449   6.022  12.203  0.4146 -0.5748 -2.6938
 1749TIP3   OH229441   4.023   5.469  12.389  0.4700  0.2721  0.3440
 1749TIP3    H129442   3.963   5.544  12.380  0.6800  0.4625  0.5322
 1749TIP3    H229443   4.027   5.431  12.301  3.6557  2.9763 -0.8653
 1750TIP3   OH229444   1.494   4.937  10.882 -0.2914 -0.5578  0.2287
 1750TIP3    H129445   1.520   4.998  10.951  0.8484 -1.1151  0.3116
 1750TIP3    H229446   1.445   4.869  10.928  0.3519 -0.8586  0.4850
 1751TIP3   OH229447   1.442   0.586  11.131  0.7096 -0.2469  0.0018
 1751TIP3    H129448   1.390   0.660  11.099 -0.0925 -0.1876  1.3380
 1751TIP3    H229449   1.462   0.608  11.222  0.4691 -1.6450  0.4297
 1752TIP3   OH229450   4.239   0.751  12.544 -0.2761 -0.2061  0.1101
 1752TIP3    H129451   4.298   0.788  12.478  0.5908 -0.2390  0.8582
 1752TIP3    H229452   4.246   0.810  12.619 -1.3250 -0.1161  0.1605
 1753TIP3   OH229453   6.691   3.748  10.718 -0.4539  0.0667 -0.3012
 1753TIP3    H129454   6.783   3.761  10.693 -0.4217 -0.6278 -0.5536
 1753TIP3    H229455   6.658   3.836  10.734  0.1393  0.3515 -0.6232
 1754TIP3   OH229456   5.496   1.432  12.398 -0.5631  0.5066 -0.5760
 1754TIP3    H129457   5.563   1.393  12.454 -2.2098 -0.5280  0.7684
 1754TIP3    H229458   5.446   1.358  12.364 -3.3806  1.2501  1.5260
 1755TIP3   OH229459   2.467   2.418  11.071  0.2709 -0.0278  0.0837
 1755TIP3    H129460   2.531   2.464  11.016 -0.6449  0.5529 -0.5365
 1755TIP3    H229461   2.384   2.431  11.025 -0.1751 -1.4140  0.4689
 1756TIP3   OH229462   6.666   5.336  10.686  0.2343 -0.3625 -0.3055
 1756TIP3    H129463   6.670   5.369  10.597  0.7438  1.4985  0.3613
 1756TIP3    H229464   6.586   5.373  10.722  1.4153  1.2427  0.8216
 1757TIP3   OH229465   4.092   5.391  10.606  0.3765  0.7411  0.8297
 1757TIP3    H129466   4.004   5.367  10.577  0.7373  1.7021 -1.2167
 1757TIP3    H229467   4.142   5.310  10.601 -0.2337  0.3049  1.4966
 1758TIP3   OH229468   5.352   5.988  11.105  0.3611 -0.8310 -0.4456
 1758TIP3    H129469   5.267   6.018  11.072 -0.9570 -1.9762  1.6303
 1758TIP3    H229470   5.372   6.046  11.178  1.5935 -0.3254 -1.1638
 1759TIP3   OH229471   1.077   2.860  11.429  0.8225 -0.2063  0.1631
 1759TIP3    H129472   1.016   2.793  11.459  0.6469 -1.3655 -2.5142
 1759TIP3    H229473   1.163   2.823  11.448  0.7376  0.1288  1.2819
 1760TIP3   OH229474   0.118   1.321  12.250 -0.5240 -0.3099  0.2392
 1760TIP3    H129475   0.203   1.343  12.213 -0.8503 -0.0396 -0.3684
 1760TIP3    H229476   0.077   1.265  12.183 -0.6713 -0.7535  0.6970
 1761TIP3   OH229477   4.022   5.030  12.342  0.1628  0.1616  0.1899
 1761TIP3    H129478   4.118   5.033  12.341  0.4764 -3.6714  1.2101
 1761TIP3    H229479   3.997   5.069  12.425  1.0279 -0.4361  0.7527
 1762TIP3   OH229480   2.003   5.152  10.506  0.2108 -0.2355  0.5712
 1762TIP3    H129481   1.913   5.126  10.487  0.9682 -0.5609 -3.4236
 1762TIP3    H229482   2.032   5.092  10.575 -2.2458 -0.7966  1.2032
 1763TIP3   OH229483   3.186   1.431  10.968 -0.6801 -0.1684  0.6155
 1763TIP3    H129484   3.176   1.419  10.873 -0.9351  2.1332  0.2878
 1763TIP3    H229485   3.214   1.345  11.000 -0.5520 -1.0025 -1.5425
 1764TIP3   OH229486   6.485   6.678  13.028 -0.1449  0.5688  0.0164
 1764TIP3    H129487   6.484   6.740  13.101  0.3051  0.4220  0.1539
 1764TIP3    H229488   6.530   6.725  12.958  0.7963  0.1687  0.3375
 1765TIP3   OH229489   1.913   4.087  10.896  0.5997  0.5220 -0.6695
 1765TIP3    H129490   1.993   4.034  10.886  0.5825  0.3867 -0.1192
 1765TIP3    H229491   1.843   4.031  10.862  0.5849  0.1888 -0.1081
 1766TIP3   OH229492   1.675   2.632  12.472 -0.5264 -0.1460  0.0221
 1766TIP3    H129493   1.632   2.593  12.396  0.7591 -1.5213 -0.0393
 1766TIP3    H229494   1.622   2.602  12.547  0.4192 -2.1117 -0.0204
 1767TIP3   OH229495   0.964   2.689   9.285 -0.1909 -0.2265 -0.1068
 1767TIP3    H129496   1.057   2.711   9.285 -0.0552 -0.7533  0.8613
 1767TIP3    H229497   0.920   2.769   9.256  0.5908 -0.1545 -1.1410
 1768TIP3   OH229498   0.618   0.684  13.153  0.5681  0.0967  0.4238
 1768TIP3    H129499   0.550   0.744  13.184 -0.9653 -1.3284 -0.0966
 1768TIP3    H229500   0.666   0.735  13.087  0.8291  1.5186  1.6474
 1769TIP3   OH229501   4.836   5.348  10.585 -0.2840  0.2618  0.3037
 1769TIP3    H129502   4.890   5.397  10.647  0.2474  1.1505 -0.8408
 1769TIP3    H229503   4.772   5.411  10.553  1.5842  0.8538 -2.6147
 1770TIP3   OH229504   0.626   4.596  11.437 -0.1583  0.3767  0.1982
 1770TIP3    H129505   0.639   4.611  11.343  0.0213  1.2816  0.3567
 1770TIP3    H229506   0.654   4.506  11.451  1.6354  0.8237 -0.2785
 1771TIP3   OH229507   0.577   2.673  12.803 -0.0982 -0.5202 -0.2938
 1771TIP3    H129508   0.507   2.675  12.868  0.2525  1.2025  0.0773
 1771TIP3    H229509   0.584   2.764  12.772  2.3011 -0.5300  0.0491
 1772TIP3   OH229510   5.009   0.752  12.729  0.1338 -0.6906 -0.2226
 1772TIP3    H129511   4.917   0.727  12.733  0.0025 -0.1137  0.5787
 1772TIP3    H229512   5.050   0.683  12.677 -0.7162 -1.0488 -0.4329
 1773TIP3   OH229513   0.924   2.832  12.871 -0.4082  0.1000  0.5292
 1773TIP3    H129514   0.924   2.899  12.939  1.3892  1.4465 -0.6632
 1773TIP3    H229515   0.995   2.773  12.895 -1.2998 -0.7881  1.0240
 1774TIP3   OH229516   0.848   3.244  11.069  0.3403  0.3960  0.0539
 1774TIP3    H129517   0.865   3.156  11.036  1.0499  0.6264 -0.2264
 1774TIP3    H229518   0.868   3.238  11.163 -4.8345 -1.1207  1.3928
 1775TIP3   OH229519   5.062   3.270  12.349  0.0287  0.4275 -0.0247
 1775TIP3    H129520   5.034   3.185  12.383 -3.2175  1.3362 -0.1090
 1775TIP3    H229521   5.096   3.252  12.262 -0.6643 -0.7875 -0.0558
 1776TIP3   OH229522   1.436   1.937  11.874 -0.6170  0.0113  0.2475
 1776TIP3    H129523   1.483   1.857  11.850  0.0468  0.1491  1.0384
 1776TIP3    H229524   1.478   1.966  11.955 -0.6251  1.3444 -0.2092
 1777TIP3   OH229525   2.924   2.600  10.604  0.2840  0.0315 -0.4619
 1777TIP3    H129526   2.901   2.524  10.549 -0.6103  0.5371 -0.8173
 1777TIP3    H229527   2.911   2.569  10.694 -0.9539  0.0133 -0.6298
 1778TIP3   OH229528   4.328   2.156  11.389  0.4521  0.7010  0.2247
 1778TIP3    H129529   4.315   2.107  11.471  2.7147  0.9841  0.8009
 1778TIP3    H229530   4.330   2.088  11.321  1.1134  0.2035  0.7267
 1779TIP3   OH229531   1.809   3.742  11.434  0.2240  0.1887  0.1674
 1779TIP3    H129532   1.724   3.767  11.469  0.8633  0.0462  1.9295
 1779TIP3    H229533   1.807   3.647  11.431 -0.4801  0.2364 -1.9852
 1780TIP3   OH229534   5.707   1.645   9.414  0.0893  0.1787 -0.0679
 1780TIP3    H129535   5.762   1.694   9.354  0.7903 -0.0910  0.3422
 1780TIP3    H229536   5.617   1.666   9.388  0.3805 -0.0172 -1.2708
 1781TIP3   OH229537   6.317   1.391  10.789 -0.6532  0.2277  0.4151
 1781TIP3    H129538   6.306   1.358  10.700  0.1408 -1.1506  0.8028
 1781TIP3    H229539   6.233   1.372  10.832 -0.1321 -1.5584  0.6959
 1782TIP3   OH229540   2.901   4.609  12.876 -0.2989  0.5801 -0.5157
 1782TIP3    H129541   2.972   4.560  12.916 -1.4654 -0.1392  0.7889
 1782TIP3    H229542   2.887   4.567  12.792 -0.8752 -0.9915  0.3294
 1783TIP3   OH229543   5.003   4.553   9.946 -0.4973  0.3949  0.2062
 1783TIP3    H129544   5.043   4.637   9.966 -1.0949  0.3136  1.8928
 1783TIP3    H229545   4.924   4.575   9.898 -1.6719  0.9852  2.2701
 1784TIP3   OH229546   2.910   3.356  12.480 -0.7218  0.8997  0.5682
 1784TIP3    H129547   2.955   3.398  12.407  1.0076  1.1679  1.7265
 1784TIP3    H229548   2.822   3.337  12.446 -0.1801  1.5617 -1.3564
 1785TIP3   OH229549   3.827   6.120  12.399 -0.7947  0.2558 -0.2202
 1785TIP3    H129550   3.876   6.147  12.476 -0.5430  0.2684 -0.3845
 1785TIP3    H229551   3.776   6.198  12.374  1.4265  1.2776 -1.8755
 1786TIP3   OH229552   6.851   0.476  12.236  0.2546  0.0685 -0.4864
 1786TIP3    H129553   6.771   0.425  12.222 -1.6976  2.0643  2.2850
 1786TIP3    H229554   6.846   0.547  12.172  0.7009 -0.6958 -1.3942
 1787TIP3   OH229555   1.383   3.782  12.115 -0.3044  0.1953 -0.6675
 1787TIP3    H129556   1.448   3.737  12.061  0.5373 -0.2712  0.6523
 1787TIP3    H229557   1.384   3.733  12.198  0.6970  2.6249  0.8783
 1788TIP3   OH229558   4.120   0.984  12.426 -0.5329 -0.1090  0.0319
 1788TIP3    H129559   4.054   0.916  12.414 -0.9678  0.1832  0.7156
 1788TIP3    H229560   4.152   1.002  12.338 -2.4123  0.7808 -0.5112
 1789TIP3   OH229561   3.548   0.726  10.463  0.1181  0.2542  0.3409
 1789TIP3    H129562   3.604   0.803  10.468 -0.0763  0.3624  0.9971
 1789TIP3    H229563   3.459   0.761  10.458  0.0697  0.0784 -0.0769
 1790TIP3   OH229564   0.408   2.603  12.183 -0.1751 -0.6117 -0.0290
 1790TIP3    H129565   0.413   2.643  12.270 -0.2273 -0.7743  0.0495
 1790TIP3    H229566   0.446   2.668  12.124 -0.5469 -0.3144  0.0569
 1791TIP3   OH229567   1.896   0.607   9.169 -0.9402 -0.2118  0.1327
 1791TIP3    H129568   1.949   0.634   9.245 -0.4274  0.8110 -0.5788
 1791TIP3    H229569   1.944   0.531   9.134 -0.7689 -0.2228  0.3823
 1792TIP3   OH229570   5.931   1.536  12.828  0.1812  0.3833  0.1631
 1792TIP3    H129571   5.951   1.522  12.736 -0.8183  0.0253 -0.0128
 1792TIP3    H229572   5.902   1.450  12.860 -0.1213  0.6562  0.6382
 1793TIP3   OH229573   2.140   5.741  10.481 -0.7226  0.6690  0.0229
 1793TIP3    H129574   2.121   5.670  10.543 -3.0818  1.8846  0.8327
 1793TIP3    H229575   2.165   5.815  10.536  0.2389  0.9090 -0.7109
 1794TIP3   OH229576   1.596   0.759  12.547  0.0461 -0.0857  0.0640
 1794TIP3    H129577   1.615   0.687  12.487  0.9899 -0.5031  0.8299
 1794TIP3    H229578   1.626   0.728  12.632 -0.0904  0.9766  0.5200
 1795TIP3   OH229579   1.142   6.309  11.550 -0.0853  0.5442 -0.0111
 1795TIP3    H129580   1.215   6.265  11.507 -0.1532  0.6066 -0.1930
 1795TIP3    H229581   1.180   6.388  11.588  0.3416 -0.3935  1.6032
 1796TIP3   OH229582   1.673   4.060  12.534  0.2502  0.0497 -0.7886
 1796TIP3    H129583   1.671   4.037  12.626  0.0159 -1.2023 -1.0853
 1796TIP3    H229584   1.758   4.103  12.521 -0.4688  1.9835  0.3693
 1797TIP3   OH229585   4.848   0.411  13.272  0.0814  0.0938 -0.5815
 1797TIP3    H129586   4.842   0.435  13.364  1.0668  2.2507 -1.0145
 1797TIP3    H229587   4.765   0.368  13.253 -0.8155  1.0429  0.9339
 1798TIP3   OH229588   4.108   6.426  12.386 -0.4672  0.3072 -0.2409
 1798TIP3    H129589   4.116   6.519  12.364  0.1834  0.4103  0.4018
 1798TIP3    H229590   4.088   6.384  12.302 -1.7664  1.1382 -0.3726
 1799TIP3   OH229591   2.582   0.911  11.651 -0.2880  0.7604 -0.2933
 1799TIP3    H129592   2.666   0.871  11.630  0.3537  1.4597  0.8252
 1799TIP3    H229593   2.604   0.987  11.705 -1.6426  0.8532  0.1799
 1800TIP3   OH229594   4.445   2.684  11.903 -0.0261  0.3549 -0.4092
 1800TIP3    H129595   4.350   2.686  11.892  0.1111  0.4372 -1.6257
 1800TIP3    H229596   4.479   2.746  11.838  0.9106 -0.2654 -0.5360
 1801TIP3   OH229597   0.377   5.052  11.672 -0.8203 -0.3013 -0.3596
 1801TIP3    H129598   0.426   5.119  11.624 -1.3049  1.3837  1.3919
 1801TIP3    H229599   0.442   5.012  11.729 -0.6908 -0.8280 -0.8657
 1802TIP3   OH229600   5.247   1.659  12.708 -0.4891 -0.5085 -0.3321
 1802TIP3    H129601   5.314   1.713  12.665  0.0803 -1.1351 -0.2416
 1802TIP3    H229602   5.211   1.717  12.776 -0.0153 -0.1710 -0.3599
 1803TIP3   OH229603   5.533   3.185  12.960 -0.0346  0.1350  0.2718
 1803TIP3    H129604   5.578   3.256  12.914  2.6717 -1.6326 -0.0113
 1803TIP3    H229605   5.523   3.117  12.893 -0.9921 -0.4365  0.9762
 1804TIP3   OH229606   2.305   1.593  13.135  0.6674 -0.1448  0.0554
 1804TIP3    H129607   2.229   1.536  13.129  0.8063 -0.2769 -0.5009
 1804TIP3    H229608   2.354   1.559  13.210  0.0441  0.1137  0.5844
 1805TIP3   OH229609   6.824   0.526  10.074  0.0085  0.4938 -0.7331
 1805TIP3    H129610   6.897   0.465  10.071  0.1229  0.5188  0.6779
 1805TIP3    H229611   6.754   0.477  10.118 -0.1811  1.0854 -0.3617
 1806TIP3   OH229612   5.704   4.970  11.796  0.2604  0.5587 -0.9639
 1806TIP3    H129613   5.661   4.891  11.763  0.3642 -0.3778  1.0140
 1806TIP3    H229614   5.796   4.960  11.771 -0.0367  0.9879 -2.3349
 1807TIP3   OH229615   4.858   1.494   9.547 -0.1035 -0.0742 -0.1143
 1807TIP3    H129616   4.933   1.541   9.584 -0.3330  1.2750 -1.2806
 1807TIP3    H229617   4.787   1.557   9.548 -0.8740 -0.9163 -0.2569
 1808TIP3   OH229618   0.279   6.516  12.118 -0.1589  0.3755  0.4582
 1808TIP3    H129619   0.357   6.465  12.095 -1.9084 -1.7902 -1.1528
 1808TIP3    H229620   0.252   6.481  12.203 -0.4453 -0.2907  0.1028
 1809TIP3   OH229621   6.484   6.305  12.667 -0.2081  0.4940 -0.1605
 1809TIP3    H129622   6.479   6.396  12.638  0.7305  0.4666 -0.4237
 1809TIP3    H229623   6.577   6.289  12.681 -0.4300 -0.1901  0.6583
 1810TIP3   OH229624   1.088   4.938  12.629  0.2306  0.1048  0.4807
 1810TIP3    H129625   1.110   4.939  12.535  1.3948 -0.4521  0.7287
 1810TIP3    H229626   1.042   5.020  12.643  1.2296  0.8417 -0.3268
 1811TIP3   OH229627   6.844   0.939  11.977 -0.4626 -0.1711 -0.5927
 1811TIP3    H129628   6.860   1.033  11.980  0.9509 -0.4147  0.1759
 1811TIP3    H229629   6.916   0.900  12.025 -1.9811 -1.5558  0.7118
 1812TIP3   OH229630   2.073   0.060  10.689 -0.0953 -0.4282  0.2423
 1812TIP3    H129631   1.996   0.031  10.640  1.0159 -0.5790 -1.5213
 1812TIP3    H229632   2.103  -0.018  10.735 -0.6121 -0.5367  0.3999
 1813TIP3   OH229633   6.707   2.422   9.413  0.2171 -0.6934 -0.5492
 1813TIP3    H129634   6.755   2.387   9.338  0.6960 -0.3604 -0.4008
 1813TIP3    H229635   6.638   2.475   9.374 -1.0288 -2.4033 -0.8026
 1814TIP3   OH229636   1.979   1.039  12.469 -0.3683  0.2240 -0.2852
 1814TIP3    H129637   1.930   0.970  12.423 -0.2371  0.7284 -1.2084
 1814TIP3    H229638   1.918   1.072  12.535 -0.5585 -0.5284 -0.0776
 1815TIP3   OH229639   0.245   5.833  10.315 -0.0128  0.0747 -0.7699
 1815TIP3    H129640   0.166   5.886  10.324 -0.1244 -0.0953 -0.7580
 1815TIP3    H229641   0.216   5.753  10.271  0.0013 -0.3463 -0.0197
 1816TIP3   OH229642   3.502   0.261  11.695 -0.1166 -0.1938 -0.2395
 1816TIP3    H129643   3.546   0.332  11.742  0.8018 -1.2163  0.5099
 1816TIP3    H229644   3.564   0.188  11.699 -0.1607 -0.4422 -2.7790
 1817TIP3   OH229645   3.531   3.981  11.726  0.5121  0.3727 -0.3986
 1817TIP3    H129646   3.465   3.912  11.714  0.7910  0.1983 -0.9423
 1817TIP3    H229647   3.526   4.003  11.819 -1.7319  1.7809 -0.7720
 1818TIP3   OH229648   2.137   5.260  11.832  0.1179 -0.1189 -0.0615
 1818TIP3    H129649   2.079   5.336  11.838 -0.7031 -0.7788  0.7812
 1818TIP3    H229650   2.217   5.293  11.791 -0.8010  0.8506 -1.1266
 1819TIP3   OH229651   3.614   6.340  11.774 -0.6850  0.3536 -0.0207
 1819TIP3    H129652   3.633   6.334  11.681  1.5695 -2.2438  0.4689
 1819TIP3    H229653   3.570   6.258  11.795 -0.2139  0.4262  1.3747
 1820TIP3   OH229654   0.539   5.158  12.981  0.5129  0.3006  1.2230
 1820TIP3    H129655   0.595   5.227  12.947  0.2855 -0.0087  0.1980
 1820TIP3    H229656   0.467   5.151  12.918  0.6956 -1.0840  1.1290
 1821TIP3   OH229657   5.833   4.931  12.654 -0.8075 -0.0151  0.1262
 1821TIP3    H129658   5.854   4.843  12.625  1.0160 -0.0850  1.4881
 1821TIP3    H229659   5.893   4.988  12.605 -0.9390  0.3101  0.3398
 1822TIP3   OH229660   0.046   0.545  11.883 -0.4711 -0.3928  0.1594
 1822TIP3    H129661   0.027   0.609  11.951 -0.5390 -0.3824  0.1303
 1822TIP3    H229662   0.137   0.563  11.857 -0.2657 -0.7348  0.6182
 1823TIP3   OH229663   4.225   4.857  12.141 -0.5003 -0.2129 -0.2852
 1823TIP3    H129664   4.230   4.915  12.218  0.7980  0.8177 -1.0993
 1823TIP3    H229665   4.216   4.770  12.178  0.9787  0.1710  1.1046
 1824TIP3   OH229666   1.663   3.083  10.756  0.5011 -0.7235  0.3377
 1824TIP3    H129667   1.747   3.104  10.715  0.9385 -0.5770  1.2791
 1824TIP3    H229668   1.677   2.998  10.798 -1.1160 -2.8732 -3.0477
 1825TIP3   OH229669   5.131   6.698  11.069 -0.1030  0.3217 -0.4247
 1825TIP3    H129670   5.164   6.697  11.158 -1.1927 -0.1970 -0.0053
 1825TIP3    H229671   5.175   6.625  11.025  0.9986  1.0380 -0.5444
 1826TIP3   OH229672   5.614   2.491  12.027 -0.7162  0.5478 -0.2363
 1826TIP3    H129673   5.561   2.434  12.082 -0.1797  1.1150  0.9102
 1826TIP3    H229674   5.676   2.532  12.087  0.2190  0.8265 -1.3506
 1827TIP3   OH229675   2.347   1.522  11.791 -0.7763 -0.4736  0.1176
 1827TIP3    H129676   2.427   1.469  11.792 -0.7669 -0.4635 -0.2659
 1827TIP3    H229677   2.282   1.467  11.746 -0.8295 -0.2473 -0.0807
 1828TIP3   OH229678   6.458   4.847  12.238 -0.0555 -0.0669  0.2827
 1828TIP3    H129679   6.428   4.910  12.303 -0.7766  0.2308 -0.3398
 1828TIP3    H229680   6.383   4.832  12.181  0.4047 -0.7381 -0.1704
 1829TIP3   OH229681   4.213   2.821  12.933 -0.2508  0.2167 -0.0207
 1829TIP3    H129682   4.240   2.752  12.872  0.4154 -0.4024  0.9410
 1829TIP3    H229683   4.135   2.786  12.977 -0.1543  0.2491  0.1781
 1830TIP3   OH229684   5.176   0.032  10.791 -0.3814 -0.1711  0.1943
 1830TIP3    H129685   5.086   0.058  10.810 -0.8509 -1.5537 -0.0335
 1830TIP3    H229686   5.168  -0.041  10.730  0.9679  1.6834 -2.4358
 1831TIP3   OH229687   6.507   3.181  10.548 -0.2097  0.1759 -1.0445
 1831TIP3    H129688   6.449   3.178  10.472  0.4866  0.8670 -1.6218
 1831TIP3    H229689   6.571   3.112  10.532 -0.3094  0.0408 -0.8698
 1832TIP3   OH229690   5.278   2.586  10.583 -0.2422  0.6445  0.1869
 1832TIP3    H129691   5.317   2.571  10.497  1.0511  0.7341  0.7442
 1832TIP3    H229692   5.297   2.677  10.604  1.9820 -0.0996  1.7718
 1833TIP3   OH229693   3.673   5.036  12.045 -0.0339 -0.0012 -0.2541
 1833TIP3    H129694   3.612   4.963  12.048  1.4262 -1.2684 -0.4229
 1833TIP3    H229695   3.690   5.057  12.137  1.5020 -1.6047 -0.1325
 1834TIP3   OH229696   4.522   3.148  12.249 -0.2831 -0.3860 -0.1969
 1834TIP3    H129697   4.507   3.198  12.330 -0.3501 -0.2262 -0.3071
 1834TIP3    H229698   4.609   3.109  12.261 -0.6026 -0.9662  0.2624
 1835TIP3   OH229699   1.683   3.786  11.163  0.5801 -0.2293  0.5118
 1835TIP3    H129700   1.771   3.802  11.196  0.6282 -0.9632  0.7468
 1835TIP3    H229701   1.626   3.835  11.221  0.8740  0.7947 -0.0404
 1836TIP3   OH229702   1.726   6.047  12.195  0.4038  0.0002 -0.4829
 1836TIP3    H129703   1.683   5.979  12.143 -0.7138 -0.3929  0.8984
 1836TIP3    H229704   1.686   6.129  12.163 -2.0335 -0.3984  1.2422
 1837TIP3   OH229705   0.827   5.929  11.401  0.2170  0.4842 -0.4139
 1837TIP3    H129706   0.771   5.927  11.324 -1.7599 -1.1756  0.9622
 1837TIP3    H229707   0.843   5.837  11.422  3.9038  0.8370 -0.9350
 1838TIP3   OH229708   4.324   2.335  12.750  0.2989  0.6681 -0.1866
 1838TIP3    H129709   4.237   2.307  12.719 -0.3297  1.2548  0.9890
 1838TIP3    H229710   4.311   2.427  12.776  0.3127 -0.2138  3.4073
 1839TIP3   OH229711   5.236   5.401  10.335  0.0478 -0.3846 -0.9982
 1839TIP3    H129712   5.285   5.412  10.254  1.9554 -0.8299  0.0437
 1839TIP3    H229713   5.207   5.310  10.334 -0.3058 -0.2752 -1.3445
 1840TIP3   OH229714   6.040   1.957  12.418 -0.2326 -0.2778 -0.2506
 1840TIP3    H129715   6.030   2.046  12.385 -0.4217 -0.2862 -0.2206
 1840TIP3    H229716   5.985   1.955  12.497  1.3069  0.1597  0.8944
 1841TIP3   OH229717   5.458   6.841  10.678 -0.0992  0.4919 -0.5682
 1841TIP3    H129718   5.410   6.855  10.759  2.5738  3.6026  0.6987
 1841TIP3    H229719   5.391   6.843  10.610 -1.9836  3.9605  1.1128
 1842TIP3   OH229720   6.571   3.729   9.678 -0.6440 -0.1387 -0.6110
 1842TIP3    H129721   6.538   3.672   9.747  0.2880  0.0039 -0.0342
 1842TIP3    H229722   6.539   3.816   9.703  0.3618  0.0444  0.0979
 1843TIP3   OH229723   0.935   0.888  11.987 -0.1468  0.0773  0.1480
 1843TIP3    H129724   0.913   0.797  11.966 -0.0041  0.1924 -0.5310
 1843TIP3    H229725   0.999   0.913  11.920  0.9598  0.1994  1.2234
 1844TIP3   OH229726   0.665   3.408  10.334 -0.3065  0.1224  0.2979
 1844TIP3    H129727   0.671   3.487  10.280 -0.1741  1.0982  1.6810
 1844TIP3    H229728   0.741   3.412  10.392 -0.5020 -0.8231  0.6476
 1845TIP3   OH229729   1.495   1.457  10.741 -0.0954  0.1958 -0.5665
 1845TIP3    H129730   1.454   1.404  10.673  0.4309 -2.9287  1.3550
 1845TIP3    H229731   1.430   1.458  10.812  0.6021  0.6510  0.0764
 1846TIP3   OH229732   1.833   2.630  12.948  0.6384 -0.1932  0.6119
 1846TIP3    H129733   1.884   2.555  12.918 -1.5673 -1.3721 -0.4524
 1846TIP3    H229734   1.879   2.662  13.025  2.8511 -1.2610 -0.2056
 1847TIP3   OH229735   5.274   4.831  10.290 -0.5793 -0.1331  0.2456
 1847TIP3    H129736   5.244   4.750  10.332 -0.8420  0.1141  0.5451
 1847TIP3    H229737   5.193   4.880  10.274 -0.3283  0.6104  1.1911
 1848TIP3   OH229738   2.619   4.504  12.519 -0.0443  0.7845  0.1962
 1848TIP3    H129739   2.576   4.444  12.458 -0.7733  1.3631  0.1277
 1848TIP3    H229740   2.562   4.505  12.596  0.4646  0.6624  0.5834
 1849TIP3   OH229741   3.867   5.167  11.944 -0.3284 -0.0049  0.5512
 1849TIP3    H129742   3.839   5.223  11.873  0.0423  0.9266  1.1201
 1849TIP3    H229743   3.789   5.118  11.969 -0.8069  0.6963  0.4428
 1850TIP3   OH229744   0.171   1.604  11.560 -0.0722 -0.0856  0.3890
 1850TIP3    H129745   0.157   1.663  11.486 -0.0394 -1.5790 -0.8700
 1850TIP3    H229746   0.196   1.661  11.633 -0.3974  1.4578 -0.6699
 1851TIP3   OH229747   2.805   4.407  11.697 -0.2060  0.2227  0.0424
 1851TIP3    H129748   2.769   4.424  11.784  1.9923 -1.3645  1.3740
 1851TIP3    H229749   2.797   4.313  11.685  1.4678  0.1021 -0.4844
 1852TIP3   OH229750   0.969   0.826  10.566  0.2016 -0.0600 -0.0060
 1852TIP3    H129751   1.024   0.777  10.505 -0.4756  0.3263 -0.9566
 1852TIP3    H229752   0.880   0.816  10.531 -0.2783 -0.3293  1.2661
 1853TIP3   OH229753   3.107   5.970  11.689  0.4630  0.6413 -0.2458
 1853TIP3    H129754   3.091   6.045  11.745 -1.6043  0.7466 -0.8993
 1853TIP3    H229755   3.167   5.915  11.739  0.5126  1.8110  1.0480
 1854TIP3   OH229756   1.901   6.366  12.417 -0.5122  0.0594 -0.5308
 1854TIP3    H129757   1.809   6.388  12.434 -0.6223  0.3553 -1.4825
 1854TIP3    H229758   1.908   6.361  12.322  0.0466 -1.7912 -0.4202
 1855TIP3   OH229759   3.329   6.354  11.795 -0.4643 -0.0080 -0.2721
 1855TIP3    H129760   3.413   6.366  11.751 -1.0965 -1.8172 -2.0899
 1855TIP3    H229761   3.352   6.341  11.887  1.2243 -0.3983 -0.7183
 1856TIP3   OH229762   0.306   1.013  12.766  0.4906 -0.2417 -0.1227
 1856TIP3    H129763   0.369   1.074  12.805  2.6138 -2.1095 -0.4355
 1856TIP3    H229764   0.300   1.040  12.675 -0.2249  0.7450  0.1978
 1857TIP3   OH229765   0.682   0.283  10.042 -0.1026  0.2361  0.0696
 1857TIP3    H129766   0.607   0.280  10.102 -0.9205 -0.5543 -0.9553
 1857TIP3    H229767   0.747   0.225  10.082  0.4986  1.9162  1.6225
 1858TIP3   OH229768   2.757   0.624  10.396 -0.9001  0.1611 -0.6554
 1858TIP3    H129769   2.714   0.702  10.431  0.6794  0.7669  0.0048
 1858TIP3    H229770   2.732   0.554  10.457 -1.3267  0.4049 -0.5497
 1859TIP3   OH229771   5.792   3.453  12.408 -0.2839  0.3243 -0.5027
 1859TIP3    H129772   5.864   3.511  12.433 -2.1596  2.0603  1.2225
 1859TIP3    H229773   5.790   3.456  12.312 -0.0253  2.7880 -0.4860
 1860TIP3   OH229774   2.838   4.703  10.614 -0.5608  0.0174  0.0953
 1860TIP3    H129775   2.798   4.698  10.528  2.7591  1.5923 -1.7253
 1860TIP3    H229776   2.878   4.790  10.618  0.7120 -0.5678  2.6029
 1861TIP3   OH229777   3.084   5.034  12.737 -0.1725 -0.1537 -0.3808
 1861TIP3    H129778   3.137   4.969  12.692 -1.0650  0.3521 -2.2824
 1861TIP3    H229779   3.071   5.103  12.672  0.5566  1.8480  1.5029
 1862TIP3   OH229780   4.843   3.935  12.624  0.0573 -0.1676 -0.3440
 1862TIP3    H129781   4.878   3.913  12.538  0.9047  0.4724 -0.1685
 1862TIP3    H229782   4.825   3.850  12.665  0.1808 -0.4788 -0.9337
 1863TIP3   OH229783   3.772   2.405  12.655 -0.1991  0.2047  0.1550
 1863TIP3    H129784   3.862   2.438  12.658 -0.5579  1.2986 -0.5311
 1863TIP3    H229785   3.759   2.362  12.739  0.1962  2.1154  1.2491
 1864TIP3   OH229786   0.843   4.911  10.283 -0.5712 -0.1877 -0.0541
 1864TIP3    H129787   0.785   4.962  10.227 -0.0982  0.0653 -0.3225
 1864TIP3    H229788   0.907   4.873  10.223 -1.1181 -1.3985  0.0929
 1865TIP3   OH229789   3.283   4.412  10.122 -0.3470 -1.0325  0.2429
 1865TIP3    H129790   3.263   4.340  10.061 -0.0868 -0.6278 -0.3298
 1865TIP3    H229791   3.197   4.443  10.150 -0.7267  1.3592 -2.9849
 1866TIP3   OH229792   5.593   4.708  10.298  0.2200  0.4388  0.5131
 1866TIP3    H129793   5.611   4.686  10.390 -0.5806  0.0319  0.5805
 1866TIP3    H229794   5.545   4.791  10.303 -0.8572 -0.1595  0.5545
 1867TIP3   OH229795   1.643   5.091  12.408 -0.0282 -0.3401  0.0599
 1867TIP3    H129796   1.675   5.084  12.319  1.3262  0.5141  0.4583
 1867TIP3    H229797   1.646   5.185  12.428  1.4082 -0.6681  1.5917
 1868TIP3   OH229798   6.341   1.029  12.848 -0.4655  0.2601  0.0315
 1868TIP3    H129799   6.263   1.050  12.795 -0.5208  0.9776  0.3796
 1868TIP3    H229800   6.414   1.061  12.796 -0.4372  0.0072 -0.0852
 1869TIP3   OH229801   1.501   4.957  11.710 -0.7421 -0.1083  0.3332
 1869TIP3    H129802   1.590   4.926  11.730 -0.8036 -0.3604  0.2177
 1869TIP3    H229803   1.477   4.911  11.629 -1.0932 -0.2649  0.5262
 1870TIP3   OH229804   0.290   5.448  11.030 -0.2605  0.3007  0.5046
 1870TIP3    H129805   0.215   5.431  10.974  0.9143 -1.7140 -0.5726
 1870TIP3    H229806   0.292   5.374  11.091 -0.2148  1.3195  1.7941
 1871TIP3   OH229807   2.452   2.675  10.556 -0.7286  0.6420 -0.0081
 1871TIP3    H129808   2.518   2.731  10.596 -1.6541  1.1167  0.8901
 1871TIP3    H229809   2.478   2.586  10.580 -0.2089  0.7919  0.0028
 1872TIP3   OH229810   4.752   6.625  12.125  0.0010 -0.8778 -0.4915
 1872TIP3    H129811   4.779   6.533  12.134  0.7395 -0.8218 -1.8926
 1872TIP3    H229812   4.823   6.665  12.075 -0.1129  0.5695  0.4672
 1873TIP3   OH229813   6.823   0.530  11.209 -0.1732 -0.5073 -0.1926
 1873TIP3    H129814   6.763   0.598  11.238  1.6326  0.9600  0.2711
 1873TIP3    H229815   6.822   0.465  11.279 -0.7588 -0.2090  0.0788
 1874TIP3   OH229816   2.090   4.455   9.937 -0.0958 -0.0384  0.2085
 1874TIP3    H129817   2.154   4.526   9.935 -0.9428  0.7365 -0.8765
 1874TIP3    H229818   2.006   4.499   9.949 -0.5856 -0.8964 -0.0162
 1875TIP3   OH229819   1.048   5.849  13.061 -0.4598 -0.0910  0.3561
 1875TIP3    H129820   1.078   5.769  13.018 -2.3629 -0.2167 -0.8733
 1875TIP3    H229821   0.984   5.819  13.125  0.9090  0.2644  1.9387
 1876TIP3   OH229822   0.566   3.145  12.941  0.0659 -0.0718 -0.8938
 1876TIP3    H129823   0.509   3.083  12.985  1.0224  0.6199  1.4401
 1876TIP3    H229824   0.507   3.208  12.900 -0.8958  0.2707  0.9351
 1877TIP3   OH229825   0.155   2.512  12.321 -0.1582  0.1773  0.3883
 1877TIP3    H129826   0.224   2.507  12.255 -0.9106  0.4697 -0.4332
 1877TIP3    H229827   0.139   2.606  12.331  0.4152  0.1764  1.4966
 1878TIP3   OH229828   4.220   3.149  10.756 -0.1597 -0.7078  0.0018
 1878TIP3    H129829   4.207   3.121  10.665  0.6361 -0.0223 -0.3329
 1878TIP3    H229830   4.173   3.233  10.762 -0.5483 -0.9466  0.3393
 1879TIP3   OH229831   1.173   0.672   9.806  0.3256  0.5494  0.5443
 1879TIP3    H129832   1.256   0.639   9.770 -1.1192 -1.0854 -1.5504
 1879TIP3    H229833   1.113   0.597   9.800 -1.5061  1.8811  1.3250
 1880TIP3   OH229834   6.146   1.874  11.326  0.6477 -0.3143  1.0027
 1880TIP3    H129835   6.225   1.825  11.304  2.0324  1.9799  0.4588
 1880TIP3    H229836   6.165   1.911  11.412 -0.3343 -0.6566  1.3762
 1881TIP3   OH229837   3.226   3.905  12.232 -0.1980  0.4858  0.5104
 1881TIP3    H129838   3.170   3.854  12.174  0.6370 -0.6119  0.6410
 1881TIP3    H229839   3.291   3.843  12.264  0.8448  1.6234  0.7004
 1882TIP3   OH229840   2.396   4.017  11.781 -0.3001 -1.0615 -0.0989
 1882TIP3    H129841   2.424   4.067  11.704  1.3739 -2.9096 -0.7912
 1882TIP3    H229842   2.313   4.057  11.807 -0.3330  0.3701 -2.1432
 1883TIP3   OH229843   5.628   5.034  11.273  0.5405 -0.2977  0.0028
 1883TIP3    H129844   5.648   4.941  11.279  0.6849 -0.2929 -0.3867
 1883TIP3    H229845   5.536   5.037  11.245  0.6991 -0.3267 -0.5317
 1884TIP3   OH229846   0.471   3.996  13.015  0.2646  0.0549  0.2806
 1884TIP3    H129847   0.478   4.037  12.929  2.7048  1.1172  0.8960
 1884TIP3    H229848   0.444   3.906  12.997  0.4331  0.3446 -1.5649
 1885TIP3   OH229849   1.128   6.411  11.072 -0.2763  0.3253  0.6954
 1885TIP3    H129850   1.120   6.338  11.133  0.4465 -0.8186 -0.5494
 1885TIP3    H229851   1.065   6.392  11.002 -1.6378  1.9924  1.3738
 1886TIP3   OH229852   4.992   2.078  10.848 -0.4075 -0.0951 -0.0605
 1886TIP3    H129853   5.086   2.080  10.827 -0.4126 -2.0156 -0.5078
 1886TIP3    H229854   4.963   2.169  10.840  0.4985  0.0401 -4.3632
 1887TIP3   OH229855   4.722   4.389  11.195  0.0206 -0.2265  0.4188
 1887TIP3    H129856   4.645   4.409  11.249  0.2767  0.9477  0.3847
 1887TIP3    H229857   4.772   4.328  11.248 -0.1619  0.2386  1.1526
 1888TIP3   OH229858   5.318   0.129  12.331  0.2655  0.7132 -0.1849
 1888TIP3    H129859   5.274   0.100  12.251 -1.6341  0.5556  0.8561
 1888TIP3    H229860   5.325   0.051  12.385  2.5831  0.5657 -0.5788
 1889TIP3   OH229861   3.851   1.803  10.433  0.7188  0.2491  0.8857
 1889TIP3    H129862   3.860   1.896  10.412  2.3402  0.1113  0.8234
 1889TIP3    H229863   3.861   1.758  10.349 -0.9962  0.0272  0.7665
 1890TIP3   OH229864   1.213   4.505  10.967  0.3116 -0.1961 -0.8969
 1890TIP3    H129865   1.150   4.530  10.899  0.4752  0.4096 -0.8346
 1890TIP3    H229866   1.165   4.444  11.023 -0.6417  1.1784 -0.1429
 1891TIP3   OH229867   2.643   6.542  12.838 -0.1151 -0.2221 -0.1190
 1891TIP3    H129868   2.636   6.470  12.900  0.7371 -0.9416 -0.8406
 1891TIP3    H229869   2.573   6.526  12.774  0.0538 -0.4003 -0.2611
 1892TIP3   OH229870   3.896   3.173  12.510  0.2750  0.6059 -0.3020
 1892TIP3    H129871   3.869   3.255  12.550 -1.7630 -0.2362  0.1396
 1892TIP3    H229872   3.815   3.123  12.498  1.4724 -1.4632 -0.3061
 1893TIP3   OH229873   0.366   5.111   9.679  0.3308 -0.7741  0.1930
 1893TIP3    H129874   0.370   5.017   9.697 -0.3583 -1.1551 -1.4964
 1893TIP3    H229875   0.429   5.149   9.740 -0.1933 -2.1982  1.6865
 1894TIP3   OH229876   1.436   2.592  10.743  0.1436 -0.1090  0.0564
 1894TIP3    H129877   1.401   2.562  10.659 -0.4176  0.4691  0.0770
 1894TIP3    H229878   1.510   2.533  10.760 -0.2777 -0.7923 -0.4118
 1895TIP3   OH229879   2.310   5.133  10.687 -0.1439  0.1751  0.4349
 1895TIP3    H129880   2.293   5.119  10.594  1.4677 -2.3599  0.4438
 1895TIP3    H229881   2.226   5.115  10.730 -0.0097 -2.5857 -0.2682
 1896TIP3   OH229882   1.643   1.286  11.925  0.0981  0.1234  0.2889
 1896TIP3    H129883   1.588   1.249  11.994  0.0254  2.6952  1.7132
 1896TIP3    H229884   1.715   1.328  11.971 -0.1556  2.2718 -1.1188
 1897TIP3   OH229885   0.273   4.332  11.747  0.5096  0.2315 -0.0336
 1897TIP3    H129886   0.244   4.304  11.834  0.0028 -0.4015 -0.3967
 1897TIP3    H229887   0.367   4.348  11.757  1.1278 -2.8225 -0.0615
 1898TIP3   OH229888   2.826   3.414  11.791 -0.4494 -0.1553  0.1559
 1898TIP3    H129889   2.755   3.478  11.790 -1.6216 -1.4009 -1.0934
 1898TIP3    H229890   2.786   3.335  11.827  0.3393 -0.8409 -0.4469
 1899TIP3   OH229891   2.513   3.585  13.246  0.0357  0.0224 -0.4931
 1899TIP3    H129892   2.477   3.562  13.160 -0.4501  0.7693 -0.4999
 1899TIP3    H229893   2.549   3.673  13.233 -0.1221  0.1733  0.0956
 1900TIP3   OH229894   6.794   3.356  12.166 -0.4940 -0.0145  0.2031
 1900TIP3    H129895   6.741   3.294  12.116 -0.9241 -1.0476  1.8647
 1900TIP3    H229896   6.734   3.428  12.185 -0.3227  0.3898 -0.7629
 1901TIP3   OH229897   3.113   5.896  10.972  0.2547  0.5023 -0.2580
 1901TIP3    H129898   3.022   5.871  10.991  0.6403 -1.8367 -1.2351
 1901TIP3    H229899   3.151   5.912  11.058 -0.4545 -0.9420  0.3658
 1902TIP3   OH229900   3.190   5.762  12.422 -0.0810 -0.1940  0.5651
 1902TIP3    H129901   3.217   5.736  12.510  2.1174 -0.1723 -0.0369
 1902TIP3    H229902   3.143   5.844  12.434 -0.0325 -0.3244  1.7401
 1903TIP3   OH229903   3.445   2.532  12.403 -0.0746 -0.0819  0.5144
 1903TIP3    H129904   3.401   2.480  12.335 -1.4635  0.4917  0.9446
 1903TIP3    H229905   3.376   2.553  12.466  0.9520  0.3627  1.5284
 1904TIP3   OH229906   5.872   1.928  11.401 -0.1418  0.4532  0.2046
 1904TIP3    H129907   5.920   2.004  11.369 -0.1614  1.3258  2.1518
 1904TIP3    H229908   5.941   1.866  11.426 -0.1221 -0.0387 -1.0004
 1905TIP3   OH229909   0.708   2.014  11.411  0.0049  0.4526 -0.3178
 1905TIP3    H129910   0.793   2.049  11.384  0.1754  0.0495 -0.3182
 1905TIP3    H229911   0.712   1.922  11.385 -0.5535  0.5073 -0.6062
 1906TIP3   OH229912   4.109   4.278  11.755  0.5379  0.7760  0.2434
 1906TIP3    H129913   4.145   4.299  11.669  0.3137  0.5266  0.0836
 1906TIP3    H229914   4.066   4.358  11.784  0.7308  0.9012  0.1822
 1907TIP3   OH229915   2.324   5.599  10.850  0.4024  0.6248 -0.3104
 1907TIP3    H129916   2.251   5.558  10.804  1.1558  0.3068 -1.2726
 1907TIP3    H229917   2.393   5.606  10.784  1.1179  1.2524  0.4746
 1908TIP3   OH229918   2.638   3.673  12.761  0.1252  0.1057 -0.2977
 1908TIP3    H129919   2.622   3.606  12.695  4.4645 -0.2137 -1.3409
 1908TIP3    H229920   2.617   3.756  12.717  1.2468 -0.2175 -1.5085
 1909TIP3   OH229921   1.187   2.423  12.753  0.2557 -0.9044  1.0598
 1909TIP3    H129922   1.126   2.350  12.742 -1.0281  0.3171 -0.2429
 1909TIP3    H229923   1.251   2.411  12.683 -1.4262  0.5751 -0.8294
 1910TIP3   OH229924   0.853   4.902  12.187  0.5792  0.5787  0.2903
 1910TIP3    H129925   0.877   4.984  12.229 -0.7820  2.7491 -2.7450
 1910TIP3    H229926   0.768   4.880  12.225 -0.3485  2.1668 -0.7153
 1911TIP3   OH229927   1.056   1.814   9.731  0.8321  0.4322 -0.2791
 1911TIP3    H129928   1.044   1.860   9.648  1.3662  2.4968  0.7241
 1911TIP3    H229929   0.986   1.749   9.732 -0.0640  1.3105 -1.7106
 1912TIP3   OH229930   2.770   0.654  12.849 -0.8857  0.3677 -1.2262
 1912TIP3    H129931   2.837   0.656  12.780  0.4580  0.3746  0.0341
 1912TIP3    H229932   2.817   0.677  12.929 -2.1146 -0.9450 -0.0639
 1913TIP3   OH229933   4.439   0.802   9.898 -0.4397  0.0375  0.3979
 1913TIP3    H129934   4.354   0.836   9.871 -0.6359 -0.4501  0.3936
 1913TIP3    H229935   4.493   0.809   9.819 -0.5685  0.0467  0.3096
 1914TIP3   OH229936   5.502   6.127  10.166  0.2678 -0.2292 -0.8056
 1914TIP3    H129937   5.575   6.122  10.104  0.6152 -2.0768 -0.2999
 1914TIP3    H229938   5.427   6.094  10.117 -0.0136  0.6593 -0.9901
 1915TIP3   OH229939   3.975   1.634  12.941 -0.2138  0.1014  0.0512
 1915TIP3    H129940   4.035   1.697  12.980 -0.6174  0.5677 -0.0786
 1915TIP3    H229941   3.889   1.673  12.950 -0.3558  0.0684 -0.9982
 1916TIP3   OH229942   0.296   6.560  11.540  0.3362 -0.0838 -0.0382
 1916TIP3    H129943   0.233   6.620  11.581  1.8382 -0.5438  3.2083
 1916TIP3    H229944   0.378   6.609  11.538  0.6634 -0.6371 -1.2181
 1917TIP3   OH229945   2.219   5.407   9.679 -1.0373  0.1031  0.0605
 1917TIP3    H129946   2.220   5.341   9.609 -0.8944  1.0147 -0.8124
 1917TIP3    H229947   2.126   5.417   9.700 -1.0654 -0.3326  0.1616
 1918TIP3   OH229948   5.545   0.143  11.914  0.0153 -0.2740  0.4885
 1918TIP3    H129949   5.502   0.226  11.933  1.7608  0.0803  3.4643
 1918TIP3    H229950   5.619   0.166  11.858 -1.2823 -0.3436 -1.3354
 1919TIP3   OH229951   0.978   3.750  10.209 -0.5631  0.5281  0.1321
 1919TIP3    H129952   0.990   3.774  10.117  0.1745  1.7958  0.5340
 1919TIP3    H229953   0.977   3.654  10.209  0.7013  0.4822 -1.0476
 1920TIP3   OH229954   3.938   0.751  10.127 -0.0195  0.1577 -0.0050
 1920TIP3    H129955   3.946   0.672  10.182  0.2422  0.1633 -0.0337
 1920TIP3    H229956   3.848   0.749  10.095 -0.3344  0.4284  0.8457
 1921TIP3   OH229957   2.008   5.779  11.289  0.3170  0.5249 -0.1680
 1921TIP3    H129958   2.035   5.809  11.376 -0.1221 -0.4677  0.3250
 1921TIP3    H229959   2.083   5.729  11.256  0.9483  1.8820 -0.8823
 1922TIP3   OH229960   5.114   2.329  11.186 -0.0963 -0.3340  0.0905
 1922TIP3    H129961   5.189   2.282  11.150  1.7118  1.3674  1.3724
 1922TIP3    H229962   5.061   2.262  11.228  1.1629 -1.5082 -0.1190
 1923TIP3   OH229963   6.855   1.270  12.675  0.0223 -0.1452  0.5370
 1923TIP3    H129964   6.935   1.314  12.702  0.4233 -0.5595  0.0230
 1923TIP3    H229965   6.788   1.305  12.734  0.5902  0.1403  1.0203
 1924TIP3   OH229966   4.255   1.902  11.306  0.1199 -0.2885  0.7086
 1924TIP3    H129967   4.297   1.910  11.220 -1.7836 -0.6593 -0.3171
 1924TIP3    H229968   4.162   1.919  11.289 -0.0524  1.7556  3.0655
 1925TIP3   OH229969   1.664   1.386  12.734 -0.6615  0.1609  0.0336
 1925TIP3    H129970   1.656   1.346  12.647 -1.8065 -1.6737  0.9166
 1925TIP3    H229971   1.622   1.472  12.724  3.6999  2.4017 -2.4657
 1926TIP3   OH229972   6.778   0.202  10.182 -0.2890  0.1855  0.4489
 1926TIP3    H129973   6.862   0.247  10.178  0.4626 -1.1461  0.8892
 1926TIP3    H229974   6.744   0.207  10.092 -1.4776  3.8189  0.9170
 1927TIP3   OH229975   1.249   1.541  10.812 -0.2010 -0.0571  0.9010
 1927TIP3    H129976   1.182   1.492  10.860 -0.6602  0.2783  0.6054
 1927TIP3    H229977   1.215   1.630  10.807 -0.3764 -0.1783 -0.4513
 1928TIP3   OH229978   3.570   2.196  11.662  0.6047 -0.1821  0.3844
 1928TIP3    H129979   3.588   2.121  11.606 -1.6198  0.1207 -0.8450
 1928TIP3    H229980   3.503   2.165  11.723  1.2985  0.1874  1.3713
 1929TIP3   OH229981   5.152   4.318   9.822  0.3607 -0.0953 -0.0606
 1929TIP3    H129982   5.141   4.396   9.876 -0.3937  0.0589 -0.4190
 1929TIP3    H229983   5.089   4.329   9.751 -0.1714 -1.3045  0.1921
 1930TIP3   OH229984   3.956   6.523  10.879  0.2359  0.3040  0.0084
 1930TIP3    H129985   3.968   6.572  10.961 -1.5179  1.8781 -0.5906
 1930TIP3    H229986   4.044   6.515  10.843  1.0153 -0.1493  1.8676
 1931TIP3   OH229987   3.573   3.893  10.891 -0.5890  0.2713  0.5932
 1931TIP3    H129988   3.668   3.882  10.887 -0.4851  0.6456  1.6032
 1931TIP3    H229989   3.553   3.956  10.822 -0.3657 -1.2336 -0.8957
 1932TIP3   OH229990   2.761   5.985  11.850  0.4060 -0.2131 -0.2794
 1932TIP3    H129991   2.800   5.900  11.867 -0.4096 -0.4885  0.2680
 1932TIP3    H229992   2.799   6.013  11.766 -0.4947 -1.8313 -1.2895
 1933TIP3   OH229993   1.139   5.300  12.647  0.2141 -0.2003 -0.9546
 1933TIP3    H129994   1.086   5.308  12.568 -0.9200  0.1530 -0.1731
 1933TIP3    H229995   1.229   5.298  12.614 -0.2300 -0.0920 -2.2548
 1934TIP3   OH229996   2.080   3.464  11.547  0.0556  0.0740 -0.0040
 1934TIP3    H129997   2.109   3.514  11.624  2.8815 -1.2711 -0.0905
 1934TIP3    H229998   2.105   3.374  11.565 -2.3846 -0.9307 -1.0887
 1935TIP3   OH229999   4.376   0.306  11.627  0.0730 -0.5581 -0.1322
 1935TIP3    H130000   4.290   0.285  11.662 -0.0342  0.1032  0.0157
 1935TIP3    H230001   4.391   0.397  11.654  0.2631 -0.2510 -1.2450
 1936TIP3   OH230002   1.766   6.411  10.831  0.2211  0.2500  0.1078
 1936TIP3    H130003   1.775   6.360  10.912  0.3986  2.0474  1.2602
 1936TIP3    H230004   1.687   6.462  10.843 -0.5837 -0.5165 -1.5147
 1937TIP3   OH230005   5.939   3.707  12.169 -0.1037 -0.1723 -0.3671
 1937TIP3    H130006   5.952   3.621  12.129 -0.2456  0.3115 -1.5089
 1937TIP3    H230007   5.862   3.697  12.225  0.3400 -0.9796  0.1092
 1938TIP3   OH230008   1.455   1.536  11.053 -0.0460 -0.2676 -0.0293
 1938TIP3    H130009   1.365   1.524  11.024 -0.0065 -0.8784  0.0935
 1938TIP3    H230010   1.448   1.563  11.145 -0.0842 -1.3060  0.2885
 1939TIP3   OH230011   6.506   2.969  12.007 -0.1039  0.5320  0.0069
 1939TIP3    H130012   6.423   2.982  11.962 -0.5533 -2.5828 -0.2479
 1939TIP3    H230013   6.482   2.954  12.099 -0.1786 -2.8022 -0.4538
 1940TIP3   OH230014   2.768   0.157  13.172  0.0042  0.2109 -0.6092
 1940TIP3    H130015   2.681   0.195  13.159 -1.5844 -2.4108  1.3141
 1940TIP3    H230016   2.777   0.093  13.102  0.3793  0.4614 -0.7920
 1941TIP3   OH230017   4.409   6.469  10.191 -0.4047  0.2050 -0.0129
 1941TIP3    H130018   4.406   6.533  10.119 -0.6980  1.0078  0.6919
 1941TIP3    H230019   4.465   6.510  10.257 -0.4529 -0.3533  0.3803
 1942TIP3   OH230020   2.422   6.101  10.890  0.2720 -0.2916 -0.2107
 1942TIP3    H130021   2.345   6.145  10.924  0.0279 -0.4395 -0.5723
 1942TIP3    H230022   2.446   6.039  10.959  0.3997  0.1393  0.1384
 1943TIP3   OH230023   5.898   2.746  10.493 -0.4204 -0.6804 -0.0498
 1943TIP3    H130024   5.890   2.711  10.404 -0.7294 -0.1952 -0.2207
 1943TIP3    H230025   5.888   2.841  10.482 -2.2964 -0.7480  0.7128
 1944TIP3   OH230026   6.393   1.640  10.229  0.3914 -0.2995 -0.8131
 1944TIP3    H130027   6.385   1.735  10.222 -1.1266 -0.3322  0.1308
 1944TIP3    H230028   6.411   1.623  10.321 -0.5691 -0.9736 -0.7289
 1945TIP3   OH230029   0.403   0.722  12.353  0.2544  0.0552 -0.2403
 1945TIP3    H130030   0.340   0.761  12.414 -0.6199  1.4068 -1.9458
 1945TIP3    H230031   0.476   0.783  12.352  0.2854  0.0122 -0.5204
 1946TIP3   OH230032   2.842   5.332  11.199  0.2440 -0.0970 -0.1620
 1946TIP3    H130033   2.753   5.304  11.176 -0.1273  0.6635  0.3169
 1946TIP3    H230034   2.876   5.373  11.119  0.3049 -0.7093 -0.4566
 1947TIP3   OH230035   4.087   1.096  11.217 -0.2297 -0.3672 -0.4116
 1947TIP3    H130036   4.142   1.024  11.249  3.0067  1.2859 -1.8339
 1947TIP3    H230037   4.051   1.135  11.296  1.9759 -0.5873  0.7820
 1948TIP3   OH230038   6.269   2.441  10.761  0.6814 -0.5625  0.5995
 1948TIP3    H130039   6.329   2.500  10.716 -2.2149  1.2956 -1.1695
 1948TIP3    H230040   6.248   2.373  10.697  0.5701 -0.9667  1.0519
 1949TIP3   OH230041   5.739   4.360  12.648  0.0822  0.0937 -0.4200
 1949TIP3    H130042   5.694   4.436  12.684  0.3733  0.3032 -0.4928
 1949TIP3    H230043   5.828   4.392  12.629  0.2679 -0.3207 -0.2523
 1950TIP3   OH230044   3.987   3.975  13.023 -0.0054 -0.3287 -0.2616
 1950TIP3    H130045   3.920   3.932  13.077  1.6022 -1.7861  0.6869
 1950TIP3    H230046   4.020   4.046  13.078  0.3139 -0.6173 -0.0748
 1951TIP3   OH230047   1.745   3.176  12.508 -0.2632  0.0263  0.3827
 1951TIP3    H130048   1.773   3.254  12.459 -0.1407  0.6056  1.3538
 1951TIP3    H230049   1.650   3.174  12.498 -0.2817  0.3912  0.4876
 1952TIP3   OH230050   1.079   2.435  11.159  0.3165  0.3207 -0.1316
 1952TIP3    H130051   1.165   2.403  11.132  1.3124 -0.2944  3.2720
 1952TIP3    H230052   1.018   2.366  11.133  1.5918 -1.5490  1.5372
 1953TIP3   OH230053   6.403   6.444  10.548  0.5213  0.1507 -0.6505
 1953TIP3    H130054   6.364   6.527  10.519  0.8547  0.9987  1.1601
 1953TIP3    H230055   6.329   6.391  10.577  0.4748  0.7565  0.3823
 1954TIP3   OH230056   1.786   2.161  12.708  0.2151 -0.4938 -0.0014
 1954TIP3    H130057   1.694   2.190  12.709  0.0569 -0.9784 -0.0457
 1954TIP3    H230058   1.781   2.066  12.721  0.7751 -0.3611  1.3637
 1955TIP3   OH230059   6.751   3.833  10.060 -0.4024  0.2491  0.2037
 1955TIP3    H130060   6.670   3.785  10.045  0.4276 -0.7352 -1.3898
 1955TIP3    H230061   6.749   3.856  10.153 -1.5909 -1.4419  0.6328
 1956TIP3   OH230062   5.869   3.752  11.264 -0.3429  0.2120  0.1233
 1956TIP3    H130063   5.775   3.763  11.277 -0.5345 -0.2907 -0.7783
 1956TIP3    H230064   5.888   3.794  11.181  0.1906  0.0919  0.1786
 1957TIP3   OH230065   2.148   6.171  11.331  0.2170  0.3848 -0.4466
 1957TIP3    H130066   2.084   6.225  11.377  1.0869 -0.1182  1.4361
 1957TIP3    H230067   2.226   6.224  11.325  1.0117 -0.5262  1.2329
 1958TIP3   OH230068   2.825   4.263  12.255 -0.3726 -0.2790  0.3750
 1958TIP3    H130069   2.792   4.193  12.310  1.5708 -2.5234 -1.0958
 1958TIP3    H230070   2.882   4.314  12.313 -1.6632  0.0139  1.4229
 1959TIP3   OH230071   3.731   5.845  12.595 -0.2059 -0.0624 -0.8522
 1959TIP3    H130072   3.766   5.907  12.659  0.0361  1.1784 -2.1497
 1959TIP3    H230073   3.809   5.811  12.550 -0.1998 -2.4090  0.7357
 1960TIP3   OH230074   6.830   6.125  10.603  0.2347  0.4290 -0.2811
 1960TIP3    H130075   6.898   6.192  10.592  2.4104 -1.6449 -0.2768
 1960TIP3    H230076   6.831   6.104  10.696 -1.6300  1.5036  0.0250
 1961TIP3   OH230077   4.525   1.061  10.296 -0.6362  0.0839  0.4651
 1961TIP3    H130078   4.541   0.971  10.267  0.1679 -0.3400  2.1378
 1961TIP3    H230079   4.442   1.085  10.254 -0.6045 -1.2332 -0.4148
 1962TIP3   OH230080   0.447   1.733  12.930 -0.5799  0.3193 -0.1895
 1962TIP3    H130081   0.465   1.687  12.848 -0.2524 -1.2935  0.7559
 1962TIP3    H230082   0.508   1.695  12.993 -1.1093  1.2403  0.9147
 1963TIP3   OH230083   4.576   4.720  12.333 -0.4447  0.1625  0.5641
 1963TIP3    H130084   4.550   4.628  12.327  1.0543 -0.3013  0.8176
 1963TIP3    H230085   4.503   4.768  12.292 -0.4640 -1.2661 -1.2040
 1964TIP3   OH230086   5.789   6.543  11.489  0.4961 -0.0260  0.0220
 1964TIP3    H130087   5.870   6.585  11.460 -0.9515  2.0823 -1.2109
 1964TIP3    H230088   5.765   6.589  11.569 -0.6745  1.0463 -0.8994
 1965TIP3   OH230089   5.639   2.132  11.857 -0.7329 -0.4614  0.3773
 1965TIP3    H130090   5.734   2.133  11.847 -0.8365 -1.1651 -0.7668
 1965TIP3    H230091   5.625   2.147  11.951  0.6872 -4.6811  1.4736
 1966TIP3   OH230092   2.147   3.841  11.973 -0.1340 -0.1087  0.0526
 1966TIP3    H130093   2.155   3.877  11.884 -1.0032 -0.1309 -0.0438
 1966TIP3    H230094   2.134   3.747  11.959 -1.2687  0.0219  0.1491
 1967TIP3   OH230095   0.323   6.360  11.745 -0.8287 -0.3403 -0.0910
 1967TIP3    H130096   0.233   6.344  11.774 -0.9722 -1.6021 -1.1131
 1967TIP3    H230097   0.314   6.416  11.669 -0.6940  0.1635  0.2639
 1968TIP3   OH230098   1.109   4.763  10.740  0.4428  0.2673 -0.0334
 1968TIP3    H130099   1.138   4.677  10.709  0.3113 -0.0233  0.6213
 1968TIP3    H230100   1.051   4.743  10.814 -0.1073  0.8978 -0.2840
 1969TIP3   OH230101   6.525   6.777  11.254  0.2195  0.0623 -0.1789
 1969TIP3    H130102   6.595   6.843  11.261  1.4519 -0.8447 -2.5757
 1969TIP3    H230103   6.571   6.694  11.265  0.0156 -0.6662 -3.6963
 1970TIP3   OH230104   6.010   0.597  12.518  0.3416 -0.1438  0.3982
 1970TIP3    H130105   6.011   0.507  12.549 -0.0931 -1.2198 -2.4416
 1970TIP3    H230106   6.057   0.594  12.434 -0.4779  2.0940 -0.2040
 1971TIP3   OH230107   0.244   0.352  12.996  0.5350 -0.0098 -0.1888
 1971TIP3    H130108   0.226   0.392  12.911  1.1845  0.9900  0.1222
 1971TIP3    H230109   0.340   0.348  13.001  0.4921 -0.9205  0.1192
 1972TIP3   OH230110   5.958   3.599  12.553  0.1519 -0.2950 -0.3058
 1972TIP3    H130111   5.876   3.587  12.601  0.1575  0.1762 -0.1653
 1972TIP3    H230112   6.001   3.672  12.598  0.3033 -0.0514 -0.8315
 1973TIP3   OH230113   5.682   5.885  10.277 -0.1600  0.1080  0.0522
 1973TIP3    H130114   5.675   5.826  10.202 -0.2558  1.8503 -1.3839
 1973TIP3    H230115   5.658   5.971  10.242  0.9714  1.2020  1.7959
 1974TIP3   OH230116   5.910   4.407  11.466  0.0857 -0.1739 -0.0865
 1974TIP3    H130117   5.924   4.419  11.372 -0.1850 -1.5942 -0.3357
 1974TIP3    H230118   5.997   4.387  11.501  0.5913  2.4522  0.3792
 1975TIP3   OH230119   1.049   1.023  10.952  0.0393 -0.4641  0.5218
 1975TIP3    H130120   0.970   1.037  10.901  0.4313  0.7194  0.2187
 1975TIP3    H230121   1.061   0.928  10.952  1.0144 -0.4945 -3.1468
 1976TIP3   OH230122   3.387   4.829  11.097 -0.5766  0.4792 -0.5870
 1976TIP3    H130123   3.370   4.788  11.182 -1.3059 -1.9601 -1.8121
 1976TIP3    H230124   3.474   4.797  11.072 -1.3962 -0.9404 -1.8195
 1977TIP3   OH230125   3.886   1.220  10.102 -0.0539  0.3992 -0.2906
 1977TIP3    H130126   3.879   1.216  10.007 -2.0342  2.4845 -0.3087
 1977TIP3    H230127   3.977   1.247  10.118  0.0467  0.9430 -1.6345
 1978TIP3   OH230128   5.245   3.719  10.444 -0.2866  0.4968 -0.3153
 1978TIP3    H130129   5.307   3.678  10.384  0.9458  0.4943  0.9358
 1978TIP3    H230130   5.167   3.734  10.390  0.8048  0.5762 -1.9372
 1979TIP3   OH230131   6.461   2.980  10.811  0.0016 -0.0324  0.1385
 1979TIP3    H130132   6.547   2.992  10.773 -0.0449 -1.6947 -0.5724
 1979TIP3    H230133   6.478   2.938  10.896 -0.0976 -0.4567 -0.0478
 1980TIP3   OH230134   0.586   4.374  11.726 -0.1046  0.0411 -0.3872
 1980TIP3    H130135   0.625   4.443  11.779  0.2995  1.5917 -2.6029
 1980TIP3    H230136   0.640   4.370  11.647 -2.4249 -0.0386 -2.0809
 1981TIP3   OH230137   5.803   4.228   9.812 -0.1231  0.3341  0.1090
 1981TIP3    H130138   5.772   4.182   9.734  0.4441  1.2964 -0.7157
 1981TIP3    H230139   5.739   4.298   9.826 -1.1000 -0.7765  1.4823
 1982TIP3   OH230140   5.973   4.497  11.204  0.1883  0.6773  0.0111
 1982TIP3    H130141   5.898   4.536  11.159  1.9022  3.6440 -0.5038
 1982TIP3    H230142   6.028   4.461  11.134  1.1768  2.1803 -0.0160
 1983TIP3   OH230143   1.207   0.021  11.661 -0.0920  0.3358 -0.4359
 1983TIP3    H130144   1.268  -0.011  11.727  1.3368  1.7550 -0.9794
 1983TIP3    H230145   1.150   0.082  11.708  0.6561  1.0272 -0.3864
 1984TIP3   OH230146   3.362   2.891  12.418  0.2812  0.3175  0.3164
 1984TIP3    H130147   3.343   2.855  12.331 -0.5565 -2.7245  1.6252
 1984TIP3    H230148   3.290   2.952  12.435 -0.4780 -0.3222 -0.4757
 1985TIP3   OH230149   2.560   1.693  12.341  0.6740 -0.2661  0.0509
 1985TIP3    H130150   2.543   1.786  12.323  0.8456 -0.0455  0.9716
 1985TIP3    H230151   2.512   1.675  12.422  0.9186 -0.8961  0.0617
 1986TIP3   OH230152   2.234   5.972  12.782  0.2360 -0.2318  0.4183
 1986TIP3    H130153   2.308   6.000  12.837 -0.4899  0.9775  0.8101
 1986TIP3    H230154   2.222   5.880  12.805 -0.1264  0.2528  2.4533
 1987TIP3   OH230155   1.397   5.549  12.762 -0.5923  1.1324  0.5348
 1987TIP3    H130156   1.479   5.551  12.811 -0.2850  1.5015  0.0230
 1987TIP3    H230157   1.421   5.511  12.677 -0.8209  1.7730  0.1725
 1988TIP3   OH230158   1.471   0.467  12.665 -0.2429  0.2436 -0.1099
 1988TIP3    H130159   1.400   0.530  12.659 -1.2505 -0.9474 -1.1183
 1988TIP3    H230160   1.511   0.484  12.750 -0.3740  2.3241 -0.4107
 1989TIP3   OH230161   3.199   2.950  10.917 -0.6623  0.0664  0.6841
 1989TIP3    H130162   3.160   2.894  10.851 -1.9758  1.7164 -0.0014
 1989TIP3    H230163   3.293   2.945  10.900 -0.7349 -1.7682  0.5747
 1990TIP3   OH230164   5.524   3.684  10.425 -0.0123 -0.2510 -0.1979
 1990TIP3    H130165   5.502   3.631  10.502 -1.4948 -0.0572 -0.4680
 1990TIP3    H230166   5.516   3.774  10.455  1.7682 -0.1291  0.0464
 1991TIP3   OH230167   4.664   3.597  13.040 -0.2016 -0.6430 -0.5788
 1991TIP3    H130168   4.592   3.536  13.058 -1.3907  0.3016 -1.8804
 1991TIP3    H230169   4.636   3.679  13.082 -0.3088 -0.0332 -1.8058
 1992TIP3   OH230170   2.632   3.984  10.812 -0.4202 -0.4274 -0.5636
 1992TIP3    H130171   2.687   3.915  10.775  0.6147 -0.6237  1.2383
 1992TIP3    H230172   2.595   3.946  10.891 -0.1922  0.9111  0.2249
 1993TIP3   OH230173   3.070   4.988  11.222 -0.9554  0.2898  0.2601
 1993TIP3    H130174   3.024   5.012  11.142 -0.3696 -0.1703 -0.2269
 1993TIP3    H230175   3.083   4.893  11.215  2.8269  0.7179 -1.1750
 1994TIP3   OH230176   0.747   1.548  12.113  0.3700  0.4035 -0.2744
 1994TIP3    H130177   0.689   1.548  12.189  1.0071 -0.1222  0.2234
 1994TIP3    H230178   0.745   1.638  12.081  1.4661  1.0825  1.4368
 1995TIP3   OH230179   2.983   2.737  12.482  0.7147  0.2397  0.0610
 1995TIP3    H130180   2.985   2.654  12.530 -1.9274 -0.8585 -1.5108
 1995TIP3    H230181   2.999   2.804  12.548  2.1182 -1.4406  1.5163
 1996TIP3   OH230182   2.706   3.587  11.573 -0.4937  0.2070 -0.1414
 1996TIP3    H130183   2.751   3.525  11.516 -1.0133 -0.3784  0.0787
 1996TIP3    H230184   2.776   3.643  11.607 -0.0095 -0.3289 -0.2481
 1997TIP3   OH230185   1.354   3.514  13.285  0.3362 -0.1352 -0.0685
 1997TIP3    H130186   1.306   3.431  13.296 -2.3228  1.4184  1.0549
 1997TIP3    H230187   1.286   3.578  13.264  2.1622  1.9988  0.1699
 1998TIP3   OH230188   1.255   1.537  12.316  0.3006  0.5233 -0.2202
 1998TIP3    H130189   1.209   1.522  12.234 -0.0467  2.1687 -0.3480
 1998TIP3    H230190   1.348   1.532  12.292  0.1998  0.0513 -0.5237
 1999TIP3   OH230191   5.738   5.825  10.815  0.1859 -0.2353  0.4753
 1999TIP3    H130192   5.809   5.889  10.825 -1.1362  1.8876 -2.2061
 1999TIP3    H230193   5.781   5.748  10.779  1.2187  0.9494 -0.9724
 2000TIP3   OH230194   0.696   3.786  12.499  0.0145 -0.5281  0.1984
 2000TIP3    H130195   0.682   3.779  12.593 -2.6514  0.5835 -0.0525
 2000TIP3    H230196   0.700   3.880  12.482 -0.3842 -0.6972 -0.8897
 2001TIP3   OH230197   5.883   3.702  11.856  0.5428 -0.1904 -0.3384
 2001TIP3    H130198   5.875   3.687  11.761  1.6506  1.3389 -0.7052
 2001TIP3    H230199   5.832   3.631  11.895 -1.0966 -0.0592 -2.1025
 2002TIP3   OH230200   6.696   0.145  12.648  0.1792 -0.1490 -0.2988
 2002TIP3    H130201   6.686   0.125  12.554  0.6548 -0.0649 -0.3687
 2002TIP3    H230202   6.788   0.171  12.657  0.4749 -1.3788  0.4115
 2003TIP3   OH230203   3.711   2.974  12.518 -0.2424  0.2017 -0.6799
 2003TIP3    H130204   3.779   2.908  12.508 -0.3744 -0.3286  1.4293
 2003TIP3    H230205   3.677   2.961  12.607 -0.8635  2.5366 -0.4925
 2004TIP3   OH230206   1.320   3.315  11.233 -0.2116 -0.1048 -0.1029
 2004TIP3    H130207   1.230   3.346  11.228 -0.1432  0.0275 -0.5215
 2004TIP3    H230208   1.373   3.394  11.238  0.0173 -0.1125 -2.0235
 2005TIP3   OH230209   4.444   1.668  12.048 -0.1090  0.0615  0.0949
 2005TIP3    H130210   4.378   1.599  12.054  1.1968 -1.5380 -2.2784
 2005TIP3    H230211   4.476   1.663  11.958  3.1056  0.8555  1.0560
 2006TIP3   OH230212   3.663   6.189  12.922  0.5123 -0.0107 -0.9133
 2006TIP3    H130213   3.752   6.224  12.910  0.2881  1.9976  2.2183
 2006TIP3    H230214   3.674   6.117  12.984 -0.0219  0.1955 -0.5752
 2007TIP3   OH230215   4.717   3.823  12.247  0.1840  0.0262 -0.2498
 2007TIP3    H130216   4.797   3.843  12.295  0.2392 -0.3891 -0.1658
 2007TIP3    H230217   4.684   3.743  12.287 -1.5721  1.4431  1.3088
 2008TIP3   OH230218   2.981   5.198  12.534  0.0427  0.3878 -0.0514
 2008TIP3    H130219   3.000   5.221  12.443 -0.6358  0.0272 -0.2881
 2008TIP3    H230220   2.905   5.141  12.529 -1.2532  1.9520  0.8720
 2009TIP3   OH230221   6.752   6.678  11.358  0.1922 -0.2203 -0.6788
 2009TIP3    H130222   6.771   6.648  11.269 -0.4769 -0.8895 -0.6081
 2009TIP3    H230223   6.777   6.605  11.414 -0.5015 -0.2729 -0.4210
 2010TIP3   OH230224   6.829   3.732  11.141  0.0371 -0.7851  0.4911
 2010TIP3    H130225   6.884   3.805  11.170  0.3053 -1.0395  0.6249
 2010TIP3    H230226   6.890   3.669  11.103 -0.2665 -0.6634 -0.1979
 2011TIP3   OH230227   4.940   5.530  11.885  0.5598  0.4179  0.2291
 2011TIP3    H130228   5.002   5.466  11.919 -0.4724 -0.7314  0.0284
 2011TIP3    H230229   4.890   5.557  11.962 -0.6005 -0.8608 -0.0306
 2012TIP3   OH230230   2.248   1.470  10.351 -0.4429 -0.4332  0.0436
 2012TIP3    H130231   2.230   1.561  10.328 -1.7297 -0.6920 -0.0073
 2012TIP3    H230232   2.268   1.427  10.268  0.6669 -0.1107  0.1210
 2013TIP3   OH230233   5.092   0.297  12.378 -0.0251  0.0547  0.3117
 2013TIP3    H130234   5.093   0.233  12.449  0.6871  0.2708  0.5034
 2013TIP3    H230235   5.170   0.276  12.326 -0.5549 -0.1241 -0.4388
 2014TIP3   OH230236   1.401   5.842  11.736  0.7394 -0.0540 -0.5126
 2014TIP3    H130237   1.453   5.815  11.660  0.8272 -0.3732 -0.3394
 2014TIP3    H230238   1.386   5.761  11.785  1.0642  0.2154  0.0466
 2015TIP3   OH230239   1.026   1.358   9.617  0.1078  1.1585  0.1878
 2015TIP3    H130240   0.973   1.310   9.681  0.6305 -0.6367 -0.6561
 2015TIP3    H230241   0.962   1.398   9.559 -0.3533  1.7762  1.1017
 2016TIP3   OH230242   1.876   3.488  10.288  0.3824  0.3767  0.6870
 2016TIP3    H130243   1.815   3.560  10.273 -2.3773 -1.8287  0.6367
 2016TIP3    H230244   1.935   3.492  10.213 -1.2309  1.1347 -0.6117
 2017TIP3   OH230245   2.567   4.901  12.399 -0.4484 -0.1219 -0.0115
 2017TIP3    H130246   2.511   4.978  12.407  0.5766  1.4421 -4.6103
 2017TIP3    H230247   2.647   4.924  12.447 -0.5261  1.3632 -0.5382
 2018TIP3   OH230248   3.137   2.426  11.167  0.4104 -0.0041  0.3676
 2018TIP3    H130249   3.054   2.382  11.151  1.1475 -1.4450  0.3074
 2018TIP3    H230250   3.128   2.466  11.254 -0.1511 -0.6072  0.5866
 2019TIP3   OH230251   0.770   4.526  10.639 -0.2254  0.4088  0.6328
 2019TIP3    H130252   0.812   4.583  10.575 -2.5087  0.6774 -0.7637
 2019TIP3    H230253   0.684   4.566  10.653 -1.7080 -2.2921  0.0250
 2020TIP3   OH230254   3.506   1.362  11.912 -0.2776  0.0064 -0.1670
 2020TIP3    H130255   3.411   1.376  11.908 -0.4355 -0.9119  0.1411
 2020TIP3    H230256   3.516   1.267  11.918  0.6928  0.0600 -0.8273
 2021TIP3   OH230257   4.639   3.828   9.889  0.3511  0.4064  0.2172
 2021TIP3    H130258   4.735   3.820   9.887  0.2817 -0.3397 -0.4461
 2021TIP3    H230259   4.609   3.780   9.812 -0.7168 -1.4830  1.7239
 2022TIP3   OH230260   0.514   5.328  10.874  0.1549  0.3197  0.0337
 2022TIP3    H130261   0.465   5.374  10.942  0.5129  1.2561 -0.3153
 2022TIP3    H230262   0.565   5.262  10.921 -0.5296  0.1319  0.5272
 2023TIP3   OH230263   4.526   0.861  12.446  0.4807  0.6875  0.3823
 2023TIP3    H130264   4.513   0.942  12.494  2.0502  0.6756  0.8631
 2023TIP3    H230265   4.556   0.798  12.511  0.3613  0.0236 -0.1869
 2024TIP3   OH230266   1.845   0.097  10.341 -0.0314  0.4727 -0.4846
 2024TIP3    H130267   1.904   0.063  10.409  0.3234 -1.1913 -1.5739
 2024TIP3    H230268   1.764   0.114  10.388  0.2820 -0.4039  0.4350
 2025TIP3   OH230269   3.723   0.600  11.114 -0.1454  0.1242  0.0346
 2025TIP3    H130270   3.660   0.620  11.045 -1.1706 -0.7427  0.7028
 2025TIP3    H230271   3.708   0.667  11.181 -2.3933 -1.7276  1.4941
 2026TIP3   OH230272   3.235   5.375  12.756  0.5640 -0.1743 -0.1547
 2026TIP3    H130273   3.203   5.363  12.667 -0.2643 -2.0856  0.3594
 2026TIP3    H230274   3.157   5.369  12.811  1.3065 -1.1354  0.8388
 2027TIP3   OH230275   0.723   0.343  11.309  0.3242  0.1627 -0.4511
 2027TIP3    H130276   0.748   0.304  11.392 -1.6107 -1.2885 -0.4838
 2027TIP3    H230277   0.670   0.419  11.332 -2.7942 -1.9101 -0.1732
 2028TIP3   OH230278   0.096   5.638  11.629  0.6371 -0.0124 -0.0359
 2028TIP3    H130279   0.050   5.589  11.697  0.5363  0.2172  0.0627
 2028TIP3    H230280   0.161   5.577  11.595  0.0023 -0.4736 -0.4477
 2029TIP3   OH230281   3.904   0.044  12.353  0.5591  0.3172  0.4694
 2029TIP3    H130282   3.872  -0.016  12.286  2.1270  0.1272 -0.1513
 2029TIP3    H230283   3.872   0.008  12.435  0.7581 -0.8943  0.0287
 2030TIP3   OH230284   0.491   6.723  10.428 -0.5413 -0.1241 -0.0257
 2030TIP3    H130285   0.477   6.817  10.440 -0.3456 -0.0426 -0.4127
 2030TIP3    H230286   0.474   6.685  10.514 -3.0063 -0.0238 -0.3973
 2031TIP3   OH230287   1.642   5.520  10.527  0.3795 -0.0173 -0.1132
 2031TIP3    H130288   1.588   5.499  10.450  1.8943 -2.4535 -0.6126
 2031TIP3    H230289   1.592   5.587  10.573 -0.8688  1.1280 -2.8941
 2032TIP3   OH230290   0.780   2.966  12.138 -0.1062 -0.4809  0.0655
 2032TIP3    H130291   0.786   2.897  12.204 -0.7412  0.1749  0.8218
 2032TIP3    H230292   0.696   2.950  12.094  1.2869 -2.3042 -2.2146
 2033TIP3   OH230293   1.044   0.737  13.093  0.3406 -0.0800  0.1757
 2033TIP3    H130294   0.997   0.695  13.021  2.2206 -0.0188 -1.1504
 2033TIP3    H230295   0.998   0.708  13.171 -1.3015 -0.7698 -0.9797
 2034TIP3   OH230296   4.834   1.675  11.529  0.3024  0.2183 -0.5240
 2034TIP3    H130297   4.832   1.726  11.610  1.3298 -0.5744  0.0365
 2034TIP3    H230298   4.857   1.738  11.461 -0.5472  0.8881 -0.2017
 2035TIP3   OH230299   6.333   1.660  11.220 -0.7352  1.0097 -0.1190
 2035TIP3    H130300   6.339   1.640  11.126  0.3449  0.0031  0.1362
 2035TIP3    H230301   6.419   1.697  11.241  0.2486 -1.7381  1.0979
 2036TIP3   OH230302   1.685   1.631  13.133  0.3043  0.4786 -0.0259
 2036TIP3    H130303   1.735   1.569  13.187 -0.0785 -0.4325 -0.6794
 2036TIP3    H230304   1.623   1.576  13.085 -1.8989  1.6340  1.3265
 2037TIP3   OH230305   0.714   0.418  12.730 -0.4055 -0.3082  0.4843
 2037TIP3    H130306   0.687   0.332  12.763 -2.2553 -0.8010 -2.0590
 2037TIP3    H230307   0.644   0.444  12.671  1.2783  1.8610 -0.6899
 2038TIP3   OH230308   5.206   0.674  12.992  0.2067  0.2390 -0.0776
 2038TIP3    H130309   5.178   0.695  12.903 -0.3836  0.0189  0.0578
 2038TIP3    H230310   5.134   0.625  13.030  0.0101  1.2128  0.8700
 2039TIP3   OH230311   5.699   2.680  12.784  0.3997  0.4697  0.9204
 2039TIP3    H130312   5.664   2.701  12.871 -1.7095  1.1927 -0.0445
 2039TIP3    H230313   5.682   2.586  12.773  1.4764  0.1795  1.6100
 2040TIP3   OH230314   0.167   3.115  11.947 -0.0806 -0.5873  0.3170
 2040TIP3    H130315   0.167   3.088  12.039  1.5524  0.7563  0.7599
 2040TIP3    H230316   0.179   3.210  11.950 -0.9892 -0.3861 -1.2815
 2041TIP3   OH230317   0.290   5.326  12.561  0.2828  0.4945  0.3636
 2041TIP3    H130318   0.362   5.356  12.506  0.4645  1.5110  1.1132
 2041TIP3    H230319   0.214   5.325  12.502  0.2394  2.6002  0.2809
 2042TIP3   OH230320   5.424   6.204  10.463  0.2378  0.4781 -0.0982
 2042TIP3    H130321   5.453   6.155  10.386 -0.1285  2.8143 -1.8484
 2042TIP3    H230322   5.504   6.242  10.499  0.4424 -0.8231  0.8878
 2043TIP3   OH230323   0.318   0.322  10.650 -0.4955 -0.6027  0.0041
 2043TIP3    H130324   0.240   0.323  10.595 -1.9690 -0.2515  2.0026
 2043TIP3    H230325   0.311   0.401  10.704  0.2951 -1.4764  1.4679
 2044TIP3   OH230326   3.971   1.834  11.243  0.1256  0.1314  0.4102
 2044TIP3    H130327   3.980   1.739  11.241  0.0460  0.1224  0.4820
 2044TIP3    H230328   3.912   1.855  11.170  2.2053  0.3551 -1.2914
 2045TIP3   OH230329   4.676   4.067  10.602 -0.9379  0.1377  0.3803
 2045TIP3    H130330   4.760   4.110  10.585 -0.7093 -0.1709  0.7005
 2045TIP3    H230331   4.640   4.050  10.515  1.2647 -3.5035 -0.0297
 2046TIP3   OH230332   4.181   1.252  10.791 -0.1827  0.3671  0.6838
 2046TIP3    H130333   4.147   1.293  10.711  0.1346 -0.0437  0.3301
 2046TIP3    H230334   4.104   1.239  10.846 -0.4375  0.4583  0.3530
 2047TIP3   OH230335   4.984   0.977  11.886 -0.0605  0.1294 -0.5542
 2047TIP3    H130336   4.995   0.923  11.964 -0.7063  0.6083 -0.1151
 2047TIP3    H230337   4.898   1.018  11.897 -0.0180  0.4643 -1.3595
 2048TIP3   OH230338   0.752   4.370  11.510  0.3162  0.1569  0.1549
 2048TIP3    H130339   0.840   4.408  11.509  0.4824 -0.1294 -2.7677
 2048TIP3    H230340   0.767   4.277  11.496 -0.4182 -0.1678  1.3707
 2049TIP3   OH230341   2.403   2.243  10.432  0.5185  0.1504  0.3498
 2049TIP3    H130342   2.463   2.171  10.446  0.3717 -0.0310  0.0573
 2049TIP3    H230343   2.375   2.234  10.340  0.4729  0.5539  0.3208
 2050TIP3   OH230344   5.758   4.353  10.331  0.3668 -0.6433  0.1212
 2050TIP3    H130345   5.714   4.297  10.395 -0.6872  0.5109  0.4412
 2050TIP3    H230346   5.759   4.440  10.372 -0.0487  0.0537 -1.2835
 2051TIP3   OH230347   6.666   6.532  10.486  0.3057 -0.4692 -0.1413
 2051TIP3    H130348   6.642   6.613  10.442 -0.3515 -0.0669  0.8998
 2051TIP3    H230349   6.582   6.496  10.516  0.7594 -0.3974  1.2933
 2052TIP3   OH230350   5.478   0.621  13.056 -0.2831  0.1228  0.2117
 2052TIP3    H130351   5.490   0.696  13.115 -0.0798 -0.0158  0.3461
 2052TIP3    H230352   5.383   0.607  13.055 -0.2267 -0.4234  1.1994
 2053TIP3   OH230353   2.787   4.752  13.386 -0.4978 -0.1579 -0.0113
 2053TIP3    H130354   2.794   4.839  13.426 -1.5201 -0.4355  0.8452
 2053TIP3    H230355   2.704   4.755  13.339 -0.9101 -0.8928  0.6476
 2054TIP3   OH230356   3.557   6.708  10.063  0.0958  0.2078 -0.2782
 2054TIP3    H130357   3.632   6.762  10.089  0.2838 -0.0208 -0.3482
 2054TIP3    H230358   3.576   6.681   9.973  0.1762 -0.2784 -0.1178
 2055TIP3   OH230359   4.081   6.753  11.783  0.4056 -0.6166 -0.4084
 2055TIP3    H130360   4.033   6.672  11.799  1.2197 -1.2113 -0.8656
 2055TIP3    H230361   4.093   6.756  11.688 -0.1119  0.3447 -0.4584
 2056TIP3   OH230362   1.918   2.503  11.809 -0.2761  0.4926  0.3798
 2056TIP3    H130363   1.985   2.450  11.851  1.2779  0.4337 -1.9828
 2056TIP3    H230364   1.929   2.590  11.846 -0.6245 -0.0617  1.8514
 2057TIP3   OH230365   2.992   2.332  13.130 -0.4100 -0.1655 -0.5880
 2057TIP3    H130366   3.009   2.257  13.073 -0.2016 -0.9293  0.4523
 2057TIP3    H230367   3.016   2.302  13.217 -1.1489  0.8291 -0.0186
 2058TIP3   OH230368   2.360   5.845  11.066  0.0516 -0.2417 -0.1408
 2058TIP3    H130369   2.322   5.767  11.105 -0.5206  0.2573  0.3128
 2058TIP3    H230370   2.308   5.918  11.100  0.8494  0.3840 -0.2014
 2059TIP3   OH230371   6.031   1.895  10.624 -0.1122  0.5726 -0.1124
 2059TIP3    H130372   6.012   1.986  10.648  0.5759  0.5295  0.6435
 2059TIP3    H230373   6.112   1.874  10.671 -0.4818 -0.5576  0.0534
 2060TIP3   OH230374   5.228   6.523   9.960 -0.5139  0.3342 -0.3699
 2060TIP3    H130375   5.303   6.561  10.006 -0.4712 -0.9109  0.6330
 2060TIP3    H230376   5.179   6.477  10.029 -0.1053 -2.1501 -1.6514
 2061TIP3   OH230377   1.152   5.724  12.625  0.3992  0.1622 -0.0294
 2061TIP3    H130378   1.139   5.640  12.669  2.0223  0.1638  0.5422
 2061TIP3    H230379   1.169   5.701  12.534  1.1539 -0.1665  0.1874
 2062TIP3   OH230380   5.929   4.953  12.928  0.3935  0.0283 -0.2864
 2062TIP3    H130381   5.965   5.040  12.910 -1.1019  0.5858 -0.7264
 2062TIP3    H230382   5.846   4.951  12.880 -0.0131 -1.3206  0.4285
 2063TIP3   OH230383   1.148   0.447  12.041  0.6641  0.3877 -0.2025
 2063TIP3    H130384   1.172   0.362  12.005 -1.0698 -0.2765  0.1188
 2063TIP3    H230385   1.154   0.436  12.135  4.4224  1.8937 -0.0911
 2064TIP3   OH230386   4.223   4.307  11.515  0.5067 -0.7509 -0.0142
 2064TIP3    H130387   4.263   4.377  11.465  2.2785 -0.9942  0.9876
 2064TIP3    H230388   4.211   4.236  11.452  0.9434 -0.3879 -0.5127
 2065TIP3   OH230389   3.777   5.299  11.571 -0.1621  0.1239 -0.5547
 2065TIP3    H130390   3.730   5.325  11.492  1.4490  0.1336 -1.5515
 2065TIP3    H230391   3.814   5.214  11.550 -0.8205 -0.5055  0.7014
 2066TIP3   OH230392   0.330   0.068  12.883  0.2062 -0.1407 -0.0578
 2066TIP3    H130393   0.243   0.107  12.883  0.6802  0.9376 -0.1979
 2066TIP3    H230394   0.316  -0.022  12.915 -1.1419 -0.4380 -1.3668
 2067TIP3   OH230395   6.423   4.997  10.483  0.7535 -0.3110  0.6021
 2067TIP3    H130396   6.347   4.944  10.505  1.2480 -1.3435 -0.1028
 2067TIP3    H230397   6.480   4.991  10.559  0.4067 -0.0285  0.8893
 2068TIP3   OH230398   4.758   4.662   9.899  0.2524 -0.1972  0.2698
 2068TIP3    H130399   4.667   4.648   9.873  0.0146 -2.4664  1.9848
 2068TIP3    H230400   4.754   4.732   9.965  0.0780  1.1953 -1.1712
 2069TIP3   OH230401   3.097   5.833  12.124 -0.2989  0.1926 -0.1883
 2069TIP3    H130402   3.165   5.873  12.070  0.7481 -0.9758  0.2276
 2069TIP3    H230403   3.072   5.902  12.186  1.7280  0.1532  0.7523
 2070TIP3   OH230404   2.234   6.052  10.294  0.0241  0.3620  0.0180
 2070TIP3    H130405   2.327   6.033  10.277 -0.2289 -0.9313  0.0142
 2070TIP3    H230406   2.230   6.065  10.388  0.1583  0.1430  0.0550
 2071TIP3   OH230407   0.265   5.182  11.147  0.4475 -0.0559 -0.3373
 2071TIP3    H130408   0.235   5.093  11.128  0.6891 -0.2616  0.2196
 2071TIP3    H230409   0.267   5.186  11.242  1.7496  0.1001 -0.3560
 2072TIP3   OH230410   2.945   5.703  11.795  0.0903  0.2254 -0.1777
 2072TIP3    H130411   2.940   5.667  11.706  0.5360  0.4056 -0.2755
 2072TIP3    H230412   3.008   5.775  11.789  0.7017 -0.2530  0.4554
 2073TIP3   OH230413   5.593   5.077  10.996  0.2883  0.3660 -0.4327
 2073TIP3    H130414   5.587   5.172  10.990 -1.6482  0.3524  0.3564
 2073TIP3    H230415   5.631   5.061  11.082  1.0653  0.4202 -0.7618
 2074TIP3   OH230416   1.650   5.657  10.792 -0.1637  0.1087 -0.1800
 2074TIP3    H130417   1.668   5.576  10.745 -1.1483  1.0214 -2.2460
 2074TIP3    H230418   1.628   5.628  10.881 -0.6507 -1.9022 -0.8922
 2075TIP3   OH230419   0.711   0.802  12.922 -0.6593 -0.2886  0.0525
 2075TIP3    H130420   0.635   0.753  12.890  0.4590 -1.5581 -0.8127
 2075TIP3    H230421   0.785   0.744  12.904  0.5549  1.0545  0.5554
 2076TIP3   OH230422   3.892   2.496  10.745  0.0340  0.0871  0.2853
 2076TIP3    H130423   3.933   2.419  10.704 -0.9735 -0.5842  0.5042
 2076TIP3    H230424   3.853   2.462  10.825 -0.2370  0.8772  0.4949
 2077TIP3   OH230425   1.821   1.986  10.484  0.1719 -0.7054 -0.1485
 2077TIP3    H130426   1.858   1.946  10.405 -0.9690 -0.9797 -0.5581
 2077TIP3    H230427   1.736   2.019  10.456  0.2416  0.2201  0.6945
 2078TIP3   OH230428   4.482   4.577  13.143 -0.2588 -0.6292 -0.6634
 2078TIP3    H130429   4.441   4.521  13.077 -0.4076 -0.5699 -0.6225
 2078TIP3    H230430   4.411   4.634  13.173  0.1414  0.3813 -1.5379
 2079TIP3   OH230431   5.510   5.806   9.971 -0.0500 -0.1295 -0.1883
 2079TIP3    H130432   5.593   5.758   9.965 -0.4824 -0.7451 -1.5180
 2079TIP3    H230433   5.447   5.752   9.923 -0.8736  1.0745 -0.5013
 2080TIP3   OH230434   5.484   1.014  10.196  0.4250  0.1205  0.0137
 2080TIP3    H130435   5.454   1.101  10.225  0.7543 -0.2305  1.5107
 2080TIP3    H230436   5.464   1.012  10.103 -0.9178  1.2564  0.2317
 2081TIP3   OH230437   4.563   1.735  12.644  0.2757  0.4293  0.7151
 2081TIP3    H130438   4.499   1.668  12.622  0.2032  0.7105  0.0539
 2081TIP3    H230439   4.604   1.703  12.725 -1.0308  0.4870  1.4213
 2082TIP3   OH230440   0.183   6.759  13.231  0.7846  0.5969  0.0438
 2082TIP3    H130441   0.186   6.718  13.318  1.2745  0.7884  0.1165
 2082TIP3    H230442   0.113   6.824  13.239 -0.6630 -0.8417 -0.3578
 2083TIP3   OH230443   4.667   1.799  12.071  0.8310 -0.0947  0.2023
 2083TIP3    H130444   4.714   1.756  12.142  1.4769  1.8825  1.0609
 2083TIP3    H230445   4.574   1.784  12.091  0.9937  0.6626  1.6554
 2084TIP3   OH230446   6.442   3.027  13.354  0.2599  0.4169 -0.4565
 2084TIP3    H130447   6.464   2.965  13.424  0.3704  0.3904 -0.5157
 2084TIP3    H230448   6.506   3.009  13.285  1.7489  2.0942  0.4048
 2085TIP3   OH230449   4.100   5.627  10.301 -0.2193 -0.5187 -0.6714
 2085TIP3    H130450   4.125   5.719  10.292 -1.6350  0.1847  1.7159
 2085TIP3    H230451   4.183   5.579  10.293  0.6668  0.9963 -1.1171
 2086TIP3   OH230452   5.134   1.192  11.946  0.6391 -0.4027 -0.3609
 2086TIP3    H130453   5.075   1.125  11.913 -0.4159  0.8700 -1.1615
 2086TIP3    H230454   5.169   1.156  12.027  1.8456 -2.8405 -1.8605
 2087TIP3   OH230455   4.609   2.423  10.878 -0.8864  0.2867 -0.6692
 2087TIP3    H130456   4.618   2.484  10.805 -2.9146  0.4121 -0.8801
 2087TIP3    H230457   4.532   2.454  10.925  0.0274 -0.1628  1.1838
 2088TIP3   OH230458   4.385   5.187  11.813  0.5322 -0.5203  0.0497
 2088TIP3    H130459   4.293   5.178  11.839 -0.5237 -2.1989 -3.6128
 2088TIP3    H230460   4.432   5.127  11.872 -0.7622 -0.1767  1.5072
 2089TIP3   OH230461   6.278   0.915  12.588  0.6591  0.6115 -0.1775
 2089TIP3    H130462   6.243   0.922  12.499  1.5466 -1.5355 -0.7389
 2089TIP3    H230463   6.372   0.924  12.577  0.9879 -1.8750  0.2171
 2090TIP3   OH230464   5.656   3.135  11.822  0.1306 -0.1996  0.0677
 2090TIP3    H130465   5.665   3.081  11.743  1.3725 -1.2384  0.8959
 2090TIP3    H230466   5.744   3.170  11.837 -0.0401 -0.2234  1.1526
 2091TIP3   OH230467   6.303   3.791  12.336  0.0736 -0.5222  0.6529
 2091TIP3    H130468   6.214   3.817  12.361  0.5263  0.1764  1.6540
 2091TIP3    H230469   6.358   3.865  12.364  0.9109 -0.6834 -0.4677
 2092TIP3   OH230470   1.756   1.566  11.225  0.4341 -0.2932  0.3774
 2092TIP3    H130471   1.744   1.546  11.132  1.5349 -0.5116  0.2565
 2092TIP3    H230472   1.827   1.507  11.252  0.2570 -0.0927  1.3088
 2093TIP3   OH230473   2.080   1.394  13.050  0.3011  0.6428  0.2726
 2093TIP3    H130474   2.001   1.349  13.080  1.7614 -1.3995  1.2439
 2093TIP3    H230475   2.075   1.388  12.954 -0.2654 -0.3276  0.3406
 2094TIP3   OH230476   5.829   1.563   9.854  0.0423  0.5479  0.1298
 2094TIP3    H130477   5.838   1.652   9.889 -0.4743  1.0322 -0.9166
 2094TIP3    H230478   5.847   1.572   9.760 -0.8968 -0.2794 -0.1495
 2095TIP3   OH230479   0.605   5.354  11.783 -0.1826 -0.0919  0.3978
 2095TIP3    H130480   0.613   5.442  11.747  0.4797 -0.0136  0.7234
 2095TIP3    H230481   0.511   5.335  11.780 -0.1143 -0.3745 -2.0239
 2096TIP3   OH230482   4.962   3.876  10.536 -0.3607 -0.4168 -0.3155
 2096TIP3    H130483   4.994   3.961  10.506 -1.1175  0.2928  0.8237
 2096TIP3    H230484   4.967   3.881  10.632  0.3233 -1.9540 -0.2414
 2097TIP3   OH230485   1.463   1.502  11.718 -0.0426  0.0255  0.5834
 2097TIP3    H130486   1.451   1.447  11.795 -1.9596  2.0345  1.8264
 2097TIP3    H230487   1.413   1.581  11.736  1.7197  1.7786 -1.5647
 2098TIP3   OH230488   4.976   6.588  12.923  0.4584  0.1010  1.1028
 2098TIP3    H130489   5.026   6.515  12.960  1.3176  0.5206  0.7814
 2098TIP3    H230490   5.032   6.624  12.855 -0.6491  0.0218  0.1043
 2099TIP3   OH230491   4.839   1.711  10.388  0.6682  0.5629  0.2791
 2099TIP3    H130492   4.877   1.798  10.401 -0.5833  1.2686 -0.5237
 2099TIP3    H230493   4.817   1.709  10.294 -1.8441  0.4939  0.7848
 2100TIP3   OH230494   6.784   6.604  11.088  0.6165 -0.0449  0.8251
 2100TIP3    H130495   6.827   6.528  11.048  0.9345  0.7704 -0.4720
 2100TIP3    H230496   6.837   6.679  11.060 -1.4254  0.9884 -0.5997
 2101TIP3   OH230497   0.253   6.140  10.999  0.4196  0.2421  0.0933
 2101TIP3    H130498   0.232   6.232  10.990  3.6188  1.1543  0.7199
 2101TIP3    H230499   0.289   6.114  10.914  0.7640 -0.0556  0.3243
 2102TIP3   OH230500   4.783   4.282  10.947  0.2482  0.0135  0.6008
 2102TIP3    H130501   4.749   4.317  11.030  0.0368 -2.5823  1.7222
 2102TIP3    H230502   4.870   4.320  10.939  0.2274  0.4179  1.9755
 2103TIP3   OH230503   5.741   6.468  12.155 -0.1399  0.1356 -0.3998
 2103TIP3    H130504   5.670   6.416  12.117  0.4634 -0.2660 -1.0096
 2103TIP3    H230505   5.700   6.518  12.225 -0.9017 -0.5518 -0.3410
 2104TIP3   OH230506   1.268   1.514  12.593 -0.2704  0.4925  0.0567
 2104TIP3    H130507   1.283   1.509  12.499  0.0031  1.9472  0.0043
 2104TIP3    H230508   1.227   1.600  12.607  0.6658  0.7664  1.3739
 2105TIP3   OH230509   4.065   1.965  11.971  0.1604  0.2150 -0.8141
 2105TIP3    H130510   4.085   2.030  12.038  0.5892 -1.8116  1.1565
 2105TIP3    H230511   4.150   1.941  11.934  0.0695  0.2707 -1.0653
 2106TIP3   OH230512   1.802   4.048  13.061  0.3638  0.5019 -0.5137
 2106TIP3    H130513   1.859   3.971  13.052 -0.6434 -0.1068 -2.2322
 2106TIP3    H230514   1.723   4.013  13.103 -1.0009  0.0286 -3.2863
 2107TIP3   OH230515   3.408   5.089  11.122  0.2733 -0.7383 -0.6213
 2107TIP3    H130516   3.336   5.125  11.069  1.3346 -2.2329 -3.2983
 2107TIP3    H230517   3.396   4.995  11.118  1.3623 -0.9515  0.4622
 2108TIP3   OH230518   4.678   3.483   9.931  0.2742 -0.5609  1.0974
 2108TIP3    H130519   4.755   3.534   9.955  0.3226 -0.3307  0.4682
 2108TIP3    H230520   4.688   3.466   9.837 -0.2504 -0.8527  1.0885
 2109TIP3   OH230521   2.649   2.701  12.887 -0.3640  0.4615  0.4254
 2109TIP3    H130522   2.633   2.795  12.891 -0.4764  0.4094  2.2156
 2109TIP3    H230523   2.574   2.662  12.933 -1.7613 -0.7464 -2.6202
 2110TIP3   OH230524   6.204   5.635  12.015  0.1703 -0.4372  0.1416
 2110TIP3    H130525   6.163   5.564  11.967 -1.5552 -0.4183  1.5045
 2110TIP3    H230526   6.225   5.597  12.101 -0.6268  0.6352  0.8277
 2111TIP3   OH230527   5.032   3.281  12.022  0.0278 -0.1027  0.3846
 2111TIP3    H130528   5.105   3.246  11.972  0.8917  1.0766  0.7732
 2111TIP3    H230529   4.970   3.209  12.029  1.1672 -1.1327  0.0849
 2112TIP3   OH230530   1.015   2.850  10.172 -0.2350 -0.3209  0.2539
 2112TIP3    H130531   1.083   2.799  10.216 -0.6227 -0.8731  0.2288
 2112TIP3    H230532   1.040   2.941  10.187  0.4956 -0.5177  0.2586
 2113TIP3   OH230533   0.220   3.105  12.220 -0.6709 -0.4359 -0.3394
 2113TIP3    H130534   0.273   3.031  12.248  0.6573 -0.6236 -3.0021
 2113TIP3    H230535   0.267   3.182  12.252  0.1550 -0.6598 -0.9911
 2114TIP3   OH230536   4.260   0.096  11.061 -0.3701 -0.2470 -0.0378
 2114TIP3    H130537   4.238   0.096  10.968 -0.3630  1.0278 -0.0596
 2114TIP3    H230538   4.270   0.004  11.083 -0.6459 -0.5847 -1.2340
 2115TIP3   OH230539   1.028   0.480  10.654 -0.4564  0.1802  0.1743
 2115TIP3    H130540   1.068   0.542  10.715  0.5920 -0.4415  0.1294
 2115TIP3    H230541   1.002   0.406  10.708  0.0640 -0.1787 -0.0627
 2116TIP3   OH230542   0.671   2.135  12.257  0.3757 -0.1495  0.2534
 2116TIP3    H130543   0.675   2.113  12.164  0.2750 -1.1888  0.4852
 2116TIP3    H230544   0.611   2.209  12.261  2.9634  2.1835 -0.8814
 2117TIP3   OH230545   2.208   4.222  10.017  0.1912 -0.1461  0.0663
 2117TIP3    H130546   2.144   4.285   9.984 -0.4646 -0.5244  0.5658
 2117TIP3    H230547   2.182   4.209  10.109  0.7612 -0.5958  0.1671
 2118TIP3   OH230548   2.887   3.260  10.649 -0.3603  0.1685 -0.0175
 2118TIP3    H130549   2.907   3.201  10.721  1.2318  0.6621 -0.0070
 2118TIP3    H230550   2.972   3.295  10.622 -1.3083  3.8882  1.1927
 2119TIP3   OH230551   1.315   4.916  12.787 -0.2012  0.2203  0.7399
 2119TIP3    H130552   1.242   4.922  12.725 -0.4877  0.4343  1.0950
 2119TIP3    H230553   1.369   4.993  12.768  0.2352 -0.2411  0.0964
 2120TIP3   OH230554   6.440   0.761  12.311 -0.0146 -0.1997 -0.4026
 2120TIP3    H130555   6.371   0.824  12.331 -1.0838 -0.9739 -1.4586
 2120TIP3    H230556   6.514   0.788  12.365 -0.9561  0.9959  0.3479
 2121TIP3   OH230557   2.390   5.494  12.963 -0.2386 -0.0786 -0.3173
 2121TIP3    H130558   2.394   5.561  13.032  0.0086 -0.9540  0.5390
 2121TIP3    H230559   2.320   5.435  12.991 -0.8850  0.1621 -1.3905
 2122TIP3   OH230560   0.088   4.324  12.913  0.4484  0.0160 -0.0572
 2122TIP3    H130561   0.057   4.237  12.937  1.4737 -0.4532 -0.3389
 2122TIP3    H230562   0.009   4.376  12.901 -0.1938 -0.9546 -0.1578
 2123TIP3   OH230563   1.639   1.723  10.715  0.2158 -0.1519  0.6883
 2123TIP3    H130564   1.565   1.714  10.655 -0.5886  1.8374  1.3104
 2123TIP3    H230565   1.661   1.633  10.740  0.0048 -0.9814 -1.8585
 2124TIP3   OH230566   3.430   2.685  12.069 -0.0378  0.4260  0.4267
 2124TIP3    H130567   3.487   2.700  12.145 -0.2309  0.9909  0.4635
 2124TIP3    H230568   3.489   2.651  12.002  0.3660  1.0737  0.4430
 2125TIP3   OH230569   6.215   5.548  10.953 -0.4555  0.2737  0.4294
 2125TIP3    H130570   6.166   5.591  10.883 -1.2040  2.1157  1.9912
 2125TIP3    H230571   6.150   5.534  11.023  0.4349 -0.7609  1.0951
 2126TIP3   OH230572   4.839   2.020  13.128 -0.2033  0.2959  0.7373
 2126TIP3    H130573   4.928   2.047  13.105  0.3777 -2.1270 -0.2399
 2126TIP3    H230574   4.826   1.939  13.078 -3.0963  0.7428  0.6202
 2127TIP3   OH230575   2.912   0.901  11.001 -0.0310 -0.4632  0.5195
 2127TIP3    H130576   2.916   0.916  11.096  1.5780 -1.5515  0.6711
 2127TIP3    H230577   2.935   0.985  10.962 -1.5791  0.2487  1.0340
 2128TIP3   OH230578   3.729   1.438  11.752  0.2299  0.0522 -0.0025
 2128TIP3    H130579   3.650   1.423  11.803  0.3432  0.5619  0.3275
 2128TIP3    H230580   3.708   1.405  11.665  1.0445 -3.7339  1.0518
 2129TIP3   OH230581   1.853   3.384  12.291 -0.1043  0.2804 -0.3599
 2129TIP3    H130582   1.854   3.480  12.296  2.2623  0.3430 -0.7052
 2129TIP3    H230583   1.901   3.364  12.210  0.4124 -1.1917  0.2749
 2130TIP3   OH230584   4.895   5.655  11.424  0.6011  0.3928  0.0472
 2130TIP3    H130585   4.917   5.662  11.517  1.3902 -1.3040  0.0347
 2130TIP3    H230586   4.980   5.661  11.379  0.3084  0.4486 -0.5093
 2131TIP3   OH230587   0.065   3.735  11.741  0.8634 -0.5664  0.4438
 2131TIP3    H130588   0.088   3.663  11.682  1.4921  0.2670 -0.3660
 2131TIP3    H230589  -0.005   3.700  11.796 -0.8527 -0.8980 -1.8280
 2132TIP3   OH230590   4.231   4.983  11.630 -0.6097 -0.3484  0.2759
 2132TIP3    H130591   4.151   4.938  11.657 -1.3470 -1.1574 -2.8477
 2132TIP3    H230592   4.205   5.074  11.618 -0.5414 -0.2084  1.1404
 2133TIP3   OH230593   4.979   5.000  11.604  0.1843 -0.0242 -0.1986
 2133TIP3    H130594   4.988   5.045  11.520 -1.0321  0.3202 -0.1647
 2133TIP3    H230595   4.900   4.947  11.595  0.8003 -1.0523  0.2732
 2134TIP3   OH230596   1.961   3.977  11.191  0.4355  0.4918  0.2146
 2134TIP3    H130597   1.924   3.943  11.110  1.2966 -1.7093  0.6697
 2134TIP3    H230598   2.051   4.003  11.168 -0.1175  2.3439 -0.0602
 2135TIP3   OH230599   2.060   0.256  11.901  0.3215 -0.4295 -0.1753
 2135TIP3    H130600   2.110   0.247  11.820  1.8056  1.9653  0.3956
 2135TIP3    H230601   1.970   0.272  11.872  0.7805  0.1535 -1.3313
 2136TIP3   OH230602   2.970   3.819   9.856 -0.6021  0.0657 -0.3509
 2136TIP3    H130603   2.936   3.780   9.936  0.0734 -0.2739 -0.2285
 2136TIP3    H230604   2.942   3.759   9.786 -0.4883 -0.0728 -0.2781
 2137TIP3   OH230605   2.367   0.751  12.306  0.2157  0.1335  0.2654
 2137TIP3    H130606   2.278   0.739  12.337  0.6356 -2.2509  0.6875
 2137TIP3    H230607   2.358   0.765  12.212 -0.6437  0.9190  0.4523
 2138TIP3   OH230608   3.265   4.635  11.660  0.0095 -0.1122  0.1368
 2138TIP3    H130609   3.351   4.654  11.623 -0.1649  0.2935 -0.0698
 2138TIP3    H230610   3.240   4.551  11.620 -0.4230  0.5970 -1.1345
 2139TIP3   OH230611   2.216   0.523  11.425  0.0120  0.1627  0.1336
 2139TIP3    H130612   2.293   0.563  11.465 -0.1783  1.9488 -1.1592
 2139TIP3    H230613   2.142   0.571  11.463 -0.2922  0.3121 -0.6276
 2140TIP3   OH230614   2.105   2.920  12.137 -0.3162  0.0609  0.4941
 2140TIP3    H130615   2.164   2.964  12.198  0.0049 -2.6246  2.2828
 2140TIP3    H230616   2.018   2.931  12.175 -0.2502 -0.6458  0.8761
 2141TIP3   OH230617   5.330   5.522  12.734 -0.4274  0.3442  0.1296
 2141TIP3    H130618   5.331   5.489  12.824  1.4122  0.1105  0.0585
 2141TIP3    H230619   5.416   5.560  12.721 -1.0352  1.3577 -1.2048
 2142TIP3   OH230620   0.680   2.470  12.932 -0.0923  0.0516 -0.3790
 2142TIP3    H130621   0.676   2.404  12.863 -0.3598  1.6165 -1.9286
 2142TIP3    H230622   0.662   2.553  12.888  2.1218  1.4513  1.1254
 2143TIP3   OH230623   6.759   4.466  12.240 -0.1858  0.2452 -0.3893
 2143TIP3    H130624   6.683   4.456  12.183  0.7572  0.4592 -1.7381
 2143TIP3    H230625   6.752   4.555  12.274 -0.4026  0.3510 -0.7072
 2144TIP3   OH230626   5.072   2.132  12.998  0.4341  0.0857  0.1736
 2144TIP3    H130627   5.064   2.218  12.957  0.6236  1.2037  2.3169
 2144TIP3    H230628   5.158   2.133  13.039  1.0351 -1.7138 -0.9656
 2145TIP3   OH230629   0.674   5.399  12.861 -0.1509  0.0150 -0.3547
 2145TIP3    H130630   0.730   5.384  12.938 -0.2984  1.0452 -0.0273
 2145TIP3    H230631   0.659   5.494  12.861 -0.2851  0.0067 -1.5674
 2146TIP3   OH230632   6.549   1.771  11.029  0.1291  0.2091  0.3725
 2146TIP3    H130633   6.581   1.802  10.944 -2.0740  0.2023 -0.5183
 2146TIP3    H230634   6.549   1.675  11.021  0.6347  0.1755  0.6886
 2147TIP3   OH230635   5.924   6.230  11.956  0.4689  0.1378  0.1791
 2147TIP3    H130636   5.991   6.211  12.022  1.8823  2.2552 -0.5717
 2147TIP3    H230637   5.879   6.308  11.989  0.0928  0.2575 -0.5881
 2148TIP3   OH230638   1.573   5.158  13.040  0.2022  0.6076 -0.3893
 2148TIP3    H130639   1.520   5.079  13.029  1.1454 -0.3645  1.5599
 2148TIP3    H230640   1.525   5.211  13.103 -0.3345  1.5507 -1.5514
 2149TIP3   OH230641   3.837   2.073  10.375 -0.2672 -0.6578  0.5139
 2149TIP3    H130642   3.839   2.114  10.289 -0.8094 -0.7009  0.4777
 2149TIP3    H230643   3.799   2.139  10.433  1.6388  0.0093  1.0859
 2150TIP3   OH230644   1.215   4.268   9.846  0.2549 -0.3973 -0.2772
 2150TIP3    H130645   1.152   4.196   9.848 -0.9000  0.5900  1.4945
 2150TIP3    H230646   1.233   4.281   9.753 -3.0128 -0.0316 -0.9906
 2151TIP3   OH230647   3.807   5.460  12.015 -0.7360  0.2994 -0.7257
 2151TIP3    H130648   3.887   5.415  11.987 -1.0358 -1.1482  0.6119
 2151TIP3    H230649   3.738   5.394  12.006 -1.0075  0.0064  2.3374
 2152TIP3   OH230650   5.530   2.389  10.868  0.0294 -0.0011  0.2924
 2152TIP3    H130651   5.587   2.428  10.934  0.4722  2.3981 -1.3430
 2152TIP3    H230652   5.571   2.413  10.784 -1.4284 -1.3893 -0.8904
 2153TIP3   OH230653   4.805   3.698  12.776 -0.1482 -0.2202  0.0984
 2153TIP3    H130654   4.879   3.640  12.792 -0.0694  0.3093  1.9090
 2153TIP3    H230655   4.767   3.712  12.863 -0.8862  1.4773 -0.4624
 2154TIP3   OH230656   3.759   3.236  10.152 -0.3265  0.0271  0.5147
 2154TIP3    H130657   3.754   3.188  10.070  0.4682 -0.9867  1.0400
 2154TIP3    H230658   3.757   3.329  10.126  2.2379 -0.2060 -0.8520
 2155TIP3   OH230659   3.900   5.988  12.809 -0.1296  0.4142  0.4642
 2155TIP3    H130660   3.920   6.073  12.769  2.6275 -0.5187 -0.3495
 2155TIP3    H230661   3.968   5.975  12.874  0.4579 -1.7920 -0.4843
 2156TIP3   OH230662   1.524   3.955  11.315 -0.2573  0.1927 -0.0140
 2156TIP3    H130663   1.471   4.022  11.272 -0.8165  0.3624  0.9300
 2156TIP3    H230664   1.588   4.005  11.367 -0.6542  0.0041  0.6654
 2157TIP3   OH230665   3.140   1.761  12.086 -1.2672 -0.5179 -0.7563
 2157TIP3    H130666   3.235   1.773  12.076 -1.4977  1.1328 -1.1304
 2157TIP3    H230667   3.131   1.720  12.172 -0.2184 -0.6162 -0.6719
 2158TIP3   OH230668   3.975   5.060  11.158 -0.5912 -0.6095  0.2478
 2158TIP3    H130669   3.955   4.985  11.213 -1.4771 -0.1540  0.5656
 2158TIP3    H230670   3.952   5.032  11.070  1.9710 -1.7789 -0.1514
 2159TIP3   OH230671   6.591   5.727  11.659 -0.2794  0.0588 -0.7176
 2159TIP3    H130672   6.604   5.650  11.604  0.6100  0.7623 -1.5307
 2159TIP3    H230673   6.666   5.783  11.640  0.0974  0.3184  1.2499
 2160TIP3   OH230674   6.441   3.446  12.627  0.2654 -0.3510 -0.5217
 2160TIP3    H130675   6.500   3.417  12.558  0.9025  0.4674 -0.3464
 2160TIP3    H230676   6.426   3.539  12.608 -1.2728 -0.6254 -0.7678
 2161TIP3   OH230677   6.776   1.848  10.041  0.4899 -0.8410  0.0712
 2161TIP3    H130678   6.700   1.845   9.983 -0.9881  2.0385  1.6534
 2161TIP3    H230679   6.850   1.860   9.982 -0.6313 -0.6449 -1.3558
 2162TIP3   OH230680   4.174   6.343  11.277 -0.4733  0.1069  0.1993
 2162TIP3    H130681   4.117   6.321  11.204 -0.4144 -0.5905  0.3611
 2162TIP3    H230682   4.172   6.439  11.280  0.6243  0.2403 -1.5883
 2163TIP3   OH230683   2.201   2.510  13.169  0.0618 -0.1079 -0.3077
 2163TIP3    H130684   2.189   2.458  13.249 -0.1409  1.1679  0.5184
 2163TIP3    H230685   2.141   2.583  13.179  0.6649  0.5353 -1.2286
 2164TIP3   OH230686   5.163   6.609  12.713 -0.2528 -0.2403 -0.1201
 2164TIP3    H130687   5.120   6.534  12.674  2.4807 -1.7549 -0.4703
 2164TIP3    H230688   5.189   6.663  12.638 -0.8738  0.3178  0.0524
 2165TIP3   OH230689   4.379   4.369  12.992 -0.1686  0.6064  0.4209
 2165TIP3    H130690   4.350   4.331  13.075 -0.7410 -0.6503 -0.3381
 2165TIP3    H230691   4.299   4.400  12.950 -0.0701 -0.1828 -0.3586
 2166TIP3   OH230692   1.506   1.090  12.704  0.1885  0.5081  0.0673
 2166TIP3    H130693   1.476   1.018  12.759 -0.8931 -0.1976 -1.3761
 2166TIP3    H230694   1.442   1.160  12.720 -0.1459  0.2912 -0.3136
 2167TIP3   OH230695   3.724   1.799  12.321  0.1683 -0.8668 -0.6213
 2167TIP3    H130696   3.818   1.799  12.339  0.3300  0.2012 -1.3825
 2167TIP3    H230697   3.717   1.783  12.227 -0.3886 -0.4247 -0.6600
 2168TIP3   OH230698   2.939   4.265  12.521  0.2514 -0.0758  0.3064
 2168TIP3    H130699   2.928   4.358  12.544 -0.3248 -0.2887  0.9137
 2168TIP3    H230700   3.033   4.250  12.530  0.4870  0.6805 -0.7152
 2169TIP3   OH230701   4.389   0.054  13.385  0.2080 -0.4214 -0.6880
 2169TIP3    H130702   4.362   0.112  13.313  2.5686 -1.1555 -2.2697
 2169TIP3    H230703   4.419   0.114  13.454  0.7527  0.2867 -1.5229
 2170TIP3   OH230704   4.784   6.692  10.561 -0.2831 -0.2030  0.2931
 2170TIP3    H130705   4.761   6.745  10.637  2.1072 -0.3938  1.2281
 2170TIP3    H230706   4.873   6.719  10.539 -0.2126 -1.5348 -1.2615
 2171TIP3   OH230707   3.519   4.061  11.165  0.2283  0.5821  0.4054
 2171TIP3    H130708   3.506   3.985  11.109  1.7799 -0.9115  1.9539
 2171TIP3    H230709   3.506   4.136  11.107 -2.1349 -0.7809 -1.0198
 2172TIP3   OH230710   2.356   0.236  12.193 -0.6946 -0.1856 -0.4835
 2172TIP3    H130711   2.381   0.258  12.283  1.0392  0.3376 -1.0594
 2172TIP3    H230712   2.334   0.143  12.197 -0.6198 -0.1775  0.4706
 2173TIP3   OH230713   4.538   5.467  12.916 -0.2512 -1.1294 -0.1571
 2173TIP3    H130714   4.528   5.499  12.827  1.7073  1.7328  0.4887
 2173TIP3    H230715   4.455   5.487  12.959 -0.6772 -1.1455 -0.9716
 2174TIP3   OH230716   4.932   0.892  11.001  0.1615  0.2477 -0.5856
 2174TIP3    H130717   4.907   0.957  11.067 -2.2896 -0.7756 -0.3944
 2174TIP3    H230718   4.870   0.905  10.930 -0.2932 -1.7202 -0.6134
 2175TIP3   OH230719   4.639   3.598  12.397  0.0310  0.2743 -0.9300
 2175TIP3    H130720   4.679   3.573  12.479 -0.1758  1.8184 -0.3221
 2175TIP3    H230721   4.569   3.534  12.383  0.4157 -0.3110 -0.1874
 2176TIP3   OH230722   4.654   2.915  12.494 -0.4542 -0.0192 -0.1247
 2176TIP3    H130723   4.702   2.975  12.437 -0.9128  0.4233 -0.0511
 2176TIP3    H230724   4.631   2.967  12.570 -0.0290 -0.5514  0.3800
 2177TIP3   OH230725   5.143   6.551  10.730 -0.2000 -0.2338  0.5439
 2177TIP3    H130726   5.212   6.555  10.796 -0.9170 -0.6442  1.3423
 2177TIP3    H230727   5.084   6.483  10.761  0.1095 -1.3792 -1.2004
 2178TIP3   OH230728   3.886   5.398   9.816 -0.5046  0.0242 -0.1337
 2178TIP3    H130729   3.814   5.337   9.800  0.5463 -0.7992 -2.0901
 2178TIP3    H230730   3.843   5.482   9.834 -1.9488 -0.8174  0.5258
 2179TIP3   OH230731   6.490   3.528  12.007  0.7611 -0.2018  0.0691
 2179TIP3    H130732   6.561   3.524  12.071  0.6883  1.6075  0.3055
 2179TIP3    H230733   6.449   3.613  12.021 -0.8850 -0.8247 -0.6898
 2180TIP3   OH230734   3.529   1.371   9.984 -0.1040 -0.1529 -0.3232
 2180TIP3    H130735   3.458   1.307   9.986 -0.0305 -0.2483 -0.7678
 2180TIP3    H230736   3.580   1.348   9.907 -0.3737  0.7504 -0.7855
 2181TIP3   OH230737   4.641   0.689  10.847 -0.0455 -0.0951  0.1188
 2181TIP3    H130738   4.647   0.612  10.791 -0.0401 -0.0804  0.0994
 2181TIP3    H230739   4.587   0.751  10.798 -0.7322 -0.3922  0.4823
 2182TIP3   OH230740   5.692   3.415  12.124 -0.0976  0.3331 -0.2797
 2182TIP3    H130741   5.665   3.488  12.069  0.3931 -0.5075 -1.7087
 2182TIP3    H230742   5.764   3.374  12.076 -0.5818 -1.2925  0.2988
 2183TIP3   OH230743   0.012   4.110  12.313 -0.0481 -0.6555 -0.0850
 2183TIP3    H130744   0.082   4.161  12.353 -0.9689  0.2926  0.3665
 2183TIP3    H230745   0.055   4.031  12.282  1.1541 -0.2568  0.4962
 2184TIP3   OH230746   5.361   1.517  10.726 -0.2225  0.0293  0.7482
 2184TIP3    H130747   5.363   1.445  10.789  0.7036 -1.1828 -0.5792
 2184TIP3    H230748   5.368   1.596  10.779  0.1906 -0.9185  2.1763
 2185TIP3   OH230749   2.832   4.075   9.776 -0.2038  0.5966  0.2282
 2185TIP3    H130750   2.760   4.051   9.718 -0.9734  0.6136  1.1534
 2185TIP3    H230751   2.879   3.993   9.791  2.0711  1.1325 -3.0798
 2186TIP3   OH230752   1.958   6.696  11.520  0.3589  0.4735 -0.3516
 2186TIP3    H130753   1.881   6.734  11.562 -1.9669 -3.2996 -0.7259
 2186TIP3    H230754   1.952   6.721  11.428 -0.6919 -0.0746 -0.4432
 2187TIP3   OH230755   4.492   3.194  11.842 -0.2591  0.5492 -0.0431
 2187TIP3    H130756   4.442   3.230  11.915 -0.3817  2.0488 -0.8298
 2187TIP3    H230757   4.571   3.247  11.838 -0.2767  0.5209 -1.0166
 2188TIP3   OH230758   4.489   4.330   9.820  0.3020  0.0463  0.0536
 2188TIP3    H130759   4.425   4.317   9.890  1.2380 -0.1094  0.8994
 2188TIP3    H230760   4.500   4.425   9.815  0.4934  0.0419  0.3636
 2189TIP3   OH230761   6.311   0.382  12.584  0.1503  0.3921  0.4215
 2189TIP3    H130762   6.281   0.424  12.503  0.8923 -0.3715 -0.2700
 2189TIP3    H230763   6.233   0.379  12.639 -0.4244  0.7317 -0.3444
 2190TIP3   OH230764   3.636   0.949  11.170  0.4047 -0.1393 -0.2745
 2190TIP3    H130765   3.722   0.928  11.207  0.3559 -1.7264 -1.0010
 2190TIP3    H230766   3.631   0.899  11.089 -1.8162 -1.3372  0.5129
 2191TIP3   OH230767   2.270   6.209  12.614 -0.1198 -0.1500 -0.0792
 2191TIP3    H130768   2.286   6.118  12.638 -1.9423 -0.7739 -1.0512
 2191TIP3    H230769   2.298   6.215  12.523  0.7788  0.5073  0.2279
 2192TIP3   OH230770   1.625   0.381  11.220 -0.1089  0.0128  0.5598
 2192TIP3    H130771   1.625   0.306  11.161  1.5041  0.4720 -0.0590
 2192TIP3    H230772   1.550   0.433  11.191 -2.0522 -1.9158  1.8206
 2193TIP3   OH230773   1.388   0.032  10.671 -0.1598  0.0325  0.2422
 2193TIP3    H130774   1.350  -0.055  10.661 -1.1307  0.4385  0.2676
 2193TIP3    H230775   1.316   0.092  10.649  0.1838  0.8417  1.2369
 2194TIP3   OH230776   6.492   2.752  10.246 -0.0554  0.4133  0.2015
 2194TIP3    H130777   6.450   2.687  10.189  1.4931  0.0863 -0.6030
 2194TIP3    H230778   6.467   2.836  10.208  0.7795  0.2032 -0.8619
 2195TIP3   OH230779   1.238   4.575  11.794  0.5503  0.1437 -0.3763
 2195TIP3    H130780   1.172   4.603  11.730 -1.2316 -2.5437  0.1307
 2195TIP3    H230781   1.245   4.647  11.856 -2.5026  0.2706 -0.0699
 2196TIP3   OH230782   5.107   1.208  11.093 -0.0007 -0.2539 -0.1091
 2196TIP3    H130783   5.118   1.244  11.181 -1.8870  0.0862  0.0375
 2196TIP3    H230784   5.191   1.167  11.073  1.7746  2.8176  0.3737
 2197TIP3   OH230785   2.429   3.246  10.844 -0.3170 -0.4701  0.0516
 2197TIP3    H130786   2.381   3.172  10.808 -2.1246 -0.2961  1.8857
 2197TIP3    H230787   2.514   3.210  10.868 -0.4567 -1.4537 -0.8544
 2198TIP3   OH230788   3.806   0.502  11.427  0.6663 -0.6720 -0.2148
 2198TIP3    H130789   3.848   0.585  11.450 -1.5910  0.1034  1.5417
 2198TIP3    H230790   3.736   0.527  11.366 -0.4798 -1.1342  0.8774
 2199TIP3   OH230791   5.632   4.214  11.992 -0.2235 -0.4824  0.1916
 2199TIP3    H130792   5.625   4.138  11.934 -1.9974 -1.1309  1.1690
 2199TIP3    H230793   5.564   4.200  12.058 -1.2080  2.3681 -0.0583
 2200TIP3   OH230794   5.145   5.652  11.217 -0.4620 -0.1020  0.2042
 2200TIP3    H130795   5.136   5.732  11.270 -0.0913  1.3330 -1.7714
 2200TIP3    H230796   5.239   5.646  11.199 -0.7405  0.3683 -1.5689
 2201TIP3   OH230797   2.794   1.418  12.615 -0.1439  0.4059 -0.9668
 2201TIP3    H130798   2.698   1.425  12.607 -0.1744 -0.7614 -2.1124
 2201TIP3    H230799   2.807   1.364  12.693 -0.4613  0.1229 -1.0998
 2202TIP3   OH230800   5.969   0.757  11.357  0.1604  0.3991  0.3309
 2202TIP3    H130801   5.969   0.717  11.270 -1.5344  1.9247 -0.4282
 2202TIP3    H230802   5.948   0.684  11.416 -0.1028 -0.3888 -0.6880
 2203TIP3   OH230803   5.579   6.731  12.279  0.1825  0.6632 -0.1750
 2203TIP3    H130804   5.572   6.782  12.359 -0.9182  0.0808  0.1307
 2203TIP3    H230805   5.502   6.674  12.281 -0.0485  0.8671 -1.8010
 2204TIP3   OH230806   2.297   6.738  11.450  0.3931  0.0175 -0.5632
 2204TIP3    H130807   2.248   6.735  11.532  2.3544  0.1517  0.6978
 2204TIP3    H230808   2.304   6.831  11.429  0.6083  0.0407 -0.3987
 2205TIP3   OH230809   3.821   5.738  11.817 -0.5402  0.3076 -0.2553
 2205TIP3    H130810   3.813   5.831  11.796 -1.1296  0.7524  1.7572
 2205TIP3    H230811   3.895   5.733  11.877  1.9362 -1.0959 -3.1431
 2206TIP3   OH230812   4.462   6.843  10.682  0.1239  0.3605 -0.2938
 2206TIP3    H130813   4.555   6.829  10.697  0.0382 -0.2239 -0.2813
 2206TIP3    H230814   4.424   6.755  10.682 -0.0396  0.3557 -2.8375
 2207TIP3   OH230815   2.068   2.045  11.963  0.3784  0.5614 -0.3404
 2207TIP3    H130816   1.984   2.053  11.918  0.0182 -0.1988  0.1882
 2207TIP3    H230817   2.067   2.114  12.029 -0.5053 -0.4084  0.7054
 2208TIP3   OH230818   4.245   0.308  12.193 -1.1001  0.0395  0.4580
 2208TIP3    H130819   4.234   0.228  12.142  1.1755 -1.4930  2.2008
 2208TIP3    H230820   4.181   0.301  12.263 -1.1642 -0.0487  0.3907
 2209TIP3   OH230821   4.319   5.681  12.065 -0.3134  0.3212  0.0806
 2209TIP3    H130822   4.405   5.650  12.035 -0.9725 -0.5808 -0.9690
 2209TIP3    H230823   4.263   5.604  12.057 -1.6320  1.3523 -1.0070
 2210TIP3   OH230824   6.821   4.347  11.141 -0.4649 -0.5616  0.2317
 2210TIP3    H130825   6.803   4.384  11.228  1.4812 -0.3951  0.5981
 2210TIP3    H230826   6.883   4.408  11.101 -2.1744 -0.0126 -1.7827
 2211TIP3   OH230827   2.594   3.845  11.958  0.1643  0.0675  0.1460
 2211TIP3    H130828   2.534   3.884  11.895 -0.0361  0.9900  0.8785
 2211TIP3    H230829   2.553   3.860  12.043  0.7474 -0.5523  0.5495
 2212TIP3   OH230830   0.032   2.746   9.883  0.1313 -0.1949 -0.1594
 2212TIP3    H130831   0.014   2.823   9.829 -0.6102 -1.2295 -1.4507
 2212TIP3    H230832   0.013   2.774   9.973  1.2249  1.5173 -0.4220
 2213TIP3   OH230833   1.146   6.477  12.630 -0.0863  0.1853 -0.5152
 2213TIP3    H130834   1.071   6.536  12.630 -0.7374 -0.6092  0.0890
 2213TIP3    H230835   1.152   6.445  12.540 -0.0742  0.7196 -0.7121
 2214TIP3   OH230836   1.210   5.698  10.132 -0.1892 -0.2884 -0.1491
 2214TIP3    H130837   1.199   5.638  10.058  0.3619 -1.1792  0.4789
 2214TIP3    H230838   1.287   5.750  10.108 -1.6416  1.3917 -1.4768
 2215TIP3   OH230839   6.216   6.744  12.725 -0.4662  0.0768  0.7007
 2215TIP3    H130840   6.294   6.799  12.733 -1.3316  1.4574 -0.0018
 2215TIP3    H230841   6.198   6.714  12.814  0.4728  0.2851  0.9719
 2216TIP3   OH230842   0.027   5.212  12.775 -0.2349 -0.0628 -0.0389
 2216TIP3    H130843  -0.007   5.295  12.808  1.3559  0.3039  0.7409
 2216TIP3    H230844  -0.024   5.196  12.695 -0.3587  1.8096 -0.3775
 2217TIP3   OH230845   6.785   5.834  11.496 -0.2951  0.1080  0.0863
 2217TIP3    H130846   6.840   5.904  11.459 -0.2693  0.2241  0.3410
 2217TIP3    H230847   6.847   5.764  11.515 -0.3017  0.0647 -0.0459
 2218TIP3   OH230848   6.116   3.407  12.421  0.0435 -0.1312  0.0851
 2218TIP3    H130849   6.135   3.362  12.503  1.1449 -0.5964 -0.4074
 2218TIP3    H230850   6.073   3.488  12.447  1.4748  0.3086  1.2067
 2219TIP3   OH230851   2.360   3.804  12.457  0.1693  0.6106  0.9489
 2219TIP3    H130852   2.331   3.750  12.530 -0.5848  0.4750  0.5657
 2219TIP3    H230853   2.293   3.873  12.450  0.2158  0.6061  0.3751
 2220TIP3   OH230854   0.180   4.106  11.579 -0.8179 -0.0779 -0.0986
 2220TIP3    H130855   0.108   4.079  11.636  1.6208 -1.3762  2.6612
 2220TIP3    H230856   0.235   4.161  11.634  1.2932 -0.7531 -1.3908
 2221TIP3   OH230857   6.016   3.923  12.329 -0.1332  0.1969  0.6729
 2221TIP3    H130858   5.975   3.850  12.282 -0.0918  1.1841 -1.0131
 2221TIP3    H230859   5.982   4.001  12.284 -0.7714  1.2771  2.9017
 2222TIP3   OH230860   4.706   6.233  10.819 -0.3998  0.1221 -0.1796
 2222TIP3    H130861   4.698   6.139  10.802  1.4306  0.2386 -2.1383
 2222TIP3    H230862   4.779   6.261  10.763 -1.2159  2.8144 -0.0284
 2223TIP3   OH230863   4.663   0.319  12.021  0.3252  0.7726  0.3234
 2223TIP3    H130864   4.606   0.243  12.014  1.7419 -0.3232  0.1409
 2223TIP3    H230865   4.654   0.364  11.937  1.4655 -0.6947 -0.6341
 2224TIP3   OH230866   6.616   1.473  12.626  0.1970 -0.3890 -0.0824
 2224TIP3    H130867   6.661   1.471  12.541  2.0945  0.1872  0.8397
 2224TIP3    H230868   6.678   1.517  12.684 -0.3800 -2.1492  1.9846
 2225TIP3   OH230869   0.210   0.241  11.176 -0.2857 -0.4442 -0.0332
 2225TIP3    H130870   0.256   0.171  11.129 -0.1955  0.1854 -0.9072
 2225TIP3    H230871   0.165   0.196  11.247 -0.6476 -1.4713 -0.8769
 2226TIP3   OH230872   1.312   0.359  11.057  0.1672  0.0079  0.1742
 2226TIP3    H130873   1.302   0.289  11.121 -1.1639 -0.2814 -0.3116
 2226TIP3    H230874   1.316   0.440  11.109 -0.6236 -0.2421  0.6293
 2227TIP3   OH230875   1.626   0.091  12.776  0.0791  0.1232  0.3328
 2227TIP3    H130876   1.532   0.097  12.797 -0.3493 -0.3472 -1.2915
 2227TIP3    H230877   1.634   0.010  12.726  1.0183  1.0687 -1.1240
 2228TIP3   OH230878   1.813   4.159  11.628  0.1065  0.3423  0.2853
 2228TIP3    H130879   1.836   4.116  11.546 -0.4717  0.3190  0.1263
 2228TIP3    H230880   1.825   4.253  11.610  1.5157  0.2570  0.6801
 2229TIP3   OH230881   2.134   3.599  11.803  0.2401 -0.2470 -0.0854
 2229TIP3    H130882   2.216   3.623  11.759 -0.6520  0.4234 -1.4383
 2229TIP3    H230883   2.158   3.527  11.861  2.2128  1.2696  1.1149
 2230TIP3   OH230884   3.089   4.184  11.971 -0.1140  0.5522 -0.0507
 2230TIP3    H130885   3.046   4.209  11.889 -1.7215 -0.5138  0.4371
 2230TIP3    H230886   3.036   4.113  12.007  1.1463  0.2774  1.4151
 2231TIP3   OH230887   6.521   5.045  10.870 -0.1017  0.2999  0.2456
 2231TIP3    H130888   6.553   5.094  10.945  2.2141  3.0660 -2.2463
 2231TIP3    H230889   6.588   5.059  10.803 -1.3611 -3.0708 -1.9757
 2232TIP3   OH230890   4.441   1.066  12.001 -0.6031 -0.2699  0.0207
 2232TIP3    H130891   4.498   1.007  12.051  1.1000 -0.7757 -2.3522
 2232TIP3    H230892   4.496   1.141  11.981 -2.4071  1.7206  2.0004
 2233TIP3   OH230893   3.567   0.813  11.819  0.0244 -0.2072  0.3975
 2233TIP3    H130894   3.617   0.773  11.748 -0.7777 -0.9852  0.2522
 2233TIP3    H230895   3.577   0.754  11.893 -1.7071 -1.0916 -0.0116
 2234TIP3   OH230896   6.513   5.260  11.047 -0.0152  0.2960 -0.5717
 2234TIP3    H130897   6.462   5.196  11.098 -0.7062 -0.2039 -1.8423
 2234TIP3    H230898   6.596   5.267  11.094 -1.2301  1.1722  1.5977
 2235TIP3   OH230899   6.754   2.271  12.937  0.1840 -0.2000 -0.0825
 2235TIP3    H130900   6.700   2.318  12.872  0.7815 -0.7139 -0.9682
 2235TIP3    H230901   6.694   2.256  13.010 -0.1047  1.7202  0.1460
 2236TIP3   OH230902   2.605   1.966  11.636  0.0034 -0.1760 -0.1036
 2236TIP3    H130903   2.561   2.036  11.685 -1.3575 -0.0347 -1.4497
 2236TIP3    H230904   2.682   2.009  11.599  0.7246 -0.1365  1.3809
 2237TIP3   OH230905   4.266   6.082  11.141 -0.0912 -0.1146  0.0677
 2237TIP3    H130906   4.307   6.134  11.072  0.5911  0.6457  1.0040
 2237TIP3    H230907   4.269   5.992  11.109  1.5136  0.0425 -0.3001
 2238TIP3   OH230908   6.377   3.274  12.015 -0.0366 -0.3522  0.5975
 2238TIP3    H130909   6.421   3.358  12.009 -0.8367  0.2676  2.6099
 2238TIP3    H230910   6.416   3.231  12.091 -2.2383 -0.1315  1.9324
 2239TIP3   OH230911   5.972   5.182   9.735  0.9001 -0.2450  0.2054
 2239TIP3    H130912   5.885   5.192   9.775  1.3290 -1.0851  1.4193
 2239TIP3    H230913   5.997   5.270   9.710 -0.2902  0.0132 -0.1242
 2240TIP3   OH230914   5.033   1.119  12.358  0.4485 -0.0742 -0.4858
 2240TIP3    H130915   4.998   1.196  12.401  0.1242 -0.3198 -0.3107
 2240TIP3    H230916   4.991   1.045  12.401  0.3712 -0.3342 -0.9924
 2241TIP3   OH230917   4.461   1.692  11.312 -0.0075  0.2513  0.4978
 2241TIP3    H130918   4.416   1.703  11.228 -0.6530 -0.0818  0.7862
 2241TIP3    H230919   4.497   1.778  11.332  2.4615 -0.2289 -1.3739
 2242TIP3   OH230920   0.060   5.305  12.412  0.0274  0.3285 -0.0546
 2242TIP3    H130921   0.007   5.369  12.459 -1.0631  0.3720 -1.2911
 2242TIP3    H230922   0.051   5.330  12.319  2.3166  0.4082 -0.3026
 2243TIP3   OH230923   5.093   6.563  12.106  0.1341  0.2038 -0.0403
 2243TIP3    H130924   5.105   6.641  12.160  0.1229  1.2135 -1.4385
 2243TIP3    H230925   5.167   6.564  12.045 -0.0485 -0.6895 -0.2900
 2244TIP3   OH230926   3.077   3.236  11.006 -0.0819  0.1055 -0.2285
 2244TIP3    H130927   3.155   3.203  10.961 -1.0593 -2.9041  0.0404
 2244TIP3    H230928   3.111   3.283  11.082  1.4803  1.1458 -1.5146
 2245TIP3   OH230929   5.472   6.521  10.616  0.1187 -1.0957 -0.9191
 2245TIP3    H130930   5.444   6.543  10.704  2.1495 -1.9128 -0.0101
 2245TIP3    H230931   5.509   6.433  10.623  1.6983 -0.6028 -2.2370
 2246TIP3   OH230932   5.776   0.533  12.314 -0.5159 -0.8677 -0.7036
 2246TIP3    H130933   5.826   0.474  12.370  1.1361  0.7626 -0.3731
 2246TIP3    H230934   5.765   0.484  12.232  0.2459 -1.8656 -0.2289
 2247TIP3   OH230935   2.893   0.135  11.257  0.2858 -0.1655 -0.6988
 2247TIP3    H130936   2.835   0.177  11.321 -0.7864 -1.0676 -1.0379
 2247TIP3    H230937   2.905   0.046  11.291  0.5959 -0.3195 -1.1954
 2248TIP3   OH230938   4.055   2.151  12.231 -0.8518  0.3856  0.7537
 2248TIP3    H130939   3.983   2.212  12.241 -0.8335  0.2018  2.1389
 2248TIP3    H230940   4.114   2.193  12.168 -1.6296  1.0349  0.4524
 2249TIP3   OH230941   4.921   5.879  13.042  0.5402  0.6180 -0.5095
 2249TIP3    H130942   4.838   5.857  13.085  1.0271 -0.4146 -0.0467
 2249TIP3    H230943   4.947   5.797  12.999  1.9634  0.5441  0.4550
 2250TIP3   OH230944   5.107   4.134  11.332 -0.5616 -0.6554  0.4639
 2250TIP3    H130945   5.095   4.061  11.392  1.0939  1.4329  3.5809
 2250TIP3    H230946   5.138   4.206  11.387 -1.3435  2.2188 -2.5250
 2251TIP3   OH230947   2.143   4.131  11.384  0.0577  0.0544  0.7553
 2251TIP3    H130948   2.138   4.101  11.294 -0.1153  0.2676  0.6921
 2251TIP3    H230949   2.096   4.214  11.384  1.4045  0.8496  0.6958
 2252TIP3   OH230950   6.217   1.092  10.576  0.2622  0.7804  0.1621
 2252TIP3    H130951   6.241   1.181  10.550 -0.4331  1.3109  1.2533
 2252TIP3    H230952   6.270   1.074  10.653 -0.9679  0.9980  1.0806
 2253TIP3   OH230953   3.111   5.145  11.440  0.3740  0.3484 -0.4732
 2253TIP3    H130954   3.204   5.121  11.448 -0.1058 -1.3243  0.7456
 2253TIP3    H230955   3.079   5.091  11.367 -0.0941 -0.7327  0.5015
 2254TIP3   OH230956   1.997   2.161  12.879  0.1632 -0.4213  0.1818
 2254TIP3    H130957   1.916   2.142  12.831  0.8163 -0.8583 -0.7628
 2254TIP3    H230958   2.001   2.094  12.947 -1.3599  0.8804  1.6577
 2255TIP3   OH230959   2.314   3.602  10.495  0.4668  0.6700 -0.2397
 2255TIP3    H130960   2.351   3.610  10.407 -0.1100  0.3513 -0.5202
 2255TIP3    H230961   2.364   3.531  10.536  3.3462  3.2419  1.0818
 2256TIP3   OH230962   5.136   4.119  10.525  0.4195  0.2539 -0.6958
 2256TIP3    H130963   5.072   4.152  10.462  0.4948 -0.6671 -1.2713
 2256TIP3    H230964   5.174   4.198  10.563  0.0760  0.8316 -1.5066
 2257TIP3   OH230965   6.639   0.336  11.038 -0.0061  0.1519  0.0729
 2257TIP3    H130966   6.644   0.243  11.064 -0.7402  0.4765  1.4972
 2257TIP3    H230967   6.605   0.380  11.116  0.8940  1.7135 -0.3828
 2258TIP3   OH230968   1.883   1.278  12.132  0.0040 -0.3302  0.2963
 2258TIP3    H130969   1.913   1.357  12.087 -0.3307 -0.8224 -0.8328
 2258TIP3    H230970   1.959   1.248  12.182  0.4233  0.1793 -0.0251
 2259TIP3   OH230971   4.705   1.829   9.776 -0.0453  0.4209  0.1197
 2259TIP3    H130972   4.698   1.734   9.769 -0.6294  0.5134 -0.6433
 2259TIP3    H230973   4.769   1.843   9.846  0.8641 -0.5433 -0.4911
 2260TIP3   OH230974   3.774   2.907  10.681 -0.6921  0.4488  0.0825
 2260TIP3    H130975   3.748   2.817  10.661 -0.7293  0.4078  0.3213
 2260TIP3    H230976   3.697   2.959  10.659  0.0355  0.6884 -2.1959
 2261TIP3   OH230977   6.843   4.993   9.742  0.1998  0.2312  0.3711
 2261TIP3    H130978   6.773   5.017   9.803 -0.4353 -0.6566  0.0109
 2261TIP3    H230979   6.808   5.017   9.656 -1.4237 -3.7615 -0.3111
 2262TIP3   OH230980   4.726   5.738  12.531  0.2484 -0.1327  0.3221
 2262TIP3    H130981   4.679   5.818  12.557  0.3815  0.3348 -0.7867
 2262TIP3    H230982   4.686   5.713  12.448  1.7388  0.1099 -0.5096
 2263TIP3   OH230983   2.761   0.437  11.874 -0.8642  0.0421 -0.1548
 2263TIP3    H130984   2.715   0.362  11.913  0.3403 -0.5742  0.1198
 2263TIP3    H230985   2.850   0.406  11.860  0.1904  1.9837  1.6972
 2264TIP3   OH230986   5.255   4.811  11.837  0.0484 -0.4420  0.0164
 2264TIP3    H130987   5.196   4.751  11.791  1.0372 -1.4795  0.0294
 2264TIP3    H230988   5.227   4.807  11.929  0.9601 -2.0197  0.2680
 2265TIP3   OH230989   3.491   1.422  10.901  0.3764  0.0300  0.2334
 2265TIP3    H130990   3.444   1.477  10.963  1.2312  0.7681  0.2498
 2265TIP3    H230991   3.422   1.377  10.851 -0.4225  2.5679 -1.1099
 2266TIP3   OH230992   1.382   6.837  11.175 -0.0636  0.0207 -0.0644
 2266TIP3    H130993   1.360   6.782  11.099 -0.3547  1.1190 -0.8077
 2266TIP3    H230994   1.389   6.775  11.248  1.4319 -1.2335 -1.2010
 2267TIP3   OH230995   5.101   1.852  10.538  0.3363  0.0075 -0.1723
 2267TIP3    H130996   5.035   1.904  10.493  2.0679  0.7061 -2.0961
 2267TIP3    H230997   5.057   1.820  10.617 -1.5819  2.2446 -0.2112
 2268TIP3   OH230998   6.658   0.742  12.496 -0.0631  0.0838 -0.1721
 2268TIP3    H130999   6.591   0.700  12.551 -1.6270  2.7687  0.1372
 2268TIP3    H231000   6.735   0.686  12.506 -1.8510 -2.4310  0.5001
 2269TIP3   OH231001   6.323   0.822  10.693  0.0988 -0.4583 -0.0881
 2269TIP3    H131002   6.365   0.908  10.693 -0.2197 -0.2901 -0.8752
 2269TIP3    H231003   6.394   0.760  10.679  0.1330 -0.1889 -1.2582
 2270TIP3   OH231004   0.082   2.669  11.725  0.2788  0.0167  0.0161
 2270TIP3    H131005   0.117   2.643  11.810 -0.4542 -0.7350  0.1043
 2270TIP3    H231006   0.021   2.740  11.745  0.2295 -0.0502  0.1060
 2271TIP3   OH231007   4.377   5.166  11.354 -0.4444  0.3280  0.2234
 2271TIP3    H131008   4.317   5.192  11.425  0.0795 -1.1991  1.2680
 2271TIP3    H231009   4.463   5.161  11.396  0.6254  3.0335 -1.3723
 2272TIP3   OH231010   1.301   1.272  12.806 -0.2855 -0.1518 -0.4777
 2272TIP3    H131011   1.225   1.225  12.772 -0.7829  0.7731 -0.6686
 2272TIP3    H231012   1.312   1.347  12.747 -0.3922  0.7814  0.6379
 2273TIP3   OH231013   4.621   1.282  11.968 -0.4703  0.6756  0.4180
 2273TIP3    H131014   4.621   1.367  11.923  0.0434  0.6632  0.3952
 2273TIP3    H231015   4.708   1.246  11.951 -1.8862 -1.7297 -3.1447
 2274TIP3   OH231016   6.130   5.574   9.890 -0.1769 -0.1250 -0.2254
 2274TIP3    H131017   6.110   5.509   9.823  0.3412 -0.1729 -0.3361
 2274TIP3    H231018   6.129   5.658   9.844  3.8157 -0.4232 -1.1645
 2275TIP3   OH231019   6.610   6.766  10.356  0.0932 -0.2704 -0.5594
 2275TIP3    H131020   6.632   6.738  10.267 -1.2163  2.0777 -1.6954
 2275TIP3    H231021   6.515   6.767  10.359  0.0738  2.3330 -0.0802
 2276TIP3   OH231022   1.523   6.427  11.823  0.3805 -0.5800  0.4238
 2276TIP3    H131023   1.429   6.411  11.824  0.2313  0.1577 -0.2945
 2276TIP3    H231024   1.558   6.362  11.763 -0.3023  1.9153 -3.0011
 2277TIP3   OH231025   3.008   6.731  10.058 -0.4806 -0.1001 -0.5194
 2277TIP3    H131026   3.063   6.720  10.137 -0.0103 -0.1054 -0.8418
 2277TIP3    H231027   3.070   6.726   9.985 -0.9700 -0.5337 -0.9170
 2278TIP3   OH231028   3.240   6.555  10.730  0.3727  0.4425  0.8967
 2278TIP3    H131029   3.157   6.508  10.716 -0.1735  0.8193  2.6399
 2278TIP3    H231030   3.301   6.486  10.757  1.3375 -0.2296 -2.5778
 2279TIP3   OH231031   4.981   1.374  10.340 -0.0448 -0.1867  0.0001
 2279TIP3    H131032   5.023   1.416  10.415 -0.4472 -0.5427  0.4223
 2279TIP3    H231033   4.917   1.314  10.378 -0.9075  0.3110 -0.6345
 2280TIP3   OH231034   6.143   2.611  10.385  0.6621 -0.1585  0.3463
 2280TIP3    H131035   6.132   2.666  10.307 -0.1582  0.7977  1.1066
 2280TIP3    H231036   6.206   2.658  10.439 -1.4578  1.1285  1.8805
 2281TIP3   OH231037   4.063   2.311  12.648  0.1997 -0.0552  0.4299
 2281TIP3    H131038   4.096   2.230  12.608  1.0179  0.4644  0.0241
 2281TIP3    H231039   4.034   2.364  12.574  0.4697  0.3653  0.6216
 2282TIP3   OH231040   0.798   1.928  12.819  0.2781  0.3419 -0.7723
 2282TIP3    H131041   0.762   1.851  12.862 -0.1545  0.9576 -0.0089
 2282TIP3    H231042   0.857   1.893  12.752 -1.6983 -0.6953 -2.0658
 2283TIP3   OH231043   1.257   1.463   9.699 -0.2836 -0.3090  0.0020
 2283TIP3    H131044   1.173   1.421   9.682 -0.8524 -0.0121  1.8438
 2283TIP3    H231045   1.318   1.390   9.710  0.0949 -0.5202 -2.8254
 2284TIP3   OH231046   6.069   1.336  10.263 -0.3085  0.6975 -0.1547
 2284TIP3    H131047   6.084   1.263  10.202  0.9769  0.3800  0.5135
 2284TIP3    H231048   6.019   1.297  10.335  0.4401  0.4379  0.2365
 2285TIP3   OH231049   3.844   5.275  10.493  0.1226  0.1793 -0.0458
 2285TIP3    H131050   3.762   5.228  10.478 -0.5048  1.0950  0.3662
 2285TIP3    H231051   3.867   5.311  10.407 -0.4943  0.8086  0.0418
 2286TIP3   OH231052   6.403   3.915  11.732  0.3748  0.3890  1.0896
 2286TIP3    H131053   6.493   3.930  11.763  0.9580  0.6077 -0.5826
 2286TIP3    H231054   6.410   3.918  11.637 -1.6969  2.1537  0.8951
 2287TIP3   OH231055   6.541   3.897  11.184 -0.2292 -0.2103 -0.0230
 2287TIP3    H131056   6.615   3.947  11.219 -0.1090 -0.2519 -0.2196
 2287TIP3    H231057   6.558   3.890  11.091 -1.1380  0.9238 -0.3050
 2288TIP3   OH231058   5.850   3.436  11.388 -0.6930  1.0111 -0.8829
 2288TIP3    H131059   5.810   3.522  11.375 -0.8151  1.1897  0.4773
 2288TIP3    H231060   5.827   3.412  11.478  0.1727 -0.0063 -0.9039
 2289TIP3   OH231061   1.764   0.707  10.407 -1.0920  0.2187 -0.1219
 2289TIP3    H131062   1.790   0.650  10.335 -1.4487 -2.1791  1.5594
 2289TIP3    H231063   1.669   0.706  10.407 -1.1745  2.2418 -1.0809
 2290TIP3   OH231064   3.600   4.281  11.021  0.2645 -0.0084  0.0024
 2290TIP3    H131065   3.636   4.253  10.936  0.5429  2.4146 -0.7727
 2290TIP3    H231066   3.656   4.355  11.047 -0.4997 -0.0153  1.7837
 2291TIP3   OH231067   1.601   0.172  11.044 -0.2506  0.1613 -0.1674
 2291TIP3    H131068   1.631   0.156  10.955 -0.7674 -2.6277  0.0378
 2291TIP3    H231069   1.509   0.144  11.044 -1.2472  3.0555  0.5721
 2292TIP3   OH231070   0.674   0.851  12.325  0.3055 -0.6198 -0.4970
 2292TIP3    H131071   0.724   0.778  12.361  0.1751  0.5410  2.3291
 2292TIP3    H231072   0.679   0.919  12.393  0.0911  1.8826 -2.7879
 2293TIP3   OH231073   1.171   5.454  10.445 -0.1165 -0.2550 -0.1191
 2293TIP3    H131074   1.232   5.483  10.512 -0.8795 -1.8030  1.3186
 2293TIP3    H231075   1.134   5.535  10.409  2.5004  0.7223 -0.8524
 2294TIP3   OH231076   2.992   3.578  10.730 -0.1342  0.2994 -0.2396
 2294TIP3    H131077   3.073   3.626  10.747 -0.1972  1.1379 -2.0697
 2294TIP3    H231078   3.021   3.487  10.718  0.4958  0.5212 -0.4745
 2295TIP3   OH231079   6.194   3.760  11.832  0.3441  0.0496  0.5678
 2295TIP3    H131080   6.211   3.674  11.792  0.0662  0.2781 -0.0495
 2295TIP3    H231081   6.273   3.811  11.812  0.5054 -0.0564  0.9264
 2296TIP3   OH231082   2.389   5.821   9.722  1.2571  0.0931 -0.0857
 2296TIP3    H131083   2.351   5.798   9.807  0.3605 -0.0061 -0.4964
 2296TIP3    H231084   2.341   5.768   9.659  1.1250  0.9806 -0.7639
 2297TIP3   OH231085   6.828   0.197  11.655  0.2058 -0.2350 -0.2282
 2297TIP3    H131086   6.791   0.110  11.669  1.8624 -1.0767 -0.7969
 2297TIP3    H231087   6.885   0.211  11.730  2.3136 -1.0030 -1.6069
 2298TIP3   OH231088   3.368   0.989  10.848 -0.1287 -0.0824 -0.7681
 2298TIP3    H131089   3.318   0.918  10.807  0.0096 -0.1587 -0.8024
 2298TIP3    H231090   3.451   0.950  10.873 -0.7071 -0.4039  0.8183
 2299TIP3   OH231091   6.626   3.307  12.491 -0.1952 -0.1727 -0.0984
 2299TIP3    H131092   6.718   3.331  12.483  0.3764 -1.1166  2.6492
 2299TIP3    H231093   6.627   3.217  12.522 -2.1049 -0.6228 -1.1890
 2300TIP3   OH231094   0.258   1.958  11.222  0.4901 -0.2190 -0.6168
 2300TIP3    H131095   0.323   1.887  11.229 -1.7089 -2.5529 -2.0027
 2300TIP3    H231096   0.305   2.036  11.252  3.7462 -1.8179 -1.0336
 2301TIP3   OH231097   3.973   0.735  12.512 -0.3752  0.4103  0.3534
 2301TIP3    H131098   4.066   0.715  12.513 -0.5874 -0.8484 -0.9616
 2301TIP3    H231099   3.932   0.655  12.480 -1.8568  1.1185  0.3929
 2302TIP3   OH231100   3.002   4.069  10.697  0.3311 -0.1979 -0.2793
 2302TIP3    H131101   2.979   4.048  10.607  0.2546 -0.3555 -0.2229
 2302TIP3    H231102   3.050   3.992  10.729  0.2061 -0.2158 -0.1308
 2303TIP3   OH231103   1.266   6.094  11.725  0.3430 -0.2922 -0.2019
 2303TIP3    H131104   1.190   6.097  11.666 -1.0053 -0.4694  1.4516
 2303TIP3    H231105   1.282   6.000  11.738  0.6877 -0.2543 -0.3662
 2304TIP3   OH231106   5.411   5.897  10.444 -0.1360  0.7196  0.4814
 2304TIP3    H131107   5.455   5.933  10.367  1.0098 -2.8758 -0.7809
 2304TIP3    H231108   5.387   5.808  10.417 -0.9083 -0.2191  3.8694
 2305TIP3   OH231109   6.714   4.025  10.449 -0.2063  0.3765 -0.6833
 2305TIP3    H131110   6.795   4.012  10.399 -0.2716 -3.1914 -0.1495
 2305TIP3    H231111   6.744   4.052  10.536  0.1504  2.1981 -1.3231
 2306TIP3   OH231112   2.654   5.429  11.921  0.1543  0.2485 -0.2692
 2306TIP3    H131113   2.737   5.394  11.888  0.6882  0.6796  0.5670
 2306TIP3    H231114   2.635   5.376  11.998 -1.4598 -1.2392 -1.6050
 2307TIP3   OH231115   5.295   0.923  12.997 -0.0906 -0.1648  0.1765
 2307TIP3    H131116   5.371   0.949  13.049 -0.9264  1.9354  0.4856
 2307TIP3    H231117   5.294   0.828  13.001  0.8219 -0.1548  2.6765
 2308TIP3   OH231118   2.046   6.530  11.872  0.3573  0.1929  0.7163
 2308TIP3    H131119   2.045   6.437  11.894  1.0808 -0.7425 -2.6479
 2308TIP3    H231120   2.110   6.568  11.933  2.0366 -2.0595  0.4942
 2309TIP3   OH231121   3.222   0.315  13.148  0.2768 -0.6042  0.7636
 2309TIP3    H131122   3.157   0.283  13.210  0.6394 -1.7291  0.5733
 2309TIP3    H231123   3.234   0.244  13.085 -1.0522  0.9674 -1.4101
 2310TIP3   OH231124   4.565   1.609  12.906  0.0946 -0.0908 -0.7150
 2310TIP3    H131125   4.649   1.562  12.907 -0.5443 -1.3754  1.4928
 2310TIP3    H231126   4.584   1.693  12.948 -0.0929 -1.4199  2.3671
 2311TIP3   OH231127   4.114   0.683  12.956  0.3829  0.2194  0.4102
 2311TIP3    H131128   4.042   0.709  12.899  0.8381  1.5067  0.3680
 2311TIP3    H231129   4.081   0.698  13.045 -0.5231 -2.3121  0.5705
 2312TIP3   OH231130   0.467   1.083  10.841  0.8534 -0.8776  0.1489
 2312TIP3    H131131   0.474   1.122  10.754 -1.1576 -0.8358 -0.0416
 2312TIP3    H231132   0.517   1.141  10.898 -0.6234  1.0745 -0.4323
 2313TIP3   OH231133   0.603   2.285  10.892  0.3179  0.3576 -0.2295
 2313TIP3    H131134   0.530   2.344  10.914  0.5072  0.0533  1.3481
 2313TIP3    H231135   0.571   2.234  10.817 -2.4182 -1.9308  2.2168
 2314TIP3   OH231136   1.724   6.472  11.494  0.3535 -0.3619 -0.2614
 2314TIP3    H131137   1.743   6.536  11.563  0.0699  0.3887 -0.8521
 2314TIP3    H231138   1.800   6.415  11.492  0.0136 -0.9062  1.2121
 2315TIP3   OH231139   1.423   6.123   9.763  0.2317 -0.3078  0.6087
 2315TIP3    H131140   1.478   6.045   9.770  0.9479  0.2204  0.9992
 2315TIP3    H231141   1.484   6.194   9.744 -0.3045  0.3064  1.1293
 2316TIP3   OH231142   6.020   0.092  12.703 -0.7362 -0.3080  0.1876
 2316TIP3    H131143   6.081   0.019  12.694 -0.1214  0.0442  1.2943
 2316TIP3    H231144   5.980   0.080  12.789 -0.3931  0.8024  0.5248
 2317TIP3   OH231145   0.528   5.729  10.483 -0.1049 -0.2520 -0.0512
 2317TIP3    H131146   0.488   5.772  10.407 -0.2185 -0.8684 -0.3425
 2317TIP3    H231147   0.606   5.781  10.501 -0.1252 -0.0484 -0.5380
 2318TIP3   OH231148   6.246   6.093  13.082 -0.0245 -0.7112  0.5258
 2318TIP3    H131149   6.192   6.153  13.031 -0.0299 -0.5777  0.6876
 2318TIP3    H231150   6.320   6.146  13.112  2.1155 -1.6567 -2.5721
 2319TIP3   OH231151   0.415   6.491  11.065 -0.4157  0.6064  0.5277
 2319TIP3    H131152   0.443   6.490  10.974 -1.3506 -0.4281  0.2392
 2319TIP3    H231153   0.473   6.555  11.107  1.5740 -0.5540 -0.3009
 2320TIP3   OH231154   4.482   3.483  11.607 -0.0638  0.0161 -0.4049
 2320TIP3    H131155   4.552   3.480  11.672 -0.6597  0.7586  0.3036
 2320TIP3    H231156   4.423   3.552  11.639 -0.9636 -0.3966 -1.1244
 2321TIP3   OH231157   3.952   2.879  11.874  0.3739  0.9184 -0.0096
 2321TIP3    H131158   3.917   2.853  11.789 -0.6863  3.4927 -0.4560
 2321TIP3    H231159   3.877   2.870  11.934  0.4574  1.3476  0.1586
 2322TIP3   OH231160   2.045   3.664  11.287  0.3695 -0.3508 -0.2094
 2322TIP3    H131161   1.987   3.723  11.336  1.2491  1.5347 -1.3310
 2322TIP3    H231162   2.132   3.703  11.296  0.8936 -1.1817 -1.4706
 2323TIP3   OH231163   6.630   5.764  12.266  0.1306 -0.1795 -0.0596
 2323TIP3    H131164   6.580   5.720  12.335 -1.7519  0.7663 -0.7564
 2323TIP3    H231165   6.676   5.835  12.311 -2.5027  1.5825  0.0622
 2324TIP3   OH231166   3.720   5.721  10.939  0.5208 -0.7289 -0.1591
 2324TIP3    H131167   3.742   5.635  10.976 -0.2567 -1.0584 -0.4401
 2324TIP3    H231168   3.738   5.783  11.010  0.8463 -1.1492  0.1309
 2325TIP3   OH231169   3.303   6.277  12.786  0.5611  0.2691  0.2182
 2325TIP3    H131170   3.348   6.197  12.760  0.4303  0.5249 -0.8377
 2325TIP3    H231171   3.214   6.248  12.806  0.8919 -0.0655  1.2499
 2326TIP3   OH231172   4.133   5.082  10.579 -0.1568  0.1433 -0.6650
 2326TIP3    H131173   4.218   5.113  10.610 -1.2515  1.3589  1.4221
 2326TIP3    H231174   4.147   5.057  10.488  2.4155  0.2542 -0.3567
 2327TIP3   OH231175   4.441   3.156  10.596 -0.3574  0.1094  0.1208
 2327TIP3    H131176   4.457   3.077  10.648  2.0104  1.2058  1.2078
 2327TIP3    H231177   4.372   3.202  10.643  0.3680  0.1187  1.2233
 2328TIP3   OH231178   5.337   0.229  11.652  0.3997  0.1171  0.2396
 2328TIP3    H131179   5.424   0.213  11.615  0.0940  2.9164 -2.0767
 2328TIP3    H231180   5.349   0.305  11.709 -0.2438 -0.5809  1.3443
 2329TIP3   OH231181   1.506   4.378  11.419 -0.5114 -0.3943  0.1481
 2329TIP3    H131182   1.524   4.376  11.325  0.0369  2.3417  0.0908
 2329TIP3    H231183   1.484   4.288  11.442  0.6032 -1.3837 -2.3392
 2330TIP3   OH231184   4.226   4.370  12.498 -0.0063 -0.0788 -0.1076
 2330TIP3    H131185   4.151   4.419  12.531 -0.4230 -1.0225  0.3997
 2330TIP3    H231186   4.242   4.304  12.565  1.9010  0.7018  0.2729
 2331TIP3   OH231187   6.282   3.083  12.587  0.7357 -0.0322  0.0990
 2331TIP3    H131188   6.226   3.156  12.614  0.7081 -0.2847  0.7372
 2331TIP3    H231189   6.221   3.018  12.551  0.6813 -0.0509  0.2241
 2332TIP3   OH231190   4.899   3.148  11.817  0.4442  0.2753  0.2660
 2332TIP3    H131191   4.983   3.134  11.774  0.2986 -0.6167  0.2510
 2332TIP3    H231192   4.883   3.067  11.865 -0.6396  0.2411 -0.1302
 2333TIP3   OH231193   3.715   2.228  12.836 -0.1300 -0.1102 -0.1669
 2333TIP3    H131194   3.680   2.151  12.791  0.9696 -1.6617  1.4957
 2333TIP3    H231195   3.657   2.239  12.912  0.1908  0.2315  0.0305
 2334TIP3   OH231196   0.147   3.556  11.554 -0.7525  0.6014  0.6261
 2334TIP3    H131197   0.077   3.496  11.527 -0.4868  0.1525  0.9157
 2334TIP3    H231198   0.175   3.598  11.473 -2.4572  2.0126  0.7229
 2335TIP3   OH231199   0.377   3.259  11.565  0.1326 -0.2660  0.0808
 2335TIP3    H131200   0.289   3.260  11.525  0.5858  0.0549 -0.9498
 2335TIP3    H231201   0.363   3.291  11.654 -0.2206  4.4741 -1.3908
 2336TIP3   OH231202   0.620   2.727   9.296  0.7177  0.1175  0.0138
 2336TIP3    H131203   0.592   2.747   9.385 -0.5501  1.4939 -0.6515
 2336TIP3    H231204   0.575   2.645   9.275 -0.0421  0.4770  0.1980
 2337TIP3   OH231205   0.893   1.650  10.848 -0.3312  0.1898 -0.1952
 2337TIP3    H131206   0.961   1.695  10.897 -2.3782  2.1078  1.0823
 2337TIP3    H231207   0.845   1.719  10.803 -1.7925 -1.0074 -0.5714
 2338TIP3   OH231208   0.769   3.472  10.000  0.0637 -0.0108 -0.7482
 2338TIP3    H131209   0.788   3.432   9.915 -0.8172 -0.1319 -0.9024
 2338TIP3    H231210   0.674   3.464  10.009 -0.1458  2.0432 -0.7632
 2339TIP3   OH231211   6.721   5.071  10.657  0.6452  0.1137  0.4553
 2339TIP3    H131212   6.731   5.166  10.666  0.6318  0.1181  0.4240
 2339TIP3    H231213   6.761   5.050  10.573 -0.8399  0.3235 -0.3297
 2340TIP3   OH231214   4.210   4.262  12.247 -0.4156  0.1701  0.2727
 2340TIP3    H131215   4.201   4.169  12.268  1.9027 -0.3660 -0.7393
 2340TIP3    H231216   4.231   4.303  12.331 -1.1842 -0.2555  0.6803
 2341TIP3   OH231217   6.083   3.347  13.201 -0.1726  0.0571 -0.3746
 2341TIP3    H131218   6.176   3.324  13.209 -0.1768  0.0444 -0.3670
 2341TIP3    H231219   6.041   3.267  13.172 -0.3560 -0.2486  0.7261
 2342TIP3   OH231220   5.213   6.415  12.384 -0.5139 -0.0990 -0.2397
 2342TIP3    H131221   5.199   6.357  12.310 -1.3204 -0.2137 -0.0098
 2342TIP3    H231222   5.156   6.381  12.453 -0.9837  0.9406 -0.0929
 2343TIP3   OH231223   1.675   5.640  12.867  0.4123 -0.6004  0.4593
 2343TIP3    H131224   1.752   5.681  12.827  1.4442 -1.6157  1.3152
 2343TIP3    H231225   1.658   5.691  12.946  0.4110 -0.5742  0.4420
 2344TIP3   OH231226   1.536   6.627  12.919 -0.5547  0.1908 -0.0471
 2344TIP3    H131227   1.550   6.671  12.835 -1.0181  0.6445  0.1054
 2344TIP3    H231228   1.615   6.575  12.932 -0.9580 -0.7881 -1.3015
 2345TIP3   OH231229   3.002   0.225  13.277 -0.1460  0.7226  0.2319
 2345TIP3    H131230   2.994   0.215  13.371  2.8498 -1.2393  0.4198
 2345TIP3    H231231   2.920   0.191  13.241 -1.2715  1.3893  2.0619
 2346TIP3   OH231232   3.779   5.894  10.744 -0.0142 -0.3521  0.4870
 2346TIP3    H131233   3.873   5.882  10.759  0.2389  0.8883  0.0080
 2346TIP3    H231234   3.737   5.823  10.793  1.3234 -3.1354 -2.0512
 2347TIP3   OH231235   3.295   5.885  11.188  0.1806 -0.7655  0.1368
 2347TIP3    H131236   3.362   5.917  11.248  1.0925  0.3898 -1.4183
 2347TIP3    H231237   3.326   5.799  11.161  0.7585 -0.4725 -0.1430
 2348TIP3   OH231238   0.662   4.144   9.926  0.0896 -0.2124 -0.1702
 2348TIP3    H131239   0.595   4.213   9.917 -0.4809 -1.0043 -3.1424
 2348TIP3    H231240   0.745   4.191   9.927 -0.3049  0.5788 -1.8409
 2349TIP3   OH231241   1.164   2.715   9.619 -0.2066 -1.2715 -0.0026
 2349TIP3    H131242   1.091   2.766   9.584 -0.3670 -0.9412  0.7983
 2349TIP3    H231243   1.170   2.639   9.561 -0.5167 -0.7782 -0.6941
 2350TIP3   OH231244   5.781   0.567  11.930  0.3023  0.1599  0.2557
 2350TIP3    H131245   5.724   0.495  11.959 -0.4726 -0.5386 -2.7071
 2350TIP3    H231246   5.720   0.634  11.900  1.0503  1.0370  0.6584
 2351TIP3   OH231247   0.086   2.927  10.829  0.4675 -0.2351  0.0743
 2351TIP3    H131248   0.135   2.852  10.796  2.4648  1.3111 -0.6426
 2351TIP3    H231249   0.067   2.905  10.920  0.4919 -1.8365 -0.2788
 2352TIP3   OH231250   0.591   2.960  10.555 -0.0770  0.2108  0.0345
 2352TIP3    H131251   0.620   2.871  10.574 -4.5381 -1.8927 -1.5722
 2352TIP3    H231252   0.635   2.984  10.474  0.8278 -0.7342  0.2341
 2353TIP3   OH231253   0.673   3.815  10.755 -0.0504  0.3524 -0.8566
 2353TIP3    H131254   0.618   3.889  10.728  0.1788  1.3137  1.1335
 2353TIP3    H231255   0.683   3.826  10.850  2.6279 -0.4538 -0.9741
 2354TIP3   OH231256   0.523   6.691  11.563  0.4743  0.2509  0.0418
 2354TIP3    H131257   0.593   6.671  11.501 -0.0447  0.5681 -0.6538
 2354TIP3    H231258   0.561   6.757  11.621  0.9133  0.0661 -0.0322
 2355TIP3   OH231259   2.416   1.504  10.580 -0.3227 -0.0753  0.1797
 2355TIP3    H131260   2.458   1.422  10.606  1.1732  0.5564 -0.1320
 2355TIP3    H231261   2.329   1.478  10.549 -0.2514 -1.4119  1.0172
 2356TIP3   OH231262   2.974   0.714  13.042 -0.1499 -0.0075 -0.5785
 2356TIP3    H131263   2.979   0.625  13.076  0.7952  0.5590  0.8789
 2356TIP3    H231264   3.053   0.723  12.987  1.3784  0.7853  1.6061
 2357TIP3   OH231265   3.915   5.671  12.889  0.1653 -0.2550  0.1619
 2357TIP3    H131266   3.826   5.704  12.907  0.4952 -0.0758  1.6089
 2357TIP3    H231267   3.972   5.734  12.932  1.0048 -0.4188 -0.6922
 2358TIP3   OH231268   2.685   1.734  11.772  0.1038 -0.0739 -0.4793
 2358TIP3    H131269   2.660   1.809  11.717 -2.2081 -0.3169  0.1343
 2358TIP3    H231270   2.727   1.774  11.848  1.1230  0.4199 -1.2825
 2359TIP3   OH231271   0.588   6.409  11.725 -0.4399 -0.1495 -0.1012
 2359TIP3    H131272   0.502   6.380  11.696  0.0249  0.4652 -2.3454
 2359TIP3    H231273   0.571   6.476  11.791 -1.6721 -0.1033 -0.4560
 2360TIP3   OH231274   1.431   1.992  10.572  0.7871 -0.6649 -0.8375
 2360TIP3    H131275   1.425   1.897  10.586  0.0491 -0.5144 -0.0975
 2360TIP3    H231276   1.490   2.001  10.497 -0.4111 -1.7843 -1.9676
 2361TIP3   OH231277   4.808   0.431  10.239 -0.1425  0.5683 -0.5760
 2361TIP3    H131278   4.798   0.350  10.289 -0.3263 -0.0814 -1.6489
 2361TIP3    H231279   4.723   0.446  10.198 -0.4817  1.9650  0.5375
 2362TIP3   OH231280   1.466   2.528  12.621 -0.5174 -0.2620 -0.3112
 2362TIP3    H131281   1.487   2.456  12.561  2.7791 -0.1909  0.5240
 2362TIP3    H231282   1.471   2.489  12.708 -0.5768  0.5827  0.0830
 2363TIP3   OH231283   2.048   3.175  10.991 -0.4145 -0.1017 -0.1085
 2363TIP3    H131284   2.121   3.133  11.036 -1.3023 -0.5651  0.9702
 2363TIP3    H231285   2.089   3.233  10.927  0.8598 -1.7192 -0.8359
 2364TIP3   OH231286   3.807   4.154  12.521  0.1900  0.6337  0.3900
 2364TIP3    H131287   3.778   4.236  12.481 -0.4580 -0.5073 -1.5857
 2364TIP3    H231288   3.872   4.119  12.461  0.7255 -0.1341  1.3934
 2365TIP3   OH231289   4.212   3.072  12.894 -0.0601 -0.0955  0.3390
 2365TIP3    H131290   4.213   2.977  12.906 -0.4218  0.0850  1.9958
 2365TIP3    H231291   4.255   3.107  12.972  2.4804  1.0474 -1.4080
 2366TIP3   OH231292   3.511   3.279  11.093  0.1322 -0.4692  0.0856
 2366TIP3    H131293   3.572   3.206  11.086  2.6233  1.3251  1.5251
 2366TIP3    H231294   3.553   3.340  11.153 -1.8848  2.1085 -0.9152
 2367TIP3   OH231295   6.092   3.990  10.178 -0.2600  0.2162 -0.1413
 2367TIP3    H131296   6.183   3.988  10.210 -1.6627 -0.6190  4.5416
 2367TIP3    H231297   6.068   4.082  10.181  0.0860  0.3187 -0.3571
 2368TIP3   OH231298   2.733   3.444  13.285 -0.4661  0.3469  0.2220
 2368TIP3    H131299   2.718   3.352  13.264 -0.7033  0.1107  1.3595
 2368TIP3    H231300   2.645   3.479  13.301 -0.5604  1.2319 -1.8897
 2369TIP3   OH231301   2.019   2.443   9.844 -0.3662  0.1118  0.0283
 2369TIP3    H131302   1.929   2.454   9.877 -0.2930 -1.1554  0.7164
 2369TIP3    H231303   2.051   2.532   9.830 -1.2441  0.6156  1.1190
 2370TIP3   OH231304   6.527   6.043  10.577  0.0256  0.0715 -0.0088
 2370TIP3    H131305   6.616   6.039  10.542  0.3145  0.6958  0.6144
 2370TIP3    H231306   6.475   5.987  10.519  0.6947  0.2110 -0.7600
 2371TIP3   OH231307   6.148   3.859  11.276  0.5407 -0.0551  0.1208
 2371TIP3    H131308   6.110   3.834  11.360  0.0495  1.2181  0.2843
 2371TIP3    H231309   6.112   3.796  11.214  1.0776 -1.1491  0.8677
 2372TIP3   OH231310   4.261   6.081  10.751 -0.1196 -0.5131  0.2908
 2372TIP3    H131311   4.333   6.072  10.689  0.0113 -0.4445  0.4326
 2372TIP3    H231312   4.293   6.143  10.816 -0.7162  0.3608 -0.2324
 2373TIP3   OH231313   2.245   0.088  11.721  0.2090  0.6989  0.1523
 2373TIP3    H131314   2.216  -0.002  11.704  1.1064 -0.0741  2.3297
 2373TIP3    H231315   2.340   0.086  11.705 -0.1807  2.1411 -2.8965
 2374TIP3   OH231316   2.109   3.112  13.153  0.5496  0.9506  0.3878
 2374TIP3    H131317   2.170   3.183  13.135 -0.2892  1.6496  0.2805
 2374TIP3    H231318   2.036   3.126  13.093  0.2337  0.1675  0.5712
 2375TIP3   OH231319   2.974   1.154  11.976  0.5533 -1.2738  0.3825
 2375TIP3    H131320   3.051   1.202  12.004  0.4496 -0.8140 -0.0910
 2375TIP3    H231321   2.901   1.214  11.992  0.4674 -1.0888 -0.5986
 2376TIP3   OH231322   0.135   6.719  12.564  0.3506  0.0095 -0.3749
 2376TIP3    H131323   0.224   6.703  12.596  0.2215 -1.4651 -0.6967
 2376TIP3    H231324   0.142   6.714  12.469 -0.3417 -1.7917 -0.3666
 2377TIP3   OH231325   4.352   3.385  11.281 -0.2447  0.3291 -0.1324
 2377TIP3    H131326   4.291   3.415  11.348  1.0288  1.3143  0.6453
 2377TIP3    H231327   4.407   3.321  11.326 -0.5928 -0.4366 -0.7780
 2378TIP3   OH231328   2.582   0.456  11.068 -0.1637 -0.0220  0.4414
 2378TIP3    H131329   2.537   0.373  11.056 -0.9750  0.5908 -0.9612
 2378TIP3    H231330   2.546   0.491  11.150 -0.7235 -0.4916  0.3990
 2379TIP3   OH231331   1.646   6.038  10.604 -0.4143  0.7650 -0.2372
 2379TIP3    H131332   1.593   6.113  10.633 -0.3446  0.9325 -0.5370
 2379TIP3    H231333   1.727   6.045  10.654  1.3437  3.2580 -3.0699
 2380TIP3   OH231334   3.779   3.705  12.359 -0.1269 -0.3524  0.3045
 2380TIP3    H131335   3.735   3.620  12.357 -0.3855 -0.2759 -2.9783
 2380TIP3    H231336   3.858   3.693  12.307 -0.0943  1.3584 -0.1061
 2381TIP3   OH231337   6.852   5.914  10.431 -0.1678 -0.2256  0.1510
 2381TIP3    H131338   6.774   5.873  10.469 -0.2790 -1.0146 -0.8924
 2381TIP3    H231339   6.871   5.987  10.490 -1.3432 -0.3718  0.7545
 2382TIP3   OH231340   5.785   2.087  10.437 -0.1669  0.3193  0.7292
 2382TIP3    H131341   5.869   2.066  10.477 -0.4975 -0.3858  1.0671
 2382TIP3    H231342   5.722   2.080  10.509 -0.5356  0.7168  0.4533
 2383TIP3   OH231343   1.239   4.966  11.896  0.3304 -0.5810  0.0788
 2383TIP3    H131344   1.307   4.973  11.829 -0.5321  0.6287 -0.7132
 2383TIP3    H231345   1.255   5.040  11.954 -0.0460 -0.5252  0.1174
 2384TIP3   OH231346   4.081   2.290  13.123  0.0296  0.6052 -0.1861
 2384TIP3    H131347   4.015   2.352  13.151 -0.7293  0.3445 -1.3542
 2384TIP3    H231348   4.045   2.249  13.044 -0.0428 -2.1676  1.1575
 2385TIP3   OH231349   0.743   2.749  10.509 -0.3945 -0.2235 -0.0998
 2385TIP3    H131350   0.798   2.672  10.526 -1.4356 -0.7746  0.9065
 2385TIP3    H231351   0.746   2.760  10.414  0.9841 -0.5742 -0.1201
 2386TIP3   OH231352   5.724   6.831  10.906  0.0048  0.0605  0.0482
 2386TIP3    H131353   5.715   6.925  10.887 -1.2538  0.4558  2.2873
 2386TIP3    H231354   5.641   6.806  10.945  1.3345 -1.2535  2.2659
 2387TIP3   OH231355   2.296   4.973  11.578 -0.0601 -0.1532  0.1048
 2387TIP3    H131356   2.227   5.009  11.634  0.8172 -0.4753  1.4269
 2387TIP3    H231357   2.310   5.041  11.512  1.0214  1.6747  2.0905
 2388TIP3   OH231358   5.211   2.300   9.905 -0.1403  0.0339  0.3236
 2388TIP3    H131359   5.178   2.215   9.876  1.9952 -0.8495  0.2755
 2388TIP3    H231360   5.215   2.353   9.826 -0.4947 -0.1751  0.1663
 2389TIP3   OH231361   4.905   6.765  11.964 -0.1092  0.0028  0.4201
 2389TIP3    H131362   4.958   6.828  12.013 -0.5537  0.6833  0.0517
 2389TIP3    H231363   4.961   6.737  11.892 -0.0589  0.3144  0.3352
 2390TIP3   OH231364   2.756   1.809  11.227  0.3649 -0.0620 -0.1124
 2390TIP3    H131365   2.812   1.886  11.233  0.0867  0.0138  2.7536
 2390TIP3    H231366   2.682   1.828  11.284 -1.5374 -1.0726 -2.0778
 2391TIP3   OH231367   5.965   5.256  11.923 -0.9515  0.2278  0.6779
 2391TIP3    H131368   5.961   5.160  11.913 -0.1168  0.3437 -1.2620
 2391TIP3    H231369   6.052   5.280  11.890 -0.6691  1.5682  2.2797
 2392TIP3   OH231370   5.854   4.376  10.889 -0.2541  0.5146 -0.3129
 2392TIP3    H131371   5.921   4.312  10.914  1.9193  2.0038 -2.0442
 2392TIP3    H231372   5.774   4.343  10.931  1.3213 -1.8211  1.1090
 2393TIP3   OH231373   0.913   4.524  13.022 -0.3039 -0.2864 -0.0254
 2393TIP3    H131374   0.850   4.512  13.093  0.1850 -0.7438  0.3430
 2393TIP3    H231375   0.984   4.576  13.061  0.8666 -2.1100  0.4027
 2394TIP3   OH231376   6.374   5.074  11.874  0.1210 -0.0402  0.9052
 2394TIP3    H131377   6.300   5.087  11.815  0.0526 -0.9977  0.7671
 2394TIP3    H231378   6.439   5.028  11.822  1.0616  1.3011  0.8558
 2395TIP3   OH231379   2.246   6.353  11.627  0.4891  0.2523  0.3146
 2395TIP3    H131380   2.338   6.373  11.613  0.4069  0.3781 -0.0518
 2395TIP3    H231381   2.200   6.398  11.557  0.1447  0.2115  0.5094
 2396TIP3   OH231382   1.858   0.533  11.146 -0.2175 -0.1463 -0.6167
 2396TIP3    H131383   1.775   0.489  11.131 -0.7051  0.5582 -0.0378
 2396TIP3    H231384   1.908   0.472  11.201 -0.8249 -0.0590  0.0470
 2397TIP3   OH231385   6.154   1.805  11.931  0.0867 -0.3267  0.8683
 2397TIP3    H131386   6.201   1.821  12.013  3.1961 -2.4565 -0.3421
 2397TIP3    H231387   6.112   1.720  11.944 -0.9468  0.1593  0.8288
 2398TIP3   OH231388   3.519   6.581  10.407  0.6746  0.6977  0.1058
 2398TIP3    H131389   3.444   6.530  10.379  2.2387 -0.3371 -2.5306
 2398TIP3    H231390   3.572   6.520  10.459  1.7958 -0.0126 -1.7734
 2399TIP3   OH231391   3.719   5.827  12.953  1.0342  0.3195  0.5098
 2399TIP3    H131392   3.746   5.892  12.888  1.5746 -1.2124 -0.8732
 2399TIP3    H231393   3.627   5.811  12.933  0.7550  1.0029  1.1886
 2400TIP3   OH231394   6.128   5.403  12.987  0.5487 -0.0710 -0.4304
 2400TIP3    H131395   6.209   5.453  13.001  0.3191 -0.1359  1.3504
 2400TIP3    H231396   6.065   5.443  13.047 -0.0830 -1.4737 -0.1300
 2401TIP3   OH231397   2.954   3.893  13.055 -0.1356  0.2240 -0.3226
 2401TIP3    H131398   2.884   3.830  13.068 -0.1156  0.3749  0.6363
 2401TIP3    H231399   3.023   3.844  13.011 -0.8740  0.1006 -1.3663
 2402TIP3   OH231400   4.253   5.909   9.950 -0.2114 -0.5968 -0.0369
 2402TIP3    H131401   4.278   5.823   9.918  1.4032 -0.3204  0.3746
 2402TIP3    H231402   4.331   5.941   9.997 -0.6341  1.2192 -0.4707
 2403TIP3   OH231403   4.568   0.387  13.235 -0.0258  0.3788  0.2178
 2403TIP3    H131404   4.551   0.431  13.152 -0.0412 -1.3517 -0.7602
 2403TIP3    H231405   4.482   0.379  13.276 -0.3851 -0.7290 -0.6835
 2404TIP3   OH231406   5.843   3.908  10.685  0.0206  0.3626  0.1430
 2404TIP3    H131407   5.750   3.925  10.703  0.1138  0.1016  0.9165
 2404TIP3    H231408   5.854   3.931  10.592 -0.9171 -0.0226 -0.0789
 2405TIP3   OH231409   2.671   6.828  12.948 -1.1135  0.2411  0.1196
 2405TIP3    H131410   2.578   6.819  12.969 -1.2406  0.1769 -0.4699
 2405TIP3    H231411   2.702   6.738  12.936 -0.4898  0.1011  2.3177
 2406TIP3   OH231412   0.846   0.733   9.247 -0.3178  0.2296  0.0575
 2406TIP3    H131413   0.940   0.733   9.264 -0.4078  1.1783  0.5533
 2406TIP3    H231414   0.819   0.824   9.254 -1.3633 -0.0845  0.3765
 2407TIP3   OH231415   1.928   2.591  11.126  0.0125 -0.1853  0.4964
 2407TIP3    H131416   1.863   2.552  11.184 -0.9992 -0.2466 -0.6423
 2407TIP3    H231417   2.011   2.554  11.155 -0.3254  0.5001  2.4976
 2408TIP3   OH231418   1.835   1.063  11.308 -0.2146  0.4829 -0.1381
 2408TIP3    H131419   1.740   1.053  11.302 -0.2981 -1.0061  2.2379
 2408TIP3    H231420   1.870   0.984  11.265 -0.0813  0.6376 -0.3145
 2409TIP3   OH231421   3.597   3.242  10.800 -0.4176 -0.1960 -0.2024
 2409TIP3    H131422   3.673   3.247  10.743 -0.5024  2.4517 -0.2019
 2409TIP3    H231423   3.631   3.205  10.882  0.3286 -1.2915 -0.9891
 2410TIP3   OH231424   4.601   0.370  11.225 -0.0535 -0.2320 -0.3413
 2410TIP3    H131425   4.584   0.278  11.243  0.8745 -0.3211  0.1167
 2410TIP3    H231426   4.583   0.380  11.131  2.5919 -1.5577 -1.0958
 2411TIP3   OH231427   4.624   4.274  13.119  0.2863 -0.4008 -0.1733
 2411TIP3    H131428   4.591   4.364  13.120 -1.0370 -0.7597 -2.9074
 2411TIP3    H231429   4.554   4.223  13.159  0.4144 -0.4078  0.0464
 2412TIP3   OH231430   0.611   3.673  10.180  0.5387 -0.2710  0.0224
 2412TIP3    H131431   0.570   3.603  10.130 -0.0621 -0.2098  0.4217
 2412TIP3    H231432   0.539   3.733  10.201  0.6590 -0.6230  1.5029
 2413TIP3   OH231433   6.097   3.915   9.350 -0.0340 -0.4475  0.5937
 2413TIP3    H131434   6.067   4.003   9.370  0.5183 -0.4656  1.5636
 2413TIP3    H231435   6.191   3.916   9.371  0.2789 -0.8829 -0.6883
 2414TIP3   OH231436   3.746   2.248  10.555  0.0957 -0.2320 -0.1443
 2414TIP3    H131437   3.702   2.333  10.545  0.2609 -0.1371 -0.0750
 2414TIP3    H231438   3.712   2.212  10.636  2.2553  1.1368  1.4762
 2415TIP3   OH231439   4.535   5.969  12.991  0.4277 -0.0477 -0.0475
 2415TIP3    H131440   4.560   5.962  12.899 -2.6239 -1.0826 -0.9220
 2415TIP3    H231441   4.572   6.052  13.020  1.3236  0.3834 -2.2335
 2416TIP3   OH231442   0.607   4.908  11.821  0.7719 -0.6259  0.1911
 2416TIP3    H131443   0.551   4.835  11.846  0.0740  0.0589  0.6837
 2416TIP3    H231444   0.644   4.939  11.904 -0.6158  0.9048  0.2945
 2417TIP3   OH231445   3.099   4.510  12.049 -0.3543  0.2693 -0.1359
 2417TIP3    H131446   3.032   4.578  12.043  0.9564  1.5771 -0.4592
 2417TIP3    H231447   3.056   4.432  12.015 -1.4912  1.2285 -1.0068
 2418TIP3   OH231448   4.517   4.176  11.162  0.2066 -0.4116  0.3107
 2418TIP3    H131449   4.440   4.218  11.199 -0.2920 -1.4274  0.4640
 2418TIP3    H231450   4.577   4.248  11.142 -0.9361  0.4366 -0.1826
 2419TIP3   OH231451   3.942   3.064  10.875 -0.8807  0.6697 -0.1818
 2419TIP3    H131452   3.979   3.150  10.857  1.3824 -0.2220 -0.1975
 2419TIP3    H231453   3.932   3.023  10.789  0.1695  0.1488 -0.0778
 2420TIP3   OH231454   0.870   4.640  12.298 -0.6561  0.0047  0.2232
 2420TIP3    H131455   0.863   4.734  12.278  0.5207  0.8576  3.3026
 2420TIP3    H231456   0.907   4.637  12.385 -0.7049 -3.3966  0.2408
 2421TIP3   OH231457   3.042   3.473  11.960 -0.9146  0.6223 -0.0409
 2421TIP3    H131458   3.032   3.378  11.968 -0.9190  0.6616  0.4380
 2421TIP3    H231459   2.971   3.500  11.902 -0.6907  0.2860 -0.4805
 2422TIP3   OH231460   4.168   4.772  12.592 -0.1762  0.4784 -0.5167
 2422TIP3    H131461   4.151   4.852  12.642 -0.1554  0.5488 -0.6214
 2422TIP3    H231462   4.263   4.768  12.584 -0.0048 -0.7460  1.4192
 2423TIP3   OH231463   1.335   3.574  10.461  0.1765 -0.1674 -0.0135
 2423TIP3    H131464   1.287   3.656  10.455  0.5740  0.0266 -0.6817
 2423TIP3    H231465   1.267   3.508  10.477 -0.2639  0.1619 -0.4667
 2424TIP3   OH231466   4.979   5.285  10.145  0.1540  0.8790  0.5596
 2424TIP3    H131467   5.067   5.308  10.116  0.0262 -0.2370 -0.8317
 2424TIP3    H231468   4.963   5.199  10.106 -0.4570 -0.2996  3.1986
 2425TIP3   OH231469   5.192   2.221  11.563  0.0920  0.1834 -0.0792
 2425TIP3    H131470   5.213   2.174  11.644 -0.6346  0.7831  0.4638
 2425TIP3    H231471   5.268   2.278  11.549  0.0942  0.2809  0.3246
 2426TIP3   OH231472   0.441   5.753  12.056 -0.0910 -0.1244  0.8305
 2426TIP3    H131473   0.502   5.805  12.003 -0.9557 -0.7596 -0.8288
 2426TIP3    H231474   0.493   5.679  12.086  0.4948  0.4105  1.1665
 2427TIP3   OH231475   6.805   4.741  11.386  0.2404  0.1802 -0.7215
 2427TIP3    H131476   6.889   4.775  11.417 -0.8992  2.8925 -0.3062
 2427TIP3    H231477   6.801   4.766  11.294 -0.4403  0.8102 -0.5289
 2428TIP3   OH231478   5.960   6.814  11.663 -0.1701 -0.8273 -0.0799
 2428TIP3    H131479   5.991   6.902  11.643  0.9065 -1.2528 -0.3648
 2428TIP3    H231480   5.992   6.760  11.591 -1.7245 -1.2821 -0.4602
 2429TIP3   OH231481   4.517   6.301  12.827  0.3788  0.0300  0.5485
 2429TIP3    H131482   4.497   6.350  12.747 -0.1613 -0.8309  0.1495
 2429TIP3    H231483   4.575   6.230  12.798 -0.8626 -1.0689  0.6907
 2430TIP3   OH231484   4.891   2.798   9.625  0.2623  0.2447 -0.6889
 2430TIP3    H131485   4.916   2.876   9.674  1.0062  0.3604 -1.2338
 2430TIP3    H231486   4.802   2.777   9.656  0.6100  0.4604  0.5088
 2431TIP3   OH231487   6.285   2.640  12.151 -0.1325 -0.3899 -0.0755
 2431TIP3    H131488   6.364   2.633  12.204  0.4263 -1.3767 -0.9767
 2431TIP3    H231489   6.223   2.688  12.205  0.5413 -1.0059  1.2940
 2432TIP3   OH231490   2.290   5.781   9.972 -0.2493  0.5281  0.0442
 2432TIP3    H131491   2.248   5.697   9.953 -0.3089  0.6357 -0.3181
 2432TIP3    H231492   2.313   5.777  10.065  0.9723 -0.4318 -0.2796
 2433TIP3   OH231493   1.778   3.412  13.084 -0.3675  0.1913  0.4229
 2433TIP3    H131494   1.736   3.347  13.028  0.1475 -0.0399  0.3001
 2433TIP3    H231495   1.723   3.416  13.162 -1.5574  1.1148 -0.4250
 2434TIP3   OH231496   1.035   3.868  11.149 -0.0656  0.2255  0.4240
 2434TIP3    H131497   1.112   3.843  11.200  0.8310  0.7445 -0.6247
 2434TIP3    H231498   0.962   3.861  11.211  0.9854  0.9893  1.8288
 2435TIP3   OH231499   1.978   0.753  11.893 -1.0120 -0.5195 -0.7016
 2435TIP3    H131500   1.971   0.847  11.909 -0.3079 -0.4389 -0.8369
 2435TIP3    H231501   1.940   0.740  11.806  2.2664  0.2246 -2.3829
 2436TIP3   OH231502   4.643   3.585  11.392 -0.2231 -0.7367 -0.0697
 2436TIP3    H131503   4.592   3.664  11.381  0.5014  0.0423  1.8491
 2436TIP3    H231504   4.591   3.530  11.450 -0.3482 -1.3503 -0.7403
 2437TIP3   OH231505   0.696   6.365  11.229 -0.4859 -0.4453 -0.1882
 2437TIP3    H131506   0.733   6.441  11.183  1.2448 -0.1901  1.4812
 2437TIP3    H231507   0.710   6.385  11.322 -1.1536 -2.2600  0.3367
 2438TIP3   OH231508   6.692   5.575   9.842  0.1659 -0.3082  0.3065
 2438TIP3    H131509   6.680   5.484   9.870 -0.8415 -0.6514 -1.1324
 2438TIP3    H231510   6.739   5.567   9.758 -0.5406  0.4472 -0.1697
 2439TIP3   OH231511   3.648   2.660  12.641 -0.2861  0.3924 -0.3299
 2439TIP3    H131512   3.667   2.566  12.646 -1.3168  0.1632 -0.4958
 2439TIP3    H231513   3.714   2.694  12.581  0.2549 -0.1750 -0.0822
 2440TIP3   OH231514   2.746   4.319  12.005 -0.0745 -0.5448 -0.3026
 2440TIP3    H131515   2.784   4.326  12.093  1.6735  0.6733 -1.1059
 2440TIP3    H231516   2.699   4.235  12.006  1.4856 -1.4663  1.2116
 2441TIP3   OH231517   5.604   3.719  11.696  0.2191  0.5111  0.3464
 2441TIP3    H131518   5.528   3.680  11.654 -0.3234  0.6389  1.1990
 2441TIP3    H231519   5.675   3.708  11.632 -0.7022  1.1773 -0.8176
 2442TIP3   OH231520   4.904   2.931  12.030 -0.3662  0.0503  0.1374
 2442TIP3    H131521   4.881   2.865  11.965 -2.5874  0.4137  0.4764
 2442TIP3    H231522   4.965   2.887  12.090 -0.4880 -1.1373 -0.5985
 2443TIP3   OH231523   3.881   3.268  11.990 -0.0767 -0.1948 -0.5235
 2443TIP3    H131524   3.902   3.201  12.055 -1.9127 -0.4511 -0.1444
 2443TIP3    H231525   3.955   3.267  11.930  0.6372 -1.5000  0.3388
 2444TIP3   OH231526   4.500   0.578   9.673  0.2296 -0.5774  0.4047
 2444TIP3    H131527   4.518   0.671   9.686  0.7262 -0.5668 -0.2972
 2444TIP3    H231528   4.569   0.549   9.613 -1.5815 -0.7042 -1.7634
 2445TIP3   OH231529   5.602   1.823  10.030  0.0076 -0.4685 -0.2854
 2445TIP3    H131530   5.580   1.759   9.962  1.3138 -0.2716 -0.9116
 2445TIP3    H231531   5.686   1.859  10.004 -0.6329  1.4485  0.1027
 2446TIP3   OH231532   1.611   0.915  13.118  0.1618  0.0850  0.6667
 2446TIP3    H131533   1.544   0.920  13.186 -1.2523  0.0021 -0.6577
 2446TIP3    H231534   1.646   1.004  13.112 -0.3595  0.3049  0.8616
 2447TIP3   OH231535   6.611   2.840  11.107 -0.0931 -0.6854  0.3082
 2447TIP3    H131536   6.658   2.786  11.171  0.2475  0.5833  1.1618
 2447TIP3    H231537   6.681   2.883  11.057 -0.3625 -1.1748 -0.5187
 2448TIP3   OH231538   0.176   4.936  11.194 -0.2133 -0.1285 -0.4827
 2448TIP3    H131539   0.172   4.988  11.274 -0.1850  0.0920 -0.6265
 2448TIP3    H231540   0.232   4.862  11.218  0.1619  0.1683 -0.4278
 2449TIP3   OH231541   2.231   0.524   9.579  0.1481  0.2136  0.0750
 2449TIP3    H131542   2.253   0.436   9.549  0.9117  0.8085 -1.1898
 2449TIP3    H231543   2.254   0.524   9.672  2.5684 -0.1797 -0.4580
 2450TIP3   OH231544   1.272   3.856  11.329  0.4334 -0.4602  0.3641
 2450TIP3    H131545   1.261   3.923  11.397  0.7299  0.5091 -0.5097
 2450TIP3    H231546   1.367   3.845  11.321  0.3855 -1.0517  0.5516
 2451TIP3   OH231547   2.256   4.449  12.174 -0.2033  0.1275  0.0311
 2451TIP3    H131548   2.297   4.439  12.088 -0.2667 -0.7134  0.0890
 2451TIP3    H231549   2.301   4.385  12.230 -0.2584  0.5663  0.5928
 2452TIP3   OH231550   5.593   3.597  11.939 -0.1014 -0.0171 -0.1215
 2452TIP3    H131551   5.508   3.637  11.956  0.3073  0.6276  0.4477
 2452TIP3    H231552   5.617   3.627  11.851  1.2712  3.0410  1.1365
 2453TIP3   OH231553   1.492   3.961  12.321 -0.1048 -0.5514  0.5228
 2453TIP3    H131554   1.519   4.016  12.394 -1.4135 -2.4417  2.5650
 2453TIP3    H231555   1.574   3.935  12.279  0.6220  1.4185  0.6084
 2454TIP3   OH231556   5.660   2.953  10.755  0.5473  0.0792 -0.2321
 2454TIP3    H131557   5.646   2.908  10.839  1.0077  0.1318 -0.1253
 2454TIP3    H231558   5.754   2.968  10.751  0.5131  0.1871 -0.7068
 2455TIP3   OH231559   5.940   2.287  12.658  0.4060 -0.1847 -0.3453
 2455TIP3    H131560   6.030   2.262  12.681 -0.2034 -2.3308 -0.1304
 2455TIP3    H231561   5.913   2.223  12.593 -1.0633  0.2857 -0.2353
 2456TIP3   OH231562   2.366   0.448   9.799 -0.0507 -0.2544 -0.1183
 2456TIP3    H131563   2.453   0.475   9.827  0.1335  1.4345 -2.1324
 2456TIP3    H231564   2.380   0.366   9.751  0.3567 -0.2168 -0.0651
 2457TIP3   OH231565   2.862   4.879  12.773 -0.3534 -0.0063 -0.0862
 2457TIP3    H131566   2.884   4.797  12.818 -0.5934  1.0898  2.1906
 2457TIP3    H231567   2.936   4.937  12.791 -1.0702  0.8922  0.0576
 2458TIP3   OH231568   5.124   3.141  10.870  0.1685 -0.4897 -0.4405
 2458TIP3    H131569   5.132   3.228  10.909  1.9181 -1.6693  2.1154
 2458TIP3    H231570   5.088   3.087  10.940  2.1265 -2.4539 -0.8411
 2459TIP3   OH231571   3.277   0.809  10.468  0.0542 -0.0343 -0.2229
 2459TIP3    H131572   3.257   0.890  10.515  0.4440  1.2809 -2.1711
 2459TIP3    H231573   3.227   0.816  10.386 -1.0975 -2.5090  0.1917
 2460TIP3   OH231574   6.646   5.829  11.064 -0.2389 -0.3914 -0.3505
 2460TIP3    H131575   6.696   5.748  11.055  0.2741 -0.1030 -0.1773
 2460TIP3    H231576   6.633   5.838  11.158 -0.2373 -0.2430 -0.3641
 2461TIP3   OH231577   0.035   2.301  12.473 -0.0594 -0.7934 -0.1044
 2461TIP3    H131578   0.090   2.378  12.461 -0.5172 -0.4332  0.0346
 2461TIP3    H231579   0.092   2.227  12.456  0.8044 -0.4764  1.2674
 2462TIP3   OH231580   1.515   2.221  12.746  0.3171 -0.5152  0.0836
 2462TIP3    H131581   1.526   2.294  12.808  0.6674  0.3305 -0.9342
 2462TIP3    H231582   1.457   2.160  12.791  0.0241  0.3868  0.9826
 2463TIP3   OH231583   1.136   5.459  10.857  0.1195  0.6589 -0.1871
 2463TIP3    H131584   1.158   5.433  10.947 -1.3403  1.8430  0.5653
 2463TIP3    H231585   1.099   5.546  10.867 -1.8947  0.0366 -1.7021
 2464TIP3   OH231586   2.076   1.887  10.855  0.2005  0.2213  0.4684
 2464TIP3    H131587   2.028   1.948  10.799  0.2254  0.1000  0.3158
 2464TIP3    H231588   2.123   1.830  10.795  0.4025  0.2301  0.6155
 2465TIP3   OH231589   2.863   0.240  11.521  0.3380 -0.3623 -0.3435
 2465TIP3    H131590   2.856   0.332  11.546 -1.0846 -0.8115  1.1011
 2465TIP3    H231591   2.955   0.228  11.497  0.8186  1.1553  0.6217
 2466TIP3   OH231592   4.350   5.668   9.884  0.3639 -0.2702 -0.1192
 2466TIP3    H131593   4.395   5.655   9.801  1.0459 -2.8760  0.5517
 2466TIP3    H231594   4.277   5.605   9.881  0.9848 -1.1416  1.5921
 2467TIP3   OH231595   2.794   3.385  11.363  0.2102 -0.2041  0.1792
 2467TIP3    H131596   2.805   3.366  11.270 -0.3152 -1.5439  0.3612
 2467TIP3    H231597   2.807   3.300  11.406 -2.5676 -0.2907  1.0654
 2468TIP3   OH231598   4.008   4.204  12.733 -0.3532 -1.0435  0.0718
 2468TIP3    H131599   3.947   4.163  12.671 -1.2189 -0.4753  0.5375
 2468TIP3    H231600   3.956   4.220  12.811  0.4013 -0.5532  0.4815
 2469TIP3   OH231601   0.235   6.549  13.388  0.3938 -0.2992 -0.2020
 2469TIP3    H131602   0.329   6.531  13.397  0.2055 -0.9368  0.6939
 2469TIP3    H231603   0.198   6.468  13.353  0.0150 -0.5237  0.6667
 2470TIP3   OH231604   3.278   6.489  12.585  0.3705 -0.3924 -0.6811
 2470TIP3    H131605   3.192   6.526  12.607 -0.3945 -2.0691 -0.7221
 2470TIP3    H231606   3.287   6.414  12.644 -0.4351 -3.2720 -3.9320
 2471TIP3   OH231607   0.942   0.359  11.784  0.5440 -0.3444  0.4428
 2471TIP3    H131608   0.942   0.452  11.806  1.5289  0.6210 -3.0758
 2471TIP3    H231609   0.856   0.343  11.745  1.6659  0.1510 -2.4409
 2472TIP3   OH231610   6.130   5.215  11.255 -0.0832 -0.4591 -0.0304
 2472TIP3    H131611   6.215   5.258  11.262 -0.1649 -0.4406  1.0965
 2472TIP3    H231612   6.068   5.287  11.240  0.1217 -0.5063 -1.2079
 2473TIP3   OH231613   6.537   3.069  11.688 -1.0290  0.0640 -0.3205
 2473TIP3    H131614   6.564   2.989  11.646 -1.2961 -0.4648  0.4807
 2473TIP3    H231615   6.491   3.119  11.620  1.2493  0.6655 -1.4966
 2474TIP3   OH231616   2.669   2.352  13.088  0.2451  0.1386  0.2937
 2474TIP3    H131617   2.749   2.369  13.038  0.2864 -0.4935  0.1438
 2474TIP3    H231618   2.652   2.435  13.133 -0.6676  1.2926 -1.9614
 2475TIP3   OH231619   4.502   6.354  11.521 -0.2242  0.2516 -0.2345
 2475TIP3    H131620   4.496   6.344  11.426 -1.6854  1.6941 -0.3371
 2475TIP3    H231621   4.438   6.422  11.542 -0.1223 -0.2286  1.8239
 2476TIP3   OH231622   0.070   0.194  10.742 -0.0285  0.1801 -0.2275
 2476TIP3    H131623   0.163   0.211  10.727 -0.2943  1.4661 -0.4578
 2476TIP3    H231624   0.054   0.224  10.831 -0.7984  2.5808 -1.0933
 2477TIP3   OH231625   6.753   0.698  12.083 -0.5167  1.1797 -0.1937
 2477TIP3    H131626   6.659   0.705  12.072 -0.7767  1.2744  1.7369
 2477TIP3    H231627   6.783   0.789  12.092 -0.1359  1.1888 -1.3960
 2478TIP3   OH231628   2.561   4.832  13.064  0.5688 -0.2801 -0.5323
 2478TIP3    H131629   2.549   4.737  13.071 -0.8378 -0.1205 -0.5749
 2478TIP3    H231630   2.549   4.865  13.153  2.1767 -0.2269 -0.3000
 2479TIP3   OH231631   0.757   1.980  12.458  0.3680 -0.9416  0.1392
 2479TIP3    H131632   0.791   2.060  12.500  0.4651 -1.6033  1.3749
 2479TIP3    H231633   0.694   2.011  12.394  1.6244  0.2140 -0.5952
 2480TIP3   OH231634   3.465   3.841  10.501 -0.3645  0.0481  0.1505
 2480TIP3    H131635   3.532   3.781  10.534 -1.7198 -1.4937  0.2282
 2480TIP3    H231636   3.484   3.849  10.408  0.1680 -0.0568  0.2479
 2481TIP3   OH231637   5.096   0.130  11.635  0.0258 -0.9844 -0.5362
 2481TIP3    H131638   5.184   0.151  11.604  0.5516  0.8948  1.9584
 2481TIP3    H231639   5.043   0.205  11.611 -0.0426 -0.4869  1.0937
 2482TIP3   OH231640   1.342   2.328  11.056 -0.7227  0.2222  0.2838
 2482TIP3    H131641   1.366   2.404  11.004 -1.0108  0.1747  0.0746
 2482TIP3    H231642   1.389   2.255  11.015 -1.1305  0.1448 -0.0671
 2483TIP3   OH231643   5.875   3.688  10.252  0.4058 -0.1444  0.3442
 2483TIP3    H131644   5.877   3.735  10.169  4.0309 -1.5971 -0.5747
 2483TIP3    H231645   5.831   3.749  10.312  1.2674  2.7152 -1.6795
 2484TIP3   OH231646   3.400   2.027  12.977 -0.1082 -0.1192  0.3157
 2484TIP3    H131647   3.409   1.956  12.913  1.9955  0.1795  0.2085
 2484TIP3    H231648   3.324   2.002  13.029  0.8089 -2.7152  0.5808
 2485TIP3   OH231649   5.354   5.705  11.886  0.4116  0.0486 -0.4190
 2485TIP3    H131650   5.291   5.721  11.956  0.1950 -0.9170 -0.3756
 2485TIP3    H231651   5.328   5.620  11.849  0.5958  0.4938 -1.5939
 2486TIP3   OH231652   1.424   1.892  13.143  0.0299 -0.8655  0.2768
 2486TIP3    H131653   1.387   1.806  13.166  0.4773 -0.8800  0.9699
 2486TIP3    H231654   1.513   1.890  13.178  0.0797 -0.1525  0.2074
 2487TIP3   OH231655   1.392   5.529  12.305  0.2088  0.4457  0.1023
 2487TIP3    H131656   1.364   5.603  12.359 -0.8362 -0.3037  0.6179
 2487TIP3    H231657   1.468   5.562  12.257 -0.4027  1.9364  0.1046
 2488TIP3   OH231658   4.222   4.030  12.425  0.4854  0.3395 -0.7506
 2488TIP3    H131659   4.284   3.970  12.383  0.7982 -1.6314  2.2621
 2488TIP3    H231660   4.262   4.051  12.509 -1.0548  2.4314 -0.4513
 2489TIP3   OH231661   2.412   3.181  11.906  0.2062 -0.2889 -0.1106
 2489TIP3    H131662   2.340   3.118  11.911 -1.1303  1.0496 -1.4238
 2489TIP3    H231663   2.382   3.255  11.959  0.3371  0.5092 -1.1296
 2490TIP3   OH231664   1.283   1.317   9.980 -0.1073  0.1408  0.3435
 2490TIP3    H131665   1.201   1.272   9.999  0.1234 -0.5108 -0.1632
 2490TIP3    H231666   1.326   1.263   9.914 -0.4011  1.7649 -1.2673
 2491TIP3   OH231667   4.529   5.453  10.900  0.1982  0.2995 -0.6223
 2491TIP3    H131668   4.592   5.509  10.945  0.5417 -1.1352  0.7723
 2491TIP3    H231669   4.452   5.508  10.887  0.5009  1.0997  0.7521
 2492TIP3   OH231670   5.027   4.901  12.873 -0.0217 -0.1401 -0.4019
 2492TIP3    H131671   5.000   4.865  12.958  1.7051 -0.8506 -0.0967
 2492TIP3    H231672   5.019   4.996  12.884  1.3372 -0.1345  1.0481
 2493TIP3   OH231673   5.665   1.039  11.592  0.8029 -0.1887 -0.0651
 2493TIP3    H131674   5.619   0.955  11.598  0.7381 -0.3412 -2.0349
 2493TIP3    H231675   5.757   1.016  11.577  0.6336  0.0189 -1.6731
 2494TIP3   OH231676   1.142   5.426  11.143  0.7133 -0.1384 -0.3127
 2494TIP3    H131677   1.048   5.437  11.127  0.4252 -1.1282  0.5723
 2494TIP3    H231678   1.149   5.417  11.238  1.4331 -2.2018 -0.4997
 2495TIP3   OH231679   5.499   4.994  10.329 -0.3520 -0.6017  0.3445
 2495TIP3    H131680   5.412   4.961  10.306 -0.4322 -0.0476 -0.1838
 2495TIP3    H231681   5.540   5.013  10.244 -0.1495  0.2462  0.6279
 2496TIP3   OH231682   5.120   4.408  10.629 -0.0160 -0.4585  0.2310
 2496TIP3    H131683   5.048   4.391  10.568  1.2409 -0.6333 -1.2871
 2496TIP3    H231684   5.119   4.502  10.643 -0.9696 -0.5452  0.8016
 2497TIP3   OH231685   2.827   6.761  10.871 -0.0462  0.2469 -0.3415
 2497TIP3    H131686   2.746   6.744  10.919  0.4291  0.2918  0.4827
 2497TIP3    H231687   2.868   6.834  10.917  1.2656 -0.8247  0.2458
 2498TIP3   OH231688   4.322   2.006  12.226  0.3749 -0.6694  0.0197
 2498TIP3    H131689   4.399   2.004  12.284 -0.4573 -0.9809  1.1425
 2498TIP3    H231690   4.266   2.073  12.264 -0.5790 -1.4962  0.0900
 2499TIP3   OH231691   2.526   3.681  10.833 -0.5427  0.1552  0.4220
 2499TIP3    H131692   2.515   3.725  10.917 -1.0577  0.9702 -0.0559
 2499TIP3    H231693   2.621   3.674  10.823 -0.4821 -0.6952  1.4353
 2500TIP3   OH231694   0.863   5.617  11.882 -0.0728 -0.4221  0.2200
 2500TIP3    H131695   0.807   5.634  11.807 -0.7071  0.2974  0.8371
 2500TIP3    H231696   0.842   5.687  11.944 -1.0529 -2.1255  1.9140
 2501TIP3   OH231697   2.156   1.517  10.951  0.1263  0.0485  0.4696
 2501TIP3    H131698   2.213   1.544  10.879  2.4098 -1.6499  1.5467
 2501TIP3    H231699   2.118   1.434  10.922 -0.5577  0.3564  0.4472
 2502TIP3   OH231700   0.877   4.335  12.110 -0.0165 -0.5731 -0.4967
 2502TIP3    H131701   0.952   4.357  12.055  0.2299 -1.8543 -0.6980
 2502TIP3    H231702   0.827   4.416  12.116  0.0676 -0.3297 -2.4150
 2503TIP3   OH231703   5.955   0.170  11.467 -0.3398 -0.4570 -0.2868
 2503TIP3    H131704   5.980   0.188  11.376  1.1919  0.7846  0.3238
 2503TIP3    H231705   5.860   0.175  11.467 -0.2922  2.1045 -1.3714
 2504TIP3   OH231706   6.753   5.204  11.193  0.6459 -0.4167 -0.4113
 2504TIP3    H131707   6.710   5.185  11.277  1.3343  2.7013  0.8008
 2504TIP3    H231708   6.827   5.260  11.217  1.9540 -0.9210 -2.9811
 2505TIP3   OH231709   5.544   0.438  12.660 -0.6639 -0.1340 -0.6093
 2505TIP3    H131710   5.572   0.415  12.572  0.1887  0.4899 -0.5164
 2505TIP3    H231711   5.565   0.531  12.668  0.6789 -0.5027  0.7435
 2506TIP3   OH231712   1.668   3.344  10.406  0.2663 -0.3399 -0.1232
 2506TIP3    H131713   1.746   3.384  10.366  0.5085 -1.8010 -1.1891
 2506TIP3    H231714   1.665   3.381  10.495  0.0541  2.5459 -1.2280
 2507TIP3   OH231715   1.262   6.613  10.497  0.0352  0.2757  0.0523
 2507TIP3    H131716   1.296   6.637  10.411 -0.7060 -2.1141 -1.0005
 2507TIP3    H231717   1.183   6.561  10.478 -0.6333  0.3838  2.2105
 2508TIP3   OH231718   0.085   0.746  12.879  0.8567 -1.0973 -0.1707
 2508TIP3    H131719   0.103   0.740  12.973  1.6694 -2.4905 -0.3881
 2508TIP3    H231720   0.108   0.835  12.855  0.7948 -0.7757  0.9177
 2509TIP3   OH231721   4.253   2.732  10.684 -0.9270  0.0877 -0.0148
 2509TIP3    H131722   4.210   2.669  10.627 -0.6278 -0.3830  0.2697
 2509TIP3    H231723   4.195   2.808  10.684  0.6117  1.4821 -3.5609
 2510TIP3   OH231724   6.809   3.509   9.618  0.5550  0.3011 -0.1855
 2510TIP3    H131725   6.768   3.469   9.541  0.2225 -0.0564  0.1721
 2510TIP3    H231726   6.879   3.564   9.583  1.1832 -0.7810 -0.6743
 2511TIP3   OH231727   1.032   6.240  12.477 -0.1955 -0.2178 -0.6419
 2511TIP3    H131728   1.008   6.304  12.544  0.6777  2.1524 -2.4532
 2511TIP3    H231729   1.113   6.201  12.510 -1.3268 -1.3168  1.0168
 2512TIP3   OH231730   2.760   1.297   9.564  0.0229 -0.0298  0.3860
 2512TIP3    H131731   2.756   1.383   9.606  1.3993  0.2551  0.0082
 2512TIP3    H231732   2.851   1.268   9.577  0.2129 -0.3989 -1.4385
 2513TIP3   OH231733   1.632   3.631  10.261 -0.3482  0.1776 -0.1082
 2513TIP3    H131734   1.555   3.589  10.300  1.3791 -2.3232  0.8716
 2513TIP3    H231735   1.627   3.610  10.168  0.5152 -2.4383  0.3703
 2514TIP3   OH231736   0.383   4.720  10.119  0.3242 -0.6253  0.8670
 2514TIP3    H131737   0.469   4.763  10.130 -0.8597  1.5666  2.5556
 2514TIP3    H231738   0.404   4.628  10.105  2.9799  0.0058  0.0378
 2515TIP3   OH231739   3.929   6.736  10.200 -0.1838  0.1736 -0.0476
 2515TIP3    H131740   3.881   6.791  10.139  0.5439 -1.9421 -2.7157
 2515TIP3    H231741   3.867   6.668  10.227  0.1916 -0.3410 -0.4517
 2516TIP3   OH231742   0.662   5.538  10.760  0.3432 -0.5202  0.3259
 2516TIP3    H131743   0.621   5.467  10.810 -1.0427  1.1582  1.6947
 2516TIP3    H231744   0.590   5.574  10.708  0.9552  0.0919 -0.0987
 2517TIP3   OH231745   5.749   4.279  10.593 -0.2512 -0.2512  0.3690
 2517TIP3    H131746   5.832   4.287  10.548 -1.2012 -0.7230 -1.5580
 2517TIP3    H231747   5.767   4.309  10.682  2.2786 -1.6064  0.4012
 2518TIP3   OH231748   4.465   4.210  12.020 -0.2694 -0.0762  0.5599
 2518TIP3    H131749   4.417   4.291  12.001 -0.7423 -0.6256 -0.7179
 2518TIP3    H231750   4.398   4.142  12.020  0.2782 -0.6269  0.4692
 2519TIP3   OH231751   5.744   4.595  11.132  0.3352  0.0710  0.1461
 2519TIP3    H131752   5.747   4.668  11.071  0.8438 -0.3473 -0.3354
 2519TIP3    H231753   5.659   4.555  11.117  0.9231 -0.7560 -1.1611
 2520TIP3   OH231754   1.973   6.783  10.026  0.1669 -0.1041  0.2612
 2520TIP3    H131755   2.065   6.781   9.999  0.1771 -0.8213  0.3261
 2520TIP3    H231756   1.928   6.732   9.958  0.0924 -1.3377  1.2026
 2521TIP3   OH231757   4.677   2.506  11.984 -0.2483 -0.0978 -0.1175
 2521TIP3    H131758   4.762   2.550  11.993 -0.7607  0.7038  0.9762
 2521TIP3    H231759   4.620   2.571  11.944 -1.1547  0.4974  1.9818
 2522TIP3   OH231760   3.013   5.894  12.712 -0.2875  0.0674  0.6238
 2522TIP3    H131761   2.949   5.825  12.730  0.4733 -0.7460  0.2493
 2522TIP3    H231762   3.097   5.849  12.707  0.0532  0.8233 -0.9701
 2523TIP3   OH231763   0.561   4.110  12.438 -0.6087 -0.0296  0.2696
 2523TIP3    H131764   0.603   4.100  12.353  1.4114 -1.3114  1.3315
 2523TIP3    H231765   0.482   4.055  12.432  0.3253 -1.3571 -0.2957
 2524TIP3   OH231766   2.543   0.627  10.868 -0.3254 -0.0796 -0.8856
 2524TIP3    H131767   2.563   0.547  10.917 -0.0765  0.8868  0.6604
 2524TIP3    H231768   2.569   0.698  10.927 -3.1605  1.1974 -1.0183
 2525TIP3   OH231769   5.101   6.348  12.983 -0.2676 -0.3006  0.0167
 2525TIP3    H131770   5.104   6.256  13.010 -0.3864 -0.5911 -0.9124
 2525TIP3    H231771   5.192   6.376  12.979 -0.2056 -0.5286 -0.1721
 2526TIP3   OH231772   1.073   1.250  10.261  0.4847 -0.3682 -0.6825
 2526TIP3    H131773   1.110   1.338  10.258  0.1676 -0.2605 -1.6434
 2526TIP3    H231774   1.093   1.212  10.176 -1.7135 -0.2435 -1.3166
 2527TIP3   OH231775   4.895   4.364  10.486  0.2526 -0.4801  0.2938
 2527TIP3    H131776   4.907   4.285  10.433  0.0868 -0.1221 -0.2885
 2527TIP3    H231777   4.801   4.382  10.482  0.2256 -0.4883  0.7733
 2528TIP3   OH231778   3.562   3.679  11.057 -0.2115 -0.0950 -0.3542
 2528TIP3    H131779   3.619   3.720  11.122  1.9797 -1.3342 -1.3839
 2528TIP3    H231780   3.553   3.745  10.989 -0.7200  0.4108  0.1867
 2529TIP3   OH231781   6.424   3.655   9.906  0.1323  0.1549  0.1118
 2529TIP3    H131782   6.388   3.723   9.849 -2.2015 -0.7371  0.4168
 2529TIP3    H231783   6.463   3.703   9.978 -0.2729  1.2021 -0.3438
 2530TIP3   OH231784   5.577   2.632  12.342 -0.4082 -0.0258  0.1098
 2530TIP3    H131785   5.619   2.695  12.400  0.5638 -0.1789 -0.4132
 2530TIP3    H231786   5.558   2.681  12.262  0.0818 -0.3175 -0.1886
 2531TIP3   OH231787   3.843   6.560  11.334 -0.0695  0.6447  0.2684
 2531TIP3    H131788   3.858   6.512  11.416  1.6827  0.4413 -0.1340
 2531TIP3    H231789   3.922   6.613  11.322 -0.6551  1.3006 -0.8811
 2532TIP3   OH231790   3.811   0.667  11.724 -0.5666 -0.4800  0.0289
 2532TIP3    H131791   3.879   0.602  11.742  0.1411  0.0149 -0.7774
 2532TIP3    H231792   3.837   0.706  11.640 -0.3280  1.7082  1.0734
 2533TIP3   OH231793   3.820   6.703  10.569  0.6224 -0.1321  0.1839
 2533TIP3    H131794   3.827   6.753  10.651 -0.1737  0.1352  0.1006
 2533TIP3    H231795   3.826   6.612  10.596 -1.0816 -0.1253  0.7510
 2534TIP3   OH231796   1.341   5.962  12.032  0.5655 -0.0171 -0.0878
 2534TIP3    H131797   1.275   5.894  12.047  1.0056 -0.5701 -0.6206
 2534TIP3    H231798   1.339   5.977  11.938  1.1985 -0.0441 -0.1111
 2535TIP3   OH231799   1.710   1.852  12.284 -0.9075 -0.0175 -0.1544
 2535TIP3    H131800   1.804   1.867  12.284 -1.0254  0.8960  0.9940
 2535TIP3    H231801   1.672   1.940  12.275 -1.6346 -0.1706  1.1929
 2536TIP3   OH231802   1.651   5.419  12.566  0.2973 -0.7054  0.6462
 2536TIP3    H131803   1.669   5.368  12.645  1.4731 -0.4825  0.5368
 2536TIP3    H231804   1.733   5.463  12.546 -0.2730  0.0582 -0.1228
 2537TIP3   OH231805   6.412   4.966  11.624  0.2482 -0.3178 -0.0868
 2537TIP3    H131806   6.461   4.941  11.546  0.3922  0.8151 -0.3706
 2537TIP3    H231807   6.417   5.061  11.626 -0.5450 -0.2841  0.7992
 2538TIP3   OH231808   2.247   4.723  13.036 -0.1487  0.7131 -0.0145
 2538TIP3    H131809   2.304   4.759  12.968 -1.0378  0.5483 -0.8711
 2538TIP3    H231810   2.284   4.637  13.056  1.1543  1.4582  1.0227
 2539TIP3   OH231811   5.252   4.088  11.102  0.3720 -0.7573  0.0898
 2539TIP3    H131812   5.204   4.131  11.172 -2.3703 -0.8066 -1.6339
 2539TIP3    H231813   5.241   3.995  11.119  1.0341 -0.7852  0.4088
 2540TIP3   OH231814   0.558   1.738  10.775  0.1089 -0.3142  0.2844
 2540TIP3    H131815   0.635   1.793  10.760 -0.0525  0.6300  2.5562
 2540TIP3    H231816   0.504   1.789  10.835 -1.9849 -1.2616 -0.6830
 2541TIP3   OH231817   4.705   5.956  10.740  0.0772  0.3435 -0.3516
 2541TIP3    H131818   4.627   5.944  10.687  0.4822 -2.0948 -0.4877
 2541TIP3    H231819   4.778   5.943  10.679  0.5571 -0.3135  0.3495
 2542TIP3   OH231820   3.483   4.260  12.741 -0.2771  0.4754 -0.4593
 2542TIP3    H131821   3.392   4.279  12.763 -0.0804  1.7203 -0.6350
 2542TIP3    H231822   3.490   4.281  12.648  0.5488  1.9603 -0.1018
 2543TIP3   OH231823   0.047   6.366  12.582  0.3020 -0.3304 -0.2024
 2543TIP3    H131824  -0.013   6.437  12.559  0.8145  0.2781  0.3026
 2543TIP3    H231825   0.002   6.319  12.652  0.2290 -0.1271 -0.1108
 2544TIP3   OH231826   1.037   0.449   9.572 -0.0751 -0.3230 -0.0540
 2544TIP3    H131827   1.113   0.475   9.521  0.4082 -0.6304  0.5026
 2544TIP3    H231828   1.035   0.354   9.567  0.2757 -0.3916  0.9109
 2545TIP3   OH231829   5.977   3.784  10.022 -0.0915  0.0946  0.0370
 2545TIP3    H131830   6.046   3.718  10.011  0.8056  1.0592 -0.3383
 2545TIP3    H231831   6.022   3.858  10.063 -1.1603  0.3492  0.7874
 2546TIP3   OH231832   5.268   0.055  10.462 -0.1350 -0.1173  0.0145
 2546TIP3    H131833   5.301   0.029  10.376 -0.5549  0.4199 -0.3181
 2546TIP3    H231834   5.208   0.127  10.443 -3.2791 -2.4400  0.3035
 2547TIP3   OH231835   2.153   4.431   9.668  0.1379 -0.1351 -0.1101
 2547TIP3    H131836   2.071   4.444   9.621  0.4616 -1.0837 -1.0070
 2547TIP3    H231837   2.128   4.416   9.759 -0.5542  1.1718 -0.0711
 2548TIP3   OH231838   4.917   0.264  11.469 -0.4301  0.1947  0.2415
 2548TIP3    H131839   4.838   0.228  11.511 -0.1133 -0.0911  0.5965
 2548TIP3    H231840   4.902   0.359  11.470 -0.3150  0.2134  1.2464
 2549TIP3   OH231841   5.720   4.477  12.013  0.2563 -0.0607 -0.1109
 2549TIP3    H131842   5.647   4.508  11.959  0.5375 -0.0937 -0.5140
 2549TIP3    H231843   5.719   4.382  12.001 -0.5251 -0.2192  1.0218
 2550TIP3   OH231844   5.176   5.353  11.478 -0.1740  0.3291 -0.3633
 2550TIP3    H131845   5.125   5.318  11.405 -0.2501  0.7335 -0.5071
 2550TIP3    H231846   5.143   5.306  11.555 -1.1022  0.9083 -0.3865
 2551TIP3   OH231847   1.760   1.672  12.837 -0.1170  0.3817  0.0462
 2551TIP3    H131848   1.766   1.684  12.932 -1.5424 -0.8694  0.3423
 2551TIP3    H231849   1.666   1.672  12.818  0.1547  1.4538 -1.5089
 2552TIP3   OH231850   3.047   5.395  11.387  0.0615 -0.3106 -0.5518
 2552TIP3    H131851   2.988   5.385  11.313 -0.5229 -0.9456 -0.0147
 2552TIP3    H231852   3.055   5.307  11.424 -0.9938  0.2447  1.1220
 2553TIP3   OH231853   6.065   1.000  11.279  0.4219 -0.9757 -0.0417
 2553TIP3    H131854   6.047   0.911  11.308  0.8681 -0.4372  2.0390
 2553TIP3    H231855   6.160   1.006  11.275  0.3991 -0.5398 -0.0028
 2554TIP3   OH231856   1.996   0.400  13.121  0.0627 -0.1611  0.3051
 2554TIP3    H131857   1.912   0.387  13.164  1.0151 -0.7403  2.0998
 2554TIP3    H231858   2.009   0.495  13.122 -0.7842 -0.0216 -0.4854
 2555TIP3   OH231859   1.978   5.484  12.903  0.1284  0.3948  0.3359
 2555TIP3    H131860   1.980   5.415  12.969  0.8723  1.3485  1.3554
 2555TIP3    H231861   2.041   5.456  12.837 -2.0092 -1.5080 -1.0189
 2556TIP3   OH231862   1.778   3.455  11.406  0.3849 -0.6323 -0.4848
 2556TIP3    H131863   1.761   3.376  11.457  0.2445 -0.0940  0.3307
 2556TIP3    H231864   1.697   3.471  11.358  1.1095 -2.1577 -2.3471
 2557TIP3   OH231865   1.156   5.076  10.949  0.6646  0.4096  0.6095
 2557TIP3    H131866   1.193   4.989  10.962  0.4202  0.2920  0.5163
 2557TIP3    H231867   1.080   5.079  11.007  0.2099  0.2727  0.0345
 2558TIP3   OH231868   3.906   3.910  10.939 -0.2050 -0.3568 -0.7902
 2558TIP3    H131869   3.911   3.822  10.977 -1.1218 -0.1398 -0.1413
 2558TIP3    H231870   3.948   3.965  11.005  0.8647 -0.3686 -1.4429
 2559TIP3   OH231871   0.206   6.770  12.312 -0.4936  0.2974 -0.2033
 2559TIP3    H131872   0.270   6.734  12.250 -0.7501  2.1436 -1.6261
 2559TIP3    H231873   0.139   6.809  12.256 -0.5460  2.3787  1.2386
 2560TIP3   OH231874   0.578   1.218  12.315  0.0732  0.4021 -0.4271
 2560TIP3    H131875   0.587   1.269  12.395  1.9695 -1.1039  0.4146
 2560TIP3    H231876   0.667   1.211  12.280 -0.5112 -0.1405 -1.9156
 2561TIP3   OH231877   3.803   6.726  12.156  0.0131 -0.1226  0.2525
 2561TIP3    H131878   3.856   6.663  12.203 -0.4661 -1.4901 -0.9695
 2561TIP3    H231879   3.726   6.677  12.128 -0.6586  1.1488 -0.2393
 2562TIP3   OH231880   4.739   4.648  11.355  0.3587 -0.1685  0.6966
 2562TIP3    H131881   4.808   4.618  11.295 -0.4254 -1.7970  0.5457
 2562TIP3    H231882   4.779   4.720  11.404  2.0316 -0.8021  0.3309
 2563TIP3   OH231883   1.982   3.414  12.524 -0.1314 -0.2011  0.2451
 2563TIP3    H131884   1.943   3.381  12.444 -1.7047 -2.7538  1.9301
 2563TIP3    H231885   2.074   3.389  12.518 -0.6569 -2.2822  0.0765
 2564TIP3   OH231886   0.044   0.947  10.452  0.1811 -0.0009 -0.0119
 2564TIP3    H131887   0.044   0.880  10.384 -0.5523 -0.2265  0.1993
 2564TIP3    H231888   0.104   1.014  10.420 -1.0753  0.4805 -1.4730
 2565TIP3   OH231889   1.623   5.987  11.163 -0.2310  0.2581  0.1545
 2565TIP3    H131890   1.562   5.959  11.096  1.3118 -0.1241 -1.1650
 2565TIP3    H231891   1.634   6.081  11.148  0.0358  0.1924 -0.0635
 2566TIP3   OH231892   2.956   2.429  12.101 -0.2665 -0.1730  0.1294
 2566TIP3    H131893   2.904   2.510  12.103 -0.0468 -0.0336  1.7311
 2566TIP3    H231894   2.977   2.412  12.193  1.8576 -0.6773 -0.4042
 2567TIP3   OH231895   2.237   1.157  11.765  0.0754  0.2563  0.2791
 2567TIP3    H131896   2.193   1.237  11.794 -1.6598 -0.6137  0.1884
 2567TIP3    H231897   2.291   1.132  11.840 -0.1409  0.9705  0.6884
 2568TIP3   OH231898   6.472   2.173   9.517  0.1680 -0.1750  0.4476
 2568TIP3    H131899   6.477   2.266   9.536 -1.1294  0.2959 -1.2425
 2568TIP3    H231900   6.522   2.162   9.436 -0.8814 -0.6683 -0.1552
 2569TIP3   OH231901   0.508   2.732  11.341  0.4307  0.5456 -0.3409
 2569TIP3    H131902   0.574   2.664  11.326  1.2494  0.6773  2.1260
 2569TIP3    H231903   0.509   2.785  11.261  3.0335  0.2853 -0.5658
 2570TIP3   OH231904   5.415   3.541   9.287  0.1388  0.0943  0.1143
 2570TIP3    H131905   5.496   3.593   9.282 -0.5911  1.2796  0.4079
 2570TIP3    H231906   5.428   3.472   9.221  0.4997  1.5646 -1.4356
 2571TIP3   OH231907   5.454   4.998  10.618  0.5687 -0.0268 -0.1910
 2571TIP3    H131908   5.382   4.936  10.631 -0.5646  1.1058 -0.8744
 2571TIP3    H231909   5.466   5.001  10.523  0.2949  1.1232 -0.2047
 2572TIP3   OH231910   6.645   0.812  12.900  0.2045 -0.4585  0.2609
 2572TIP3    H131911   6.608   0.759  12.829  0.0155 -1.3666  1.0215
 2572TIP3    H231912   6.695   0.879  12.855 -0.9204 -0.2669 -0.7645
 2573TIP3   OH231913   5.874   4.765  12.046 -0.2529 -0.0553 -0.0652
 2573TIP3    H131914   5.785   4.729  12.045 -0.0517 -0.7444  1.9130
 2573TIP3    H231915   5.927   4.699  12.000 -0.4257 -0.7472  0.6977
 2574TIP3   OH231916   5.960   5.610  10.660 -0.0893  0.0456  0.2619
 2574TIP3    H131917   5.930   5.665  10.588  2.0933 -0.3465 -1.0253
 2574TIP3    H231918   6.049   5.641  10.679  1.8237 -3.7521 -1.4425
 2575TIP3   OH231919   3.546   5.222  12.622 -0.0762  0.5302 -0.1788
 2575TIP3    H131920   3.546   5.225  12.718 -0.8901  0.3407 -0.1696
 2575TIP3    H231921   3.454   5.221  12.598  0.1112  2.0163 -1.0253
 2576TIP3   OH231922   2.485   6.393  10.207 -0.3037 -0.2555 -0.3615
 2576TIP3    H131923   2.545   6.422  10.276 -2.0290  0.5834  0.8546
 2576TIP3    H231924   2.531   6.320  10.164  0.1235 -2.0069  2.8063
 2577TIP3   OH231925   1.152   0.206  11.885 -0.7203 -0.2027 -0.0679
 2577TIP3    H131926   1.087   0.168  11.944 -0.6376 -0.1348  0.0661
 2577TIP3    H231927   1.101   0.251  11.818 -0.8199 -0.4992 -0.1956
 2578TIP3   OH231928   1.045   5.126  12.858 -0.5633 -0.0799 -0.6079
 2578TIP3    H131929   1.118   5.183  12.834 -0.2971  0.0949  0.5722
 2578TIP3    H231930   0.976   5.150  12.797 -0.5219  1.6632 -0.0365
 2579TIP3   OH231931   6.521   2.625  12.597 -0.0661 -0.4895 -0.1236
 2579TIP3    H131932   6.441   2.604  12.646 -0.9370  0.8893 -0.8906
 2579TIP3    H231933   6.555   2.704  12.638  0.2404 -0.4017 -0.5379
 2580TIP3   OH231934   3.957   0.011  11.986 -0.0241  0.0857  0.1580
 2580TIP3    H131935   3.953  -0.047  11.909  0.0365  1.3057 -0.7845
 2580TIP3    H231936   3.902  -0.033  12.051 -1.2113 -0.2943 -1.0542
 2581TIP3   OH231937   1.205   1.501  10.290 -0.2272 -0.6958 -0.4866
 2581TIP3    H131938   1.291   1.462  10.300 -0.9181 -1.9300  1.2345
 2581TIP3    H231939   1.167   1.498  10.378 -1.3456  1.4957 -0.8108
 2582TIP3   OH231940   5.030   5.098  11.323  0.1011  0.6813 -0.0093
 2582TIP3    H131941   4.987   5.149  11.254  0.2125 -0.3506 -0.8605
 2582TIP3    H231942   5.026   5.008  11.292  1.2061  0.3393  0.7942
 2583TIP3   OH231943   2.308   3.986  12.132  0.0149 -0.0278 -0.7089
 2583TIP3    H131944   2.243   3.946  12.076  0.5650 -0.8385 -0.7798
 2583TIP3    H231945   2.356   3.913  12.170  0.6524  0.5447 -0.3840
 2584TIP3   OH231946   5.186   0.906  12.528  0.2183  0.0743  0.4265
 2584TIP3    H131947   5.092   0.917  12.517  0.4203  0.0454 -1.5870
 2584TIP3    H231948   5.196   0.818  12.564 -0.6311  1.1664  3.7267
 2585TIP3   OH231949   0.734   6.071  11.648  0.1292 -0.1727 -0.0112
 2585TIP3    H131950   0.819   6.054  11.606 -0.1679  1.3976 -1.3521
 2585TIP3    H231951   0.750   6.147  11.703 -0.2093 -0.4326  0.4505
 2586TIP3   OH231952   3.862   6.793  12.629  0.3593 -0.0750  0.6544
 2586TIP3    H131953   3.896   6.871  12.672 -1.0756  0.2094  1.3353
 2586TIP3    H231954   3.827   6.738  12.700  0.2222 -0.7568  0.0777
 2587TIP3   OH231955   5.216   5.824  12.390 -0.2664 -0.0175  0.5351
 2587TIP3    H131956   5.256   5.912  12.392 -0.9281  0.3103 -0.2210
 2587TIP3    H231957   5.122   5.841  12.381 -0.2390 -0.8106 -1.5570
 2588TIP3   OH231958   6.823   3.337  11.538 -0.0037 -0.2618 -0.4136
 2588TIP3    H131959   6.760   3.351  11.468 -0.0394  0.4666 -0.2368
 2588TIP3    H231960   6.770   3.328  11.617 -0.0060 -1.6649 -0.5327
 2589TIP3   OH231961   2.267   3.432  12.828  0.4102  0.0144  0.3532
 2589TIP3    H131962   2.268   3.355  12.772  2.0977  0.7969 -0.7582
 2589TIP3    H231963   2.206   3.409  12.899 -0.5412 -1.6083 -0.9189
 2590TIP3   OH231964   2.230   6.525  10.893 -0.0065  0.2361 -0.0537
 2590TIP3    H131965   2.196   6.516  10.982  1.2165  0.7077  0.4845
 2590TIP3    H231966   2.155   6.553  10.841 -0.3054  2.0560  1.2554
 2591TIP3   OH231967   0.924   5.990  10.157  0.4216 -0.2299 -0.1795
 2591TIP3    H131968   0.980   6.040  10.216  1.2768 -0.2009 -1.0084
 2591TIP3    H231969   0.975   5.980  10.077 -1.9585  2.6073 -2.2593
 2592TIP3   OH231970   0.722   2.576  11.230  0.1516 -0.3010  0.0244
 2592TIP3    H131971   0.764   2.620  11.156  0.5131  1.2583  1.1082
 2592TIP3    H231972   0.792   2.564  11.294 -0.7165  1.0416  1.2860
 2593TIP3   OH231973   6.294   4.360  10.449 -0.0964 -0.0169 -0.3680
 2593TIP3    H131974   6.326   4.325  10.532 -3.1210 -1.6246  0.2738
 2593TIP3    H231975   6.288   4.455  10.464 -0.7012 -0.2818  1.3193
 2594TIP3   OH231976   1.535   2.988  11.113 -0.0598 -0.5887 -0.2048
 2594TIP3    H131977   1.565   3.062  11.061 -2.5718  0.6699  0.0066
 2594TIP3    H231978   1.516   2.920  11.048  0.7843 -0.5395 -0.5240
 2595TIP3   OH231979   0.680   3.419  12.683  0.3614 -0.0827 -0.2396
 2595TIP3    H131980   0.602   3.366  12.697  0.4702 -0.1711  0.0295
 2595TIP3    H231981   0.713   3.390  12.598  1.2333 -1.4719  0.5405
 2596TIP3   OH231982   0.829   5.173  12.197 -0.7383  0.2780  0.3677
 2596TIP3    H131983   0.819   5.268  12.189  0.2363  0.5169  1.7556
 2596TIP3    H231984   0.810   5.140  12.109 -0.6801  1.7842 -0.2380
 2597TIP3   OH231985   3.199   3.351  12.795  0.0237 -0.5601 -0.7419
 2597TIP3    H131986   3.136   3.308  12.853 -0.4130  0.4734 -0.4244
 2597TIP3    H231987   3.150   3.424  12.757  0.6959 -0.4471 -1.4085
 2598TIP3   OH231988   0.216   4.708  10.901 -0.4357 -0.4956 -0.2592
 2598TIP3    H131989   0.302   4.746  10.917 -0.7329 -0.0970  0.4078
 2598TIP3    H231990   0.169   4.776  10.851 -0.9677  0.0390  0.9349
 2599TIP3   OH231991   4.598   0.209  10.561  0.6869  0.0929  0.6044
 2599TIP3    H131992   4.569   0.163  10.639 -1.2355  0.6888  0.2803
 2599TIP3    H231993   4.614   0.299  10.591  0.6570  0.1493  0.4532
 2600TIP3   OH231994   3.822   0.593  13.062 -0.0845  0.7375 -0.0129
 2600TIP3    H131995   3.731   0.575  13.037 -0.0850  0.3072  0.2733
 2600TIP3    H231996   3.819   0.680  13.102 -0.2027  1.1200 -0.8466
 2601TIP3   OH231997   2.086   0.906  13.188  0.0498  0.4465  0.3502
 2601TIP3    H131998   2.174   0.923  13.155 -0.7961  1.2281 -1.6121
 2601TIP3    H231999   2.035   0.982  13.162 -1.6097 -0.7704 -0.0993
 2602TIP3   OH232000   1.300   3.775  11.638 -0.0210 -0.1328  0.3599
 2602TIP3    H132001   1.258   3.771  11.723 -1.8432 -1.4548 -0.5238
 2602TIP3    H232002   1.284   3.864  11.607 -0.6067 -0.0786  0.8049
 2603TIP3   OH232003   3.991   2.721  13.054 -0.1111  0.2676  0.3624
 2603TIP3    H132004   3.904   2.760  13.050 -0.2303  0.2503  2.0304
 2603TIP3    H232005   3.975   2.631  13.085  0.4812  0.2026  0.4884
 2604TIP3   OH232006   5.684   6.780  12.012  0.1968 -0.0226 -0.2581
 2604TIP3    H132007   5.668   6.766  12.105 -0.7491 -0.4936 -0.4770
 2604TIP3    H232008   5.639   6.862  11.991  0.4258  0.0941 -0.2978
 2605TIP3   OH232009   2.172   3.218  11.656 -0.2079  0.0816  0.1880
 2605TIP3    H132010   2.196   3.213  11.749  0.8004 -0.0650 -0.0765
 2605TIP3    H232011   2.085   3.178  11.652 -0.6322  0.8579  1.2006
 2606TIP3   OH232012   2.990   3.047  12.186 -0.1042 -0.2477 -0.1276
 2606TIP3    H132013   2.939   3.004  12.255  0.9993  0.0733  0.9322
 2606TIP3    H232014   3.062   3.090  12.233  0.8149 -0.2076 -1.5118
 2607TIP3   OH232015   3.445   3.543  10.791  0.0453  0.0070  0.4026
 2607TIP3    H132016   3.507   3.556  10.862 -0.0238 -0.6157  0.5834
 2607TIP3    H232017   3.412   3.454  10.803 -2.6078  1.0388  1.6613
 2608TIP3   OH232018   5.633   4.054  10.271  0.1117  0.3307 -0.3714
 2608TIP3    H132019   5.673   4.084  10.189  0.9275  0.0993 -0.0714
 2608TIP3    H232020   5.706   4.016  10.321 -0.3700  0.4749  0.4682
 2609TIP3   OH232021   6.104   6.005  12.735 -0.4581 -0.3454  0.3982
 2609TIP3    H132022   6.042   6.014  12.808 -0.7681  0.2383  0.0641
 2609TIP3    H232023   6.073   6.067  12.669  0.3609 -0.2039  0.1403
 2610TIP3   OH232024   3.089   3.088  12.503 -0.1187  0.1330 -0.0355
 2610TIP3    H132025   3.153   3.153  12.474 -0.9894  1.5078  0.9784
 2610TIP3    H232026   3.005   3.134  12.502 -1.6433 -2.3018 -3.6946
 2611TIP3   OH232027   0.424   2.114  11.407 -0.1809 -0.1896  0.2695
 2611TIP3    H132028   0.395   2.085  11.494 -0.5514  0.1080  0.2528
 2611TIP3    H232029   0.510   2.074  11.395 -1.3996 -2.7858 -0.5209
 2612TIP3   OH232030   1.721   0.649  10.688 -0.4706  0.0463  0.2726
 2612TIP3    H132031   1.715   0.717  10.621 -0.5300  0.6888  0.9105
 2612TIP3    H232032   1.686   0.571  10.646 -3.5252  1.1566  0.4723
 2613TIP3   OH232033   3.815   0.028  10.779  0.7836 -0.1153  0.2962
 2613TIP3    H132034   3.720   0.034  10.792  0.7978 -0.0548  0.3699
 2613TIP3    H232035   3.850   0.015  10.867  0.7875 -0.8347  0.1994
 2614TIP3   OH232036   6.522   0.577  10.660  0.3614  0.3677 -0.5496
 2614TIP3    H132037   6.582   0.624  10.718  0.2524 -0.8476  0.5978
 2614TIP3    H232038   6.567   0.495  10.640 -1.1612 -0.8904  0.9163
 2615TIP3   OH232039   1.462   5.738  10.372  0.8740  0.4509  0.2622
 2615TIP3    H132040   1.443   5.645  10.357  1.6092 -0.0449  2.0906
 2615TIP3    H232041   1.390   5.768  10.428  0.5675  1.0291 -0.4360
 2616TIP3   OH232042   0.386   0.564  11.548 -0.5263 -0.0055  0.1201
 2616TIP3    H132043   0.331   0.539  11.623  1.9807 -0.1963  2.0031
 2616TIP3    H232044   0.388   0.660  11.552 -2.1621  0.1204 -1.1106
 2617TIP3   OH232045   3.383   2.705  12.637 -0.0308 -0.1316  0.0228
 2617TIP3    H132046   3.368   2.768  12.567  1.2408  1.6195  1.2340
 2617TIP3    H232047   3.477   2.686  12.633 -0.4792 -2.5357 -0.7286
 2618TIP3   OH232048   5.093   0.650  12.201  0.1747 -0.4907 -0.5486
 2618TIP3    H132049   5.045   0.666  12.282  0.1071 -1.3105 -0.4253
 2618TIP3    H232050   5.048   0.576  12.160  0.5745 -0.4684 -1.0397
 2619TIP3   OH232051   3.582   6.818  11.768 -0.1655 -0.3966 -0.5729
 2619TIP3    H132052   3.636   6.890  11.802  0.5210 -0.8884 -0.5952
 2619TIP3    H232053   3.522   6.798  11.840  1.1943 -1.3444  0.3650
 2620TIP3   OH232054   3.806   4.651  11.352  0.3081 -0.0084  0.4729
 2620TIP3    H132055   3.807   4.673  11.259 -1.1383 -0.6177  0.2901
 2620TIP3    H232056   3.852   4.567  11.358 -1.2907 -0.9589 -0.0029
 2621TIP3   OH232057   6.557   0.685  11.222  0.0675 -0.1897  0.6107
 2621TIP3    H132058   6.489   0.751  11.236 -1.0557 -0.4633 -2.5672
 2621TIP3    H232059   6.508   0.604  11.205  1.1571 -0.5574 -1.0365
 2622TIP3   OH232060   0.963   3.278  12.939  0.0558  0.2396 -0.1315
 2622TIP3    H132061   0.931   3.336  12.870 -0.6338 -0.6512 -0.5607
 2622TIP3    H232062   1.028   3.223  12.896  2.3619  2.1121  0.7532
 2623TIP3   OH232063   5.556   4.755  12.040 -0.4732 -0.2862  0.0665
 2623TIP3    H132064   5.552   4.735  11.947 -2.4117  0.5259 -0.0652
 2623TIP3    H232065   5.467   4.741  12.072 -0.3693  1.4984  1.3303
 2624TIP3   OH232066   4.226   5.472  12.592  0.6403 -0.2348  0.5054
 2624TIP3    H132067   4.164   5.486  12.521  0.3320 -0.1339  0.7921
 2624TIP3    H232068   4.266   5.387  12.573 -1.3248 -1.4646  1.5928
 2625TIP3   OH232069   0.136   6.303  13.300 -0.5905 -0.0400  0.6667
 2625TIP3    H132070   0.156   6.209  13.309 -0.1612  0.0930  1.1581
 2625TIP3    H232071   0.059   6.305  13.243 -2.2450 -0.8570  2.7406
 2626TIP3   OH232072   5.399   6.514  12.811  0.0333  0.4255  0.2944
 2626TIP3    H132073   5.327   6.531  12.750  0.1472  0.4765  0.1720
 2626TIP3    H232074   5.369   6.551  12.894  0.5011  1.7655 -0.0995
 2627TIP3   OH232075   5.210   1.075  11.649 -0.0306  0.0265  0.2435
 2627TIP3    H132076   5.131   1.022  11.662  1.4667 -2.5762 -0.6638
 2627TIP3    H232077   5.248   1.082  11.736 -0.9833  0.8917  0.6090
 2628TIP3   OH232078   6.251   5.525  11.575 -0.2862  0.2824  0.3372
 2628TIP3    H132079   6.289   5.604  11.616 -0.6639 -0.3457  1.9738
 2628TIP3    H232080   6.160   5.548  11.560 -0.3332  0.2584  0.5737
 2629TIP3   OH232081   1.863   0.438  10.825  0.1051  0.3768  0.0061
 2629TIP3    H132082   1.833   0.511  10.771  1.4056  1.6698  0.9721
 2629TIP3    H232083   1.809   0.442  10.904 -0.1739 -0.0538 -0.1542
 2630TIP3   OH232084   2.525   4.200  10.950 -0.1036  0.6419  0.1250
 2630TIP3    H132085   2.580   4.136  10.905  0.2681  0.1573  1.2201
 2630TIP3    H232086   2.586   4.267  10.982 -0.0494 -0.0837  1.6556
 2631TIP3   OH232087   0.915   0.919  10.131 -0.5829  0.1223 -0.0965
 2631TIP3    H132088   0.855   0.887  10.198 -1.1428 -2.0615 -1.5598
 2631TIP3    H232089   0.989   0.859  10.135  0.8740  1.8561  0.6244
 2632TIP3   OH232090   6.654   0.732   9.994  0.3676 -0.2604  0.7213
 2632TIP3    H132091   6.609   0.744  10.078 -1.4473 -0.7250 -0.1343
 2632TIP3    H232092   6.728   0.675  10.015  0.7857  0.7745  2.2365
 2633TIP3   OH232093   5.955   5.141  10.986 -0.4852  0.5652 -0.6098
 2633TIP3    H132094   5.900   5.219  10.988 -0.7059  0.4001  1.4889
 2633TIP3    H232095   5.985   5.130  11.076  0.3066 -1.2500 -1.0473
 2634TIP3   OH232096   1.342   5.561  10.682  0.1028  0.5260  0.0975
 2634TIP3    H132097   1.386   5.509  10.750 -2.2276 -2.3370 -0.3368
 2634TIP3    H232098   1.259   5.586  10.722  0.1833  1.9084 -0.5597
 2635TIP3   OH232099   5.858   3.027  10.438 -0.3499  0.7893 -0.3466
 2635TIP3    H132100   5.945   3.016  10.401 -0.4394 -0.2481 -0.2866
 2635TIP3    H232101   5.799   3.020  10.363 -0.4282  0.5578 -0.2648
 2636TIP3   OH232102   2.663   0.384  12.974 -0.3350  0.0592 -0.6305
 2636TIP3    H132103   2.746   0.419  13.008 -0.4513  0.9134 -1.1987
 2636TIP3    H232104   2.624   0.457  12.927 -0.4249 -0.9294 -2.1573
 2637TIP3   OH232105   4.205   6.410  10.737 -0.0406  0.6682 -0.2198
 2637TIP3    H132106   4.227   6.492  10.782 -0.7220  1.4648 -1.2756
 2637TIP3    H232107   4.250   6.416  10.653  0.0159 -0.1232 -0.2563
 2638TIP3   OH232108   5.030   1.432  10.802 -0.4893  0.1864  0.2183
 2638TIP3    H132109   4.981   1.460  10.724  1.8772  1.5435 -0.8962
 2638TIP3    H232110   4.963   1.416  10.868 -2.4720  1.0891 -1.4693
 2639TIP3   OH232111   0.673   1.553  10.986 -0.0096 -0.3240 -0.0943
 2639TIP3    H132112   0.755   1.555  10.936  0.7802 -0.1928  1.1453
 2639TIP3    H232113   0.634   1.639  10.971  0.7762  0.1331  0.3893
 2640TIP3   OH232114   6.518   6.077   9.883 -0.1767  0.1773 -0.2719
 2640TIP3    H132115   6.578   6.150   9.901  0.5441 -0.4829  0.0452
 2640TIP3    H232116   6.529   6.059   9.789  0.2893 -0.0822 -0.1702
 2641TIP3   OH232117   5.637   6.399  12.816 -0.4881  0.0115  0.0000
 2641TIP3    H132118   5.619   6.315  12.774 -0.6399  0.4749 -0.8863
 2641TIP3    H232119   5.551   6.436  12.835 -0.4277 -0.6634  1.7169
 2642TIP3   OH232120   2.534   0.219  10.736 -0.2159 -0.2876  0.2523
 2642TIP3    H132121   2.487   0.218  10.652  0.0190  0.3980  0.1091
 2642TIP3    H232122   2.475   0.265  10.796  0.2796  0.6321  0.0567
 2643TIP3   OH232123   6.613   2.163  13.146 -0.2636 -0.2759 -0.5669
 2643TIP3    H132124   6.520   2.173  13.128 -0.2422 -0.3329 -0.7105
 2643TIP3    H232125   6.619   2.155  13.241 -0.3629  0.1941 -0.5162
 2644TIP3   OH232126   2.720   0.182  12.779 -0.7665 -0.2125 -0.9069
 2644TIP3    H132127   2.726   0.096  12.822 -0.9632  0.1054 -0.2186
 2644TIP3    H232128   2.695   0.242  12.850  0.6915  0.6491 -1.0852
 2645TIP3   OH232129   6.369   3.769  12.083  0.2583  0.4810 -0.0167
 2645TIP3    H132130   6.340   3.762  12.174  1.4569  0.6312  0.3948
 2645TIP3    H232131   6.297   3.813  12.039 -0.5313  0.0111  0.7625
 2646TIP3   OH232132   2.431   1.338  10.910  0.3385 -0.4766 -0.0025
 2646TIP3    H132133   2.440   1.419  10.960  0.3352  0.8239 -1.9633
 2646TIP3    H232134   2.342   1.342  10.874 -0.1804 -2.0943  1.0256
 2647TIP3   OH232135   3.525   3.175  11.984 -0.3208  0.3476 -0.1992
 2647TIP3    H132136   3.470   3.099  12.005 -0.3791 -0.1136 -1.8363
 2647TIP3    H232137   3.586   3.142  11.918  1.4898  1.0299  1.0584
 2648TIP3   OH232138   4.674   5.556  10.513 -0.0975 -0.6328  0.1175
 2648TIP3    H132139   4.705   5.643  10.536 -0.4391  0.1354 -2.0732
 2648TIP3    H232140   4.581   5.567  10.493 -0.6333 -1.9129  1.6901
 2649TIP3   OH232141   4.307   1.299  11.097  0.2595  0.4646  0.1948
 2649TIP3    H132142   4.326   1.218  11.144 -0.1955  0.1938 -0.0792
 2649TIP3    H232143   4.226   1.281  11.049  0.9742  0.5806 -1.0780
 2650TIP3   OH232144   2.036   4.289  12.337  0.3261 -0.3983 -0.3711
 2650TIP3    H132145   2.034   4.234  12.415  1.0567 -1.9935 -1.4365
 2650TIP3    H232146   2.118   4.266  12.293  1.0766  2.1502 -0.4635
 2651TIP3   OH232147   0.151   1.885   9.892 -0.1560  0.6685 -0.3527
 2651TIP3    H132148   0.138   1.848   9.805 -2.4390  0.8325 -0.1332
 2651TIP3    H232149   0.242   1.863   9.914 -0.0754 -0.8905 -2.0282
 2652TIP3   OH232150   6.850   2.829  12.704  0.2231 -0.8505 -0.0873
 2652TIP3    H132151   6.943   2.845  12.688  0.4165 -1.2079  0.6383
 2652TIP3    H232152   6.821   2.776  12.629  0.4307 -0.1617 -0.6641
 2653TIP3   OH232153   1.846   1.778  11.756 -0.5356 -0.0285 -0.1472
 2653TIP3    H132154   1.848   1.727  11.675 -1.8618  0.3730 -0.4530
 2653TIP3    H232155   1.928   1.756  11.799 -0.2303 -0.9822 -1.1492
 2654TIP3   OH232156   1.471   4.654  12.091 -0.0788 -0.2252 -0.1631
 2654TIP3    H132157   1.450   4.652  12.184 -1.0918 -0.4685 -0.3827
 2654TIP3    H232158   1.462   4.563  12.063 -2.6960  0.2229 -1.0785
 2655TIP3   OH232159   0.797   1.647  10.176  0.0514  0.1284 -0.2257
 2655TIP3    H132160   0.734   1.663  10.106  0.8230  0.8114 -0.7765
 2655TIP3    H232161   0.878   1.624  10.131  0.6027  0.7405  0.4327
 2656TIP3   OH232162   6.741   6.295  11.607  0.2416 -0.2538  0.5701
 2656TIP3    H132163   6.806   6.353  11.568  2.7895 -1.5582  2.5550
 2656TIP3    H232164   6.771   6.283  11.697 -2.3649 -1.5741  1.3509
 2657TIP3   OH232165   5.418   3.680  12.479 -0.3961 -0.1969  0.4728
 2657TIP3    H132166   5.375   3.617  12.422  0.2282  0.4597 -0.7587
 2657TIP3    H232167   5.370   3.762  12.466  0.6398  0.3136 -0.2247
 2658TIP3   OH232168   4.803   0.410  12.840 -0.2073  0.7145  0.6777
 2658TIP3    H132169   4.802   0.388  12.747  2.8566  0.7267  0.5164
 2658TIP3    H232170   4.737   0.352  12.880  0.6346 -1.6413 -1.0895
 2659TIP3   OH232171   6.669   0.688  10.864  0.7843 -0.2268  0.5794
 2659TIP3    H132172   6.707   0.610  10.906  0.2749  0.3148  2.1135
 2659TIP3    H232173   6.724   0.760  10.894 -0.2326  0.3061  1.2106
 2660TIP3   OH232174   0.164   5.913  10.850  0.6938 -0.1686  0.1539
 2660TIP3    H132175   0.199   5.900  10.762  0.4214 -0.2547  0.0554
 2660TIP3    H232176   0.125   5.828  10.872 -1.4551  0.5580 -0.6393
 2661TIP3   OH232177   3.209   4.860  12.019  0.0446 -0.2667  0.5487
 2661TIP3    H132178   3.294   4.826  11.992  0.1221  0.4095 -0.0964
 2661TIP3    H232179   3.163   4.877  11.937 -0.1029  0.8693  0.8456
 2662TIP3   OH232180   5.768   5.409  12.803 -0.3089  0.0802  0.2495
 2662TIP3    H132181   5.788   5.458  12.723 -1.1813 -1.0047 -0.6536
 2662TIP3    H232182   5.694   5.456  12.842 -0.6639 -0.0869 -0.2192
 2663TIP3   OH232183   5.977   6.704  12.369  0.5552  0.3756  0.0619
 2663TIP3    H132184   6.043   6.658  12.421  1.0131 -0.8282 -1.4874
 2663TIP3    H232185   5.894   6.667  12.398  0.7661  0.0665  0.2773
 2664TIP3   OH232186   0.301   2.788  10.707  0.1778  0.6898 -0.5405
 2664TIP3    H132187   0.339   2.717  10.656 -1.4783 -1.5759  1.2115
 2664TIP3    H232188   0.377   2.841  10.734  1.5818 -0.9170 -1.1541
 2665TIP3   OH232189   2.349   2.877  12.453 -0.0533 -0.5230 -0.2547
 2665TIP3    H132190   2.361   2.917  12.539  1.3627  1.5982 -1.3377
 2665TIP3    H232191   2.333   2.785  12.471 -1.5441  0.1589  2.3268
 2666TIP3   OH232192   5.829   5.793  10.480 -0.6021  0.0929  0.2147
 2666TIP3    H132193   5.794   5.805  10.392 -0.8610  0.2330  0.3370
 2666TIP3    H232194   5.884   5.870  10.496 -0.4177 -0.0173  0.1092
 2667TIP3   OH232195   5.629   5.016  12.046 -0.7876  0.2251 -0.4636
 2667TIP3    H132196   5.595   4.929  12.069  1.5016 -1.0179 -1.4718
 2667TIP3    H232197   5.657   5.007  11.955  1.7223  1.2481  0.1241
 2668TIP3   OH232198   6.063   5.143  10.040  0.0913 -0.4505  0.1556
 2668TIP3    H132199   6.060   5.173   9.949 -2.0122  1.5934  0.8128
 2668TIP3    H232200   5.990   5.081  10.046 -0.6979  0.5048  0.7483
 2669TIP3   OH232201   1.150   4.604  12.815  0.2900  0.0488  0.0390
 2669TIP3    H132202   1.142   4.698  12.832 -1.8905  0.0331 -0.6679
 2669TIP3    H232203   1.136   4.562  12.900 -1.2856  0.2950 -0.0804
 2670TIP3   OH232204   4.153   0.893  11.649 -0.2182 -0.0239 -0.1419
 2670TIP3    H132205   4.210   0.961  11.685 -1.6936  2.1452 -1.6027
 2670TIP3    H232206   4.203   0.858  11.575 -0.8069  2.2389 -1.7535
 2671TIP3   OH232207   5.701   5.371  11.826 -0.6423 -0.3585  0.1089
 2671TIP3    H132208   5.674   5.350  11.737  2.0688  2.1102 -1.4428
 2671TIP3    H232209   5.773   5.311  11.845 -1.7190 -1.4239  1.0543
 2672TIP3   OH232210   2.045   5.085  11.600  0.4329  0.2535 -0.0254
 2672TIP3    H132211   1.994   5.152  11.556  1.9588  0.3673 -1.7221
 2672TIP3    H232212   2.060   5.121  11.688  0.0760  1.5100 -0.4575
 2673TIP3   OH232213   0.921   1.498  13.045 -0.1105 -0.2744 -0.4623
 2673TIP3    H132214   0.863   1.444  13.100 -0.2011  0.2457 -0.0373
 2673TIP3    H232215   0.987   1.532  13.106  1.3566 -1.7915 -1.1369
 2674TIP3   OH232216   5.689   5.490  11.292 -0.3969  0.2194 -0.9367
 2674TIP3    H132217   5.600   5.457  11.300 -0.0717 -0.7571 -1.2303
 2674TIP3    H232218   5.692   5.566  11.351 -1.5449  0.5476 -1.2746
 2675TIP3   OH232219   1.541   0.415  12.016  0.2071 -0.1866 -0.5956
 2675TIP3    H132220   1.514   0.419  11.924  1.1293  0.5112 -0.8443
 2675TIP3    H232221   1.492   0.486  12.057 -0.3214 -0.5937 -0.5017
 2676TIP3   OH232222   3.174   6.773  12.323  0.2950  0.1094  0.0826
 2676TIP3    H132223   3.089   6.735  12.301 -0.2428  2.0275 -1.3774
 2676TIP3    H232224   3.175   6.777  12.418  0.2506 -3.1233  0.3365
 2677TIP3   OH232225   0.976   2.445  12.238 -0.6939  0.1242  0.2353
 2677TIP3    H132226   0.947   2.476  12.153 -0.1678  0.3667  0.1349
 2677TIP3    H232227   1.072   2.455  12.235 -0.5274 -1.2751  0.2917
 2678TIP3   OH232228   5.575   5.228  11.619  0.1851 -0.2104  0.0873
 2678TIP3    H132229   5.510   5.165  11.652  1.0636 -0.7310  0.9026
 2678TIP3    H232230   5.645   5.173  11.584  1.3335  0.2542  1.5264
 2679TIP3   OH232231   4.763   3.589  10.351  0.1902  0.0201  0.6282
 2679TIP3    H132232   4.706   3.531  10.401 -0.1671 -0.7421 -0.6269
 2679TIP3    H232233   4.712   3.612  10.273  0.9699  0.6770  0.2977
 2680TIP3   OH232234   1.132   1.259  11.024  0.1546  0.3271  0.7468
 2680TIP3    H132235   1.082   1.306  10.958 -1.9590 -0.2446  1.8397
 2680TIP3    H232236   1.151   1.174  10.984 -1.6703 -0.2618  1.0316
 2681TIP3   OH232237   6.177   4.180  12.437  0.1112  0.2596 -0.3176
 2681TIP3    H132238   6.143   4.195  12.348 -0.6679  0.0491 -0.0623
 2681TIP3    H232239   6.099   4.184  12.493  0.9345  3.6331  0.8051
 2682TIP3   OH232240   5.096   5.673  11.713  0.3290  0.2487 -0.0525
 2682TIP3    H132241   5.173   5.617  11.702  0.0088 -0.0332 -0.9776
 2682TIP3    H232242   5.078   5.671  11.807  0.2990 -1.2290 -0.0790
 2683TIP3   OH232243   1.920   4.182  12.572 -0.3775 -0.5650  0.2970
 2683TIP3    H132244   2.009   4.152  12.591  0.3408  0.7869 -0.7407
 2683TIP3    H232245   1.900   4.243  12.643  0.6116  1.1681 -0.8379
 2684TIP3   OH232246   5.796   0.537  13.107  0.0087  0.1043 -0.3000
 2684TIP3    H132247   5.769   0.472  13.171  1.2927 -0.6146 -0.4414
 2684TIP3    H232248   5.715   0.579  13.078 -0.7383 -0.7477  0.5212
 2685TIP3   OH232249   2.201   3.630  12.281  0.2272 -0.3004  0.8680
 2685TIP3    H132250   2.233   3.708  12.325  1.4109 -0.6967  0.7522
 2685TIP3    H232251   2.281   3.586  12.249 -0.4930 -0.8734 -0.2022
 2686TIP3   OH232252   4.753   1.751  10.743 -0.8556  0.4513  0.3692
 2686TIP3    H132253   4.753   1.716  10.832 -1.8697 -0.1427  0.1473
 2686TIP3    H232254   4.785   1.679  10.688 -2.1465  0.1252  0.0168
 2687TIP3   OH232255   1.856   1.468  12.505  0.2119  0.1098 -0.2379
 2687TIP3    H132256   1.920   1.452  12.436 -1.1587 -0.7351 -1.3584
 2687TIP3    H232257   1.787   1.520  12.462 -2.5012 -3.4673 -0.6664
 2688TIP3   OH232258   0.872   6.319  12.261 -0.1472  0.2637  0.2076
 2688TIP3    H132259   0.945   6.286  12.313 -0.9631  0.1036  1.2919
 2688TIP3    H232260   0.822   6.372  12.323  0.1604  2.0914 -1.0276
 2689TIP3   OH232261   4.091   3.315  11.121 -0.5708  0.2108 -0.5581
 2689TIP3    H132262   4.144   3.236  11.133 -0.0242  0.6363 -0.1112
 2689TIP3    H232263   4.066   3.341  11.209 -0.3513  0.7990 -0.6652
 2690TIP3   OH232264   1.353   6.273  10.382 -0.1001  0.0791 -0.1238
 2690TIP3    H132265   1.358   6.329  10.304 -0.0227  0.2706  0.0193
 2690TIP3    H232266   1.278   6.216  10.365 -0.1184  0.1581 -0.3140
 2691TIP3   OH232267   1.492   0.896  11.526  0.2023 -0.1911 -1.0113
 2691TIP3    H132268   1.453   0.974  11.486  1.1451  0.8539 -0.0034
 2691TIP3    H232269   1.419   0.853  11.571  0.2418  2.2353  1.6583
 2692TIP3   OH232270   0.810   2.119   9.086  0.6237 -0.3884  0.1091
 2692TIP3    H132271   0.754   2.140   9.011 -0.2563  0.7544  1.0591
 2692TIP3    H232272   0.769   2.042   9.125  0.1569 -0.0139  0.3578
 2693TIP3   OH232273   4.496   4.885  11.702  0.3108  0.2764 -0.7646
 2693TIP3    H132274   4.528   4.884  11.792 -0.5127 -0.3283 -0.4561
 2693TIP3    H232275   4.401   4.878  11.711  0.3278 -2.1752 -1.7081
 2694TIP3   OH232276   6.379   1.887  11.820  0.3831  0.3027 -0.3956
 2694TIP3    H132277   6.389   1.819  11.753 -0.0239 -0.5251  0.3552
 2694TIP3    H232278   6.288   1.879  11.848  0.4941  0.7828  0.1089
 2695TIP3   OH232279   1.760   4.701  10.978 -0.7409 -0.7940  0.3828
 2695TIP3    H132280   1.715   4.784  10.993  0.1413 -0.3217  0.4905
 2695TIP3    H232281   1.747   4.684  10.885 -1.8779 -1.1204  0.5851
 2696TIP3   OH232282   5.328   0.640  12.551 -0.2675 -0.0759  0.6244
 2696TIP3    H132283   5.405   0.677  12.596  0.2181 -0.9551  0.5424
 2696TIP3    H232284   5.365   0.581  12.485 -1.0108 -1.2668  1.2364
 2697TIP3   OH232285   5.050   4.224  11.797 -0.1389  0.7696 -0.1912
 2697TIP3    H132286   4.972   4.201  11.746  1.9756 -2.8336 -2.2377
 2697TIP3    H232287   5.049   4.164  11.871  0.6992  0.6888 -0.2396
 2698TIP3   OH232288   6.395   2.892   8.980 -0.0697 -0.0628 -0.3851
 2698TIP3    H132289   6.399   2.973   8.929  0.3492 -1.2087 -2.2207
 2698TIP3    H232290   6.303   2.882   9.001 -0.1082  0.9651  0.0483
 2699TIP3   OH232291   0.562   0.180  10.630 -0.2223 -0.8992 -0.6451
 2699TIP3    H132292   0.622   0.248  10.660  0.0502 -1.1978 -0.5004
 2699TIP3    H232293   0.474   0.216  10.648 -0.1005 -0.3106 -1.2014
 2700TIP3   OH232294   5.598   5.728  11.427  0.2527  0.4403 -0.2252
 2700TIP3    H132295   5.522   5.671  11.440  1.4942 -1.3028 -0.3554
 2700TIP3    H232296   5.627   5.748  11.516  0.4442 -0.0193 -0.1807
 2701TIP3   OH232297   1.683   1.192  13.307  0.3956 -0.2343 -0.1902
 2701TIP3    H132298   1.599   1.149  13.326  0.3955  0.5672  1.9813
 2701TIP3    H232299   1.659   1.282  13.286  0.7239  0.3570  1.7656
 2702TIP3   OH232300   2.158   2.298  10.557  0.1813 -0.5111  0.4790
 2702TIP3    H132301   2.250   2.278  10.538  0.5265 -1.1911  2.5566
 2702TIP3    H232302   2.160   2.386  10.594 -0.4426  0.7056 -2.1647
 2703TIP3   OH232303   2.328   4.402  11.025  0.1990  0.2789  0.5433
 2703TIP3    H132304   2.368   4.352  10.954 -1.0007 -0.1093  0.1212
 2703TIP3    H232305   2.241   4.425  10.992 -0.4905 -0.1614  1.9948
 2704TIP3   OH232306   1.853   0.049  10.900  0.0334  0.4428 -0.5105
 2704TIP3    H132307   1.796   0.065  10.825 -0.5148  0.2581 -0.1436
 2704TIP3    H232308   1.911   0.125  10.903  0.5519  0.1180 -1.5503
 2705TIP3   OH232309   5.016   2.983  12.398 -0.1690 -0.1718  0.5238
 2705TIP3    H132310   5.017   2.938  12.483 -0.1230  0.3875  0.8272
 2705TIP3    H232311   5.042   2.916  12.335  0.9065 -0.3171  1.0923
 2706TIP3   OH232312   5.874   2.832  13.431 -0.3849  0.2309 -0.0989
 2706TIP3    H132313   5.804   2.784  13.477  1.4463 -1.6930  0.8707
 2706TIP3    H232314   5.829   2.905  13.389 -2.9912 -0.9888  0.3487
 2707TIP3   OH232315   6.184   4.016  12.028  0.3253  0.0057  0.0861
 2707TIP3    H132316   6.173   4.111  12.026  0.0915 -0.0274 -1.5312
 2707TIP3    H232317   6.249   4.001  12.097  0.5729  1.3669  0.1748
 2708TIP3   OH232318   3.955   6.647  12.897 -0.4218  0.1055 -0.0431
 2708TIP3    H132319   3.990   6.564  12.929  2.2322  0.3715 -1.9282
 2708TIP3    H232320   3.862   6.630  12.883 -0.5685 -1.5992  2.3876
 2709TIP3   OH232321   3.838   3.842  10.317  0.6494  0.1777  0.4153
 2709TIP3    H132322   3.867   3.931  10.298  0.6456  0.0013 -0.4388
 2709TIP3    H232323   3.916   3.788  10.309  0.9575  0.2663  2.3016
 2710TIP3   OH232324   1.848   3.691  10.035 -0.0564 -0.0831  0.1828
 2710TIP3    H132325   1.763   3.657  10.007  0.0957  0.1283 -0.5416
 2710TIP3    H232326   1.908   3.618  10.024  0.3363  0.4668 -1.6880
 2711TIP3   OH232327   0.087   5.948  12.600  0.4468  0.5626  0.1698
 2711TIP3    H132328   0.139   5.890  12.546  1.1902  1.6675 -0.3329
 2711TIP3    H232329   0.018   5.893  12.635 -0.2324 -0.1323 -2.1202
 2712TIP3   OH232330   4.896   3.508  12.119  0.0450  0.0507 -0.3619
 2712TIP3    H132331   4.806   3.480  12.135  0.0019  0.6439  0.5292
 2712TIP3    H232332   4.939   3.432  12.081 -0.5053 -0.6670  0.4152
 2713TIP3   OH232333   2.833   5.139  11.511 -0.0469 -0.8692 -0.0890
 2713TIP3    H132334   2.777   5.111  11.439  0.3878 -0.4309 -0.5987
 2713TIP3    H232335   2.922   5.135  11.476  0.1502 -0.4115  0.3470
 2714TIP3   OH232336   2.169   0.039  12.403 -0.3334  0.1574 -0.0015
 2714TIP3    H132337   2.092   0.005  12.449 -1.1966  5.2013  3.0825
 2714TIP3    H232338   2.138   0.060  12.315 -1.0635 -2.0706 -0.3226
 2715TIP3   OH232339   4.026   6.113  11.655  0.0853 -0.2694 -0.0429
 2715TIP3    H132340   4.118   6.086  11.653  0.0557 -0.3795 -1.2259
 2715TIP3    H232341   4.028   6.207  11.642  0.0972  0.0653  2.0527
 2716TIP3   OH232342   4.608   1.977  11.708  0.1904 -0.3402 -0.2434
 2716TIP3    H132343   4.524   2.022  11.707  0.4858  0.2113 -0.4012
 2716TIP3    H232344   4.594   1.902  11.766 -0.3130 -0.0652 -0.0050
 2717TIP3   OH232345   1.220   0.235  10.598 -0.5309  0.0708 -0.3395
 2717TIP3    H132346   1.182   0.320  10.622 -0.0576  0.6985 -1.7298
 2717TIP3    H232347   1.214   0.232  10.503  3.6515  0.5982 -0.7899
 2718TIP3   OH232348   4.811   2.062  12.071  0.2253 -1.0513  0.1112
 2718TIP3    H132349   4.777   1.981  12.110  1.5626 -1.1304  1.1692
 2718TIP3    H232350   4.746   2.128  12.093  1.0523 -1.0367  2.8034
 2719TIP3   OH232351   1.595   0.960  10.426 -0.0407  0.0907  0.1194
 2719TIP3    H132352   1.573   1.017  10.352 -2.6783 -1.8484 -0.7230
 2719TIP3    H232353   1.673   0.913  10.396 -0.6390 -0.1349 -1.1840
 2720TIP3   OH232354   0.228   5.867  11.659 -0.0242 -0.1831  0.2693
 2720TIP3    H132355   0.233   5.880  11.754 -0.4686 -1.5282  0.5007
 2720TIP3    H232356   0.174   5.789  11.648  0.3859 -0.3118 -1.0849
 2721TIP3   OH232357   5.922   0.092  12.992 -0.3746  0.0499  0.1164
 2721TIP3    H132358   5.847   0.033  12.999 -1.3130  1.3849  2.8774
 2721TIP3    H232359   5.892   0.162  12.934 -0.7281 -0.1216  0.0858
 2722TIP3   OH232360   6.588   0.276  13.144 -0.2064 -0.0889  0.1375
 2722TIP3    H132361   6.564   0.359  13.184  1.0403  0.0349  0.6794
 2722TIP3    H232362   6.626   0.299  13.060 -1.1417 -0.2273 -0.3414
 2723TIP3   OH232363   3.226   4.030  11.558  0.0945  0.0687 -0.0091
 2723TIP3    H132364   3.236   4.000  11.648 -2.0101 -2.0656 -0.3718
 2723TIP3    H232365   3.174   3.961  11.516  0.1885  1.4661 -2.6060
 2724TIP3   OH232366   2.419   5.444  11.278  0.4169 -0.3215  0.0763
 2724TIP3    H132367   2.505   5.464  11.316  0.6772 -1.2625  0.0069
 2724TIP3    H232368   2.438   5.418  11.188  0.1824 -1.5198  0.3572
 2725TIP3   OH232369   6.248   2.814  11.944  0.1368 -0.2775  0.0671
 2725TIP3    H132370   6.259   2.759  12.021 -3.0262 -2.0387 -0.5454
 2725TIP3    H232371   6.289   2.765  11.873 -0.9038 -0.9447 -0.1062
 2726TIP3   OH232372   0.853   6.654  10.802 -0.6097 -0.1594 -0.2236
 2726TIP3    H132373   0.915   6.719  10.769  1.2041 -1.9297 -0.5087
 2726TIP3    H232374   0.775   6.704  10.825  1.2975  2.3845  1.2328
 2727TIP3   OH232375   3.372   6.797  10.622 -0.2728  0.4607 -0.1278
 2727TIP3    H132376   3.462   6.767  10.607 -0.6197  0.0151 -1.3792
 2727TIP3    H232377   3.332   6.727  10.675  0.1467  0.7332  0.5654
 2728TIP3   OH232378   5.721   1.489  12.016  0.0472  0.1586  0.4057
 2728TIP3    H132379   5.716   1.394  12.010  0.8210  0.2123 -1.8297
 2728TIP3    H232380   5.632   1.519  11.995 -0.0723 -0.0363  0.6230
 2729TIP3   OH232381   1.580   2.878  11.388 -0.1594  0.5073  0.1496
 2729TIP3    H132382   1.600   2.832  11.306  0.2863  0.3423  0.3498
 2729TIP3    H232383   1.485   2.871  11.396 -0.1228 -0.1852  0.0633
 2730TIP3   OH232384   6.172   2.010  11.581 -0.4030 -0.1830  0.1558
 2730TIP3    H132385   6.237   1.958  11.629  0.2500 -0.2146 -0.7340
 2730TIP3    H232386   6.143   2.075  11.644  0.1791 -0.4423  0.7099
 2731TIP3   OH232387   1.545   5.498  11.727 -0.1644  0.2145  0.6647
 2731TIP3    H132388   1.570   5.573  11.673  0.6766 -0.9027 -0.5580
 2731TIP3    H232389   1.449   5.497  11.723 -0.1388  0.4939 -0.3302
 2732TIP3   OH232390   4.704   6.631  11.032  0.2833  0.8641  0.2609
 2732TIP3    H132391   4.790   6.623  11.073  0.6479 -0.4899 -0.6741
 2732TIP3    H232392   4.677   6.721  11.049  1.6026  1.1222  1.1204
 2733TIP3   OH232393   6.668   6.824  12.842  0.3535  0.6567  0.5315
 2733TIP3    H132394   6.680   6.879  12.764 -1.0582 -0.8778 -0.8669
 2733TIP3    H232395   6.744   6.766  12.843  0.0247  0.1943 -0.1778
 2734TIP3   OH232396   1.188   1.590  13.123 -0.1501  0.1205  0.1346
 2734TIP3    H132397   1.147   1.676  13.138 -0.3262  0.0315  0.1711
 2734TIP3    H232398   1.218   1.594  13.032  0.1868  0.3615  0.2549
 2735TIP3   OH232399   2.146   3.088  12.706  0.2067 -0.5559 -0.4609
 2735TIP3    H132400   2.072   3.149  12.713  0.6984 -0.0580  0.6556
 2735TIP3    H232401   2.216   3.141  12.667  0.7395 -0.2807  0.8167
 2736TIP3   OH232402   5.376   1.277  10.326  0.1725  0.5984 -0.1078
 2736TIP3    H132403   5.295   1.298  10.280 -0.7334 -0.5615  0.8847
 2736TIP3    H232404   5.426   1.359  10.327 -1.3461  1.5469 -0.0410
 2737TIP3   OH232405   5.027   3.514  11.670  0.4656 -0.7687  0.0159
 2737TIP3    H132406   4.964   3.571  11.627  2.1576  0.5718 -0.8244
 2737TIP3    H232407   5.019   3.536  11.763  0.5460  0.2982 -0.2114
 2738TIP3   OH232408   0.776   3.838  10.378  0.1472  0.9547  0.0531
 2738TIP3    H132409   0.848   3.843  10.440 -0.7782  0.0063  1.2479
 2738TIP3    H232410   0.816   3.802  10.298  0.8530 -0.4243  0.9813
 2739TIP3   OH232411   4.952   2.800  10.548  0.0190 -0.2724 -0.1011
 2739TIP3    H132412   5.011   2.871  10.570 -0.0491 -0.6175  1.2526
 2739TIP3    H232413   5.001   2.745  10.486 -0.1399  1.2203 -1.6165
 2740TIP3   OH232414   2.433   6.170  11.911 -0.2982 -0.5088 -0.0200
 2740TIP3    H132415   2.474   6.123  11.839 -2.7714 -3.4798  0.2772
 2740TIP3    H232416   2.455   6.119  11.989 -0.3402  0.7580  0.8400
 2741TIP3   OH232417   1.086   3.644  13.227 -0.1450 -0.0398 -0.0554
 2741TIP3    H132418   1.055   3.734  13.213  1.3792  0.4862 -0.2829
 2741TIP3    H232419   1.007   3.590  13.223 -1.0664  1.2636 -0.1370
 2742TIP3   OH232420   3.920   2.734  10.889 -0.1667 -0.2038  0.2658
 2742TIP3    H132421   3.938   2.666  10.825 -0.8981  0.4288 -0.6226
 2742TIP3    H232422   3.873   2.802  10.841  1.0647  1.2258  0.9752
 2743TIP3   OH232423   6.335   6.732  12.311 -0.3636  0.1805  0.6226
 2743TIP3    H132424   6.270   6.716  12.243  0.7433 -1.9805 -0.0182
 2743TIP3    H232425   6.318   6.821  12.340 -0.9406  1.1897 -2.4504
 2744TIP3   OH232426   0.754   1.648  11.655 -0.1472  0.4349  0.0917
 2744TIP3    H132427   0.831   1.686  11.613  0.0191  0.1656  0.1461
 2744TIP3    H232428   0.691   1.637  11.584  0.1894 -0.1638 -0.1229
 2745TIP3   OH232429   3.590   4.384  11.311  0.3309 -0.6010 -0.0588
 2745TIP3    H132430   3.666   4.339  11.347 -0.6884 -0.4347  2.5918
 2745TIP3    H232431   3.517   4.325  11.329 -0.9425  1.5408  2.8372
 2746TIP3   OH232432   0.069   2.837  11.076  0.3978 -0.0633  0.1613
 2746TIP3    H132433   0.097   2.750  11.102  1.9933  0.8210  1.6368
 2746TIP3    H232434   0.144   2.893  11.096 -0.8305  1.7645 -0.0706
 2747TIP3   OH232435   0.155   3.896  12.018  0.3582 -0.0507  0.1412
 2747TIP3    H132436   0.082   3.883  12.079  1.4616 -0.0206  1.5434
 2747TIP3    H232437   0.174   3.808  11.985  0.2879 -0.2131  0.5199
 2748TIP3   OH232438   4.899   1.973  10.417  0.3346 -0.0252  0.1347
 2748TIP3    H132439   4.867   2.025  10.344 -0.3402 -0.3035  0.2222
 2748TIP3    H232440   4.843   1.998  10.491  1.3542  0.6572  0.7125
 2749TIP3   OH232441   4.709   3.463  12.635  0.1779  0.0816 -0.1870
 2749TIP3    H132442   4.652   3.415  12.694  0.8780 -2.0233 -1.1483
 2749TIP3    H232443   4.756   3.524  12.692 -0.0264 -1.0469  1.2422
 2750TIP3   OH232444   1.411   2.119  10.903 -0.2459  0.3288 -0.9445
 2750TIP3    H132445   1.318   2.104  10.890 -0.5368 -0.1474  1.2328
 2750TIP3    H232446   1.453   2.041  10.866 -0.9675 -0.8726  0.6722
 2751TIP3   OH232447   0.303   1.792  10.620  0.2651  0.3268 -0.3402
 2751TIP3    H132448   0.262   1.710  10.648 -0.6847  1.6511  2.5488
 2751TIP3    H232449   0.389   1.791  10.662  0.3841  0.6515 -0.5732
 2752TIP3   OH232450   1.326   1.431  11.934 -0.2109 -0.0586 -0.4275
 2752TIP3    H132451   1.238   1.421  11.970 -0.2471  1.9394  0.1733
 2752TIP3    H232452   1.367   1.498  11.988  1.2930 -0.1384 -1.4001
 2753TIP3   OH232453   4.355   4.314  13.273  0.4170 -0.3622  0.1291
 2753TIP3    H132454   4.264   4.343  13.265  0.4416 -0.7585 -1.9948
 2753TIP3    H232455   4.394   4.375  13.337 -0.9052  0.8574 -0.1804
 2754TIP3   OH232456   6.651   4.882   9.525 -0.1022 -0.1486  0.0964
 2754TIP3    H132457   6.654   4.842   9.437  0.0145 -1.8390  0.8281
 2754TIP3    H232458   6.665   4.975   9.509 -0.2773 -0.3900 -1.7032
 2755TIP3   OH232459   4.704   4.266  11.893  0.1565  0.5742  0.1163
 2755TIP3    H132460   4.763   4.313  11.951  2.1135 -1.9874  0.3885
 2755TIP3    H232461   4.625   4.253  11.945  0.0792  2.2795  0.4866
 2756TIP3   OH232462   2.531   2.657  12.535  0.2032 -0.2294 -0.7202
 2756TIP3    H132463   2.594   2.711  12.582 -0.0384 -0.1202 -0.5189
 2756TIP3    H232464   2.490   2.603  12.603  0.0098 -0.2282 -0.8333
 2757TIP3   OH232465   2.112   1.336  12.787  0.4638  0.0307 -0.3091
 2757TIP3    H132466   2.179   1.341  12.719 -0.5925 -1.3935 -1.5005
 2757TIP3    H232467   2.049   1.404  12.763  0.1300 -0.4204 -0.7198
 2758TIP3   OH232468   0.249   2.621  12.640  0.5228 -0.3018 -0.6082
 2758TIP3    H132469   0.158   2.591  12.648  1.0737 -2.1847 -0.9103
 2758TIP3    H232470   0.248   2.710  12.676 -1.8555  0.5645 -2.5329
 2759TIP3   OH232471   3.286   0.037  10.014  0.2182  0.3205  0.1141
 2759TIP3    H132472   3.270  -0.040   9.959 -1.3799 -0.9949  2.2709
 2759TIP3    H232473   3.346   0.007  10.082  0.7133  1.3996  0.1736
 2760TIP3   OH232474   4.789   1.504  10.586 -0.3044  0.6146 -0.1425
 2760TIP3    H132475   4.720   1.439  10.598 -1.6692  2.1230  0.5899
 2760TIP3    H232476   4.782   1.531  10.494  0.3077 -0.2842 -0.4646
 2761TIP3   OH232477   1.666   1.135  11.689  0.2382 -0.1092 -0.6404
 2761TIP3    H132478   1.707   1.048  11.690  2.2121  0.7633 -1.6802
 2761TIP3    H232479   1.653   1.156  11.781  1.4273 -0.7637 -0.3023
 2762TIP3   OH232480   6.052   1.142  13.037  0.0812  1.4342 -0.4091
 2762TIP3    H132481   6.123   1.187  13.082 -1.1778  1.8872  1.2300
 2762TIP3    H232482   5.976   1.199  13.049 -0.5873  0.9855 -2.1432
 2763TIP3   OH232483   4.482   5.934  10.595  0.1930 -0.7624 -0.3405
 2763TIP3    H132484   4.406   5.889  10.631  1.4029 -1.3338  1.6741
 2763TIP3    H232485   4.447   5.989  10.525 -1.9900 -1.2662  0.2849
 2764TIP3   OH232486   5.954   4.136  12.579  0.1875 -0.3497  0.0775
 2764TIP3    H132487   5.977   4.150  12.671 -0.2594 -1.3821  0.3484
 2764TIP3    H232488   5.875   4.083  12.581 -0.9600  1.2416 -0.8943
 2765TIP3   OH232489   4.050   0.958  10.787 -0.0692 -0.3960  0.1380
 2765TIP3    H132490   4.143   0.978  10.792 -0.1161  1.0978 -2.7387
 2765TIP3    H232491   4.007   1.028  10.835  0.2228  0.4592 -0.8145
 2766TIP3   OH232492   5.878   5.409  11.570  0.1418  0.0449 -0.1622
 2766TIP3    H132493   5.943   5.347  11.602 -0.6126 -0.1064  1.1332
 2766TIP3    H232494   5.803   5.355  11.546 -0.0628  0.3434 -0.2027
 2767TIP3   OH232495   3.546   2.497  11.613 -0.0347  0.3481 -0.0710
 2767TIP3    H132496   3.580   2.410  11.633 -0.1813 -0.4188 -2.7344
 2767TIP3    H232497   3.605   2.531  11.546  0.4594  2.6705  1.4427
 2768TIP3   OH232498   5.304   0.790  11.700  0.2941  0.4807  0.5271
 2768TIP3    H132499   5.211   0.808  11.684  0.6726  0.9922 -1.3429
 2768TIP3    H232500   5.324   0.835  11.782 -0.5142  2.5595 -0.3648
 2769TIP3   OH232501   0.809   4.859  12.748  0.2407 -0.2676  0.0939
 2769TIP3    H132502   0.743   4.871  12.817  0.2876 -4.0993  1.0130
 2769TIP3    H232503   0.893   4.856  12.795  0.9521  2.2805 -0.8265
 2770TIP3   OH232504   4.242   2.019  11.601  0.1471 -0.1343 -0.2361
 2770TIP3    H132505   4.276   1.960  11.669  1.3024  0.8967  0.1092
 2770TIP3    H232506   4.161   1.978  11.572  0.4992 -1.4644  0.5831
 2771TIP3   OH232507   3.433   2.625  13.176 -0.4216 -0.5312 -0.1670
 2771TIP3    H132508   3.498   2.694  13.163 -0.3306 -0.4619  0.5760
 2771TIP3    H232509   3.359   2.670  13.218 -0.6862 -0.7317 -0.4149
 2772TIP3   OH232510   0.677   5.403  11.396 -0.0982 -0.3852 -0.6491
 2772TIP3    H132511   0.615   5.474  11.381 -0.1580 -0.5434 -1.2018
 2772TIP3    H232512   0.751   5.444  11.441 -0.5055 -0.1533 -0.1836
 2773TIP3   OH232513   5.578   6.379  11.572 -0.6574  0.3923 -0.1013
 2773TIP3    H132514   5.620   6.294  11.579 -0.1570  0.6483  0.1058
 2773TIP3    H232515   5.637   6.430  11.516 -1.5614  0.2330 -1.2116
 2774TIP3   OH232516   3.628   6.241  11.300  0.5483  0.0412  0.1350
 2774TIP3    H132517   3.678   6.160  11.304  0.8316  0.2308  3.0843
 2774TIP3    H232518   3.676   6.302  11.357 -0.9223  1.4903 -0.0776
 2775TIP3   OH232519   3.518   3.436  11.905 -0.2687  0.0531  0.5631
 2775TIP3    H132520   3.450   3.440  11.838 -1.2730  0.8722  1.5908
 2775TIP3    H232521   3.499   3.357  11.954  0.8610 -0.9068 -0.4833
 2776TIP3   OH232522   4.461   3.516  10.792  0.1741 -0.0618 -0.1410
 2776TIP3    H132523   4.379   3.487  10.752 -1.4253  0.5973  2.4113
 2776TIP3    H232524   4.442   3.519  10.885  3.2694 -0.2453  0.5919
 2777TIP3   OH232525   1.711   0.667  13.006 -0.1066 -0.4535  0.0112
 2777TIP3    H132526   1.780   0.653  13.072 -2.1388 -1.1104  2.1489
 2777TIP3    H232527   1.665   0.745  13.037  0.3759  0.7402 -2.0995
 2778TIP3   OH232528   6.722   2.755  12.126 -0.2335 -0.1488 -0.4480
 2778TIP3    H132529   6.758   2.835  12.164  0.7772  0.0577 -1.7955
 2778TIP3    H232530   6.716   2.772  12.032 -1.0397 -1.2624 -0.6245
 2779TIP3   OH232531   0.965   5.251  12.415 -0.3533 -0.4219 -0.2515
 2779TIP3    H132532   0.922   5.222  12.334  0.4229  0.1302 -0.8688
 2779TIP3    H232533   0.938   5.186  12.480 -0.4958 -1.2285 -1.0933
 2780TIP3   OH232534   5.833   0.240  11.022 -0.1982  0.4789 -0.1448
 2780TIP3    H132535   5.913   0.280  10.987 -0.6753 -0.3126 -2.2737
 2780TIP3    H232536   5.854   0.147  11.028 -1.6025 -0.1354 -2.9931
 2781TIP3   OH232537   0.320   4.351  13.112  0.1552  0.0369  0.3124
 2781TIP3    H132538   0.280   4.344  13.199 -0.1735 -0.4370  0.1316
 2781TIP3    H232539   0.245   4.354  13.052  0.3770  0.4641  0.0523
 2782TIP3   OH232540   5.670   1.220  12.115 -0.3010  0.0192  0.1855
 2782TIP3    H132541   5.718   1.196  12.195  0.3965 -3.5014 -1.0749
 2782TIP3    H232542   5.579   1.222  12.142 -0.3317 -3.3974  0.8221
 2783TIP3   OH232543   3.022   6.385  12.340 -0.4264 -0.2250  0.1519
 2783TIP3    H132544   2.936   6.406  12.374 -0.5733 -1.3263  0.5287
 2783TIP3    H232545   3.068   6.344  12.415  0.4933  0.5373  0.0221
 2784TIP3   OH232546   6.638   4.078  11.563 -0.2458 -0.3210 -0.5376
 2784TIP3    H132547   6.604   4.143  11.625  1.8186  1.8818 -1.5637
 2784TIP3    H232548   6.704   4.030  11.613 -0.5013 -0.4167 -0.2868
 2785TIP3   OH232549   5.581   4.670  10.828  0.3598  0.6832  0.2857
 2785TIP3    H132550   5.574   4.620  10.909 -1.0584  0.5633  0.1191
 2785TIP3    H232551   5.536   4.752  10.847 -0.1714  0.5675 -0.4406
 2786TIP3   OH232552   3.915   4.257  10.525 -0.3827  0.2114  0.7444
 2786TIP3    H132553   3.875   4.208  10.453  2.2963 -0.1248 -0.6226
 2786TIP3    H232554   3.918   4.347  10.493 -1.1719  0.4818  1.3897
 2787TIP3   OH232555   6.312   2.373  12.447 -0.0684 -0.1072 -0.0015
 2787TIP3    H132556   6.282   2.300  12.394 -1.5534  1.1105 -0.9206
 2787TIP3    H232557   6.407   2.375  12.435 -0.1609 -1.0702 -1.0017
 2788TIP3   OH232558   0.103   3.787  10.660  0.5194 -0.0238 -0.2740
 2788TIP3    H132559   0.167   3.799  10.730  1.5564 -0.1263 -1.1708
 2788TIP3    H232560   0.121   3.857  10.597 -0.7967  0.4436 -0.1673
 2789TIP3   OH232561   4.962   1.679  11.075 -0.0666  0.0844 -0.1599
 2789TIP3    H132562   4.953   1.770  11.104 -0.0054 -0.1921  0.7437
 2789TIP3    H232563   4.871   1.648  11.066 -0.1296 -0.5119  1.9835
 2790TIP3   OH232564   0.958   5.651   9.661 -0.0164 -0.3161  0.4271
 2790TIP3    H132565   1.051   5.673   9.670  0.4232 -1.0898 -1.6756
 2790TIP3    H232566   0.957   5.557   9.643 -1.0464 -0.0312 -1.2293
 2791TIP3   OH232567   0.533   1.207  11.281  0.1142  0.0086 -0.3491
 2791TIP3    H132568   0.621   1.190  11.248 -0.5188 -0.2415 -2.0387
 2791TIP3    H232569   0.509   1.291  11.242 -0.3277  0.1725  0.2632
 2792TIP3   OH232570   6.818   6.144  10.896  0.1796  0.0572  0.1355
 2792TIP3    H132571   6.757   6.173  10.964 -1.1290 -1.5903 -0.2747
 2792TIP3    H232572   6.877   6.084  10.941 -0.3937 -0.6693 -0.0680
 2793TIP3   OH232573   4.971   2.564  12.665  0.1328  0.5557  0.1574
 2793TIP3    H132574   4.898   2.584  12.606  0.8256 -0.4286 -1.0839
 2793TIP3    H232575   4.931   2.515  12.736 -0.3163 -0.8240 -0.9971
 2794TIP3   OH232576   5.003   4.735  13.244 -0.1316  0.1540  0.0787
 2794TIP3    H132577   4.920   4.760  13.204  0.4026  1.2327 -0.4049
 2794TIP3    H232578   5.035   4.816  13.284  1.6793  0.3418 -1.5764
 2795TIP3   OH232579   4.663   5.401  10.068  0.0370 -0.3933  0.1744
 2795TIP3    H132580   4.689   5.491  10.087 -0.1210 -0.3020 -0.0390
 2795TIP3    H232581   4.700   5.383   9.982 -1.1845 -0.0280 -0.4473
 2796TIP3   OH232582   3.474   0.240  12.068  0.2424 -0.0328  0.2437
 2796TIP3    H132583   3.400   0.180  12.079 -0.0568  0.4514  0.9346
 2796TIP3    H232584   3.436   0.319  12.031  0.6042 -0.1915 -0.4812
 2797TIP3   OH232585   4.230   5.257  11.566 -1.1036  0.2717  0.0442
 2797TIP3    H132586   4.149   5.306  11.548 -1.5025  0.1310  1.3154
 2797TIP3    H232587   4.264   5.297  11.647 -1.5979 -1.6939  1.2990
 2798TIP3   OH232588   4.934   3.659  11.887 -0.1805 -0.3135  0.4116
 2798TIP3    H132589   4.928   3.613  11.972  1.3653  1.8155  1.7736
 2798TIP3    H232590   4.870   3.729  11.893 -0.7483 -0.7246 -0.6213
 2799TIP3   OH232591   2.149   1.762  10.307 -0.2089  0.4595 -0.0886
 2799TIP3    H132592   2.156   1.785  10.214  0.8084 -4.3508 -1.4526
 2799TIP3    H232593   2.055   1.755  10.323 -0.3917 -0.8773 -1.5085
 2800TIP3   OH232594   1.150   1.028  10.647  0.9232 -0.0032  0.0273
 2800TIP3    H132595   1.090   0.959  10.618  0.4960  0.1845  0.4560
 2800TIP3    H232596   1.230   0.981  10.672  0.4167 -0.4192  0.9183
 2801TIP3   OH232597   0.342   2.915   9.414 -0.0358  0.2177 -0.4313
 2801TIP3    H132598   0.430   2.953   9.413  0.4631 -0.8018  0.9067
 2801TIP3    H232599   0.357   2.820   9.421 -1.2505 -0.0800 -1.4555
 2802TIP3   OH232600   3.305   5.140  12.444  0.1505 -0.3188 -0.2899
 2802TIP3    H132601   3.256   5.110  12.368  1.5257  1.1519 -1.8577
 2802TIP3    H232602   3.271   5.228  12.462  2.1426  0.7745 -1.4677
 2803TIP3   OH232603   1.492   2.789  12.191 -0.5237 -0.4906  0.3808
 2803TIP3    H132604   1.428   2.847  12.150  1.0199  2.7184  2.1194
 2803TIP3    H232605   1.550   2.763  12.120 -0.9037  0.6381 -0.3653
 2804TIP3   OH232606   1.392   2.763  12.924  0.1431  0.0576 -0.6433
 2804TIP3    H132607   1.374   2.807  13.007  0.8518 -0.3339 -0.2744
 2804TIP3    H232608   1.453   2.821  12.879 -0.0221  0.1324 -0.7741
 2805TIP3   OH232609   4.186   0.853   9.836 -0.2611 -0.1655 -0.0469
 2805TIP3    H132610   4.131   0.778   9.813 -0.2079  0.5358 -2.7974
 2805TIP3    H232611   4.124   0.924   9.851 -0.2223 -0.0963 -0.2096
 2806TIP3   OH232612   3.741   3.137  11.024  0.4332  0.0985 -0.2124
 2806TIP3    H132613   3.783   3.113  11.107 -1.4980 -1.6422  0.3588
 2806TIP3    H232614   3.797   3.098  10.957 -0.2016 -2.2706  0.5339
 2807TIP3   OH232615   6.714   5.762  10.741 -0.3222 -0.3882 -0.0329
 2807TIP3    H132616   6.670   5.844  10.765 -1.4780 -0.8791 -0.3750
 2807TIP3    H232617   6.667   5.731  10.664  1.9957  0.0891 -1.7418
 2808TIP3   OH232618   4.539   0.343  10.976  0.1477  0.2691 -0.6394
 2808TIP3    H132619   4.625   0.301  10.973 -0.0046 -0.0097 -2.7948
 2808TIP3    H232620   4.530   0.385  10.890 -1.0327  2.0593  0.2918
 2809TIP3   OH232621   4.118   6.503  10.163 -1.2143 -0.6890  0.6582
 2809TIP3    H132622   4.203   6.481  10.199 -0.4132  1.4890  0.2572
 2809TIP3    H232623   4.077   6.559  10.228 -0.0442  2.6936 -1.2839
 2810TIP3   OH232624   6.292   4.532  10.915 -0.4534  0.8930  0.5209
 2810TIP3    H132625   6.348   4.610  10.925 -0.6952  1.1438 -0.0160
 2810TIP3    H232626   6.203   4.567  10.913 -0.6104  0.5255  1.0552
 2811TIP3   OH232627   1.903   1.936   9.784 -0.2001 -0.1949 -0.0908
 2811TIP3    H132628   1.953   1.882   9.723  0.0370  1.1638 -1.1527
 2811TIP3    H232629   1.931   2.025   9.765  0.5834  0.2260  2.6850
 2812TIP3   OH232630   6.179   2.975  11.564  0.2885  0.2580  0.4681
 2812TIP3    H132631   6.221   3.052  11.603 -0.1916  0.3208  0.8677
 2812TIP3    H232632   6.167   2.998  11.472  1.1152  0.2456  0.3499
 2813TIP3   OH232633   3.988   0.161  12.772  0.0223  0.0721  0.5458
 2813TIP3    H132634   3.918   0.165  12.837 -0.7154  1.4816 -0.2923
 2813TIP3    H232635   4.035   0.243  12.783 -0.9451  0.9766 -1.5476
 2814TIP3   OH232636   2.114   3.933  12.437  0.7308 -0.4868  0.3335
 2814TIP3    H132637   2.041   3.875  12.459  0.6813 -0.4417  0.2879
 2814TIP3    H232638   2.101   3.955  12.344  0.0354  0.6150  0.6673
 2815TIP3   OH232639   5.582   5.490  12.483 -0.0507  0.9479  0.8045
 2815TIP3    H132640   5.567   5.583  12.465 -0.2401  0.9972  1.2062
 2815TIP3    H232641   5.677   5.482  12.487  0.0307  0.8258 -0.7396
 2816TIP3   OH232642   1.862   2.617  10.222  0.7582 -0.2691 -0.0205
 2816TIP3    H132643   1.952   2.628  10.191  0.1820  1.7418 -1.1968
 2816TIP3    H232644   1.825   2.551  10.163  1.2788 -0.6636  0.0816
 2817TIP3   OH232645   0.411   1.319  11.819 -0.0303 -0.1594  0.2803
 2817TIP3    H132646   0.474   1.253  11.849  1.4409  1.1678  0.2497
 2817TIP3    H232647   0.397   1.299  11.727 -1.4981 -1.8611  0.8180
 2818TIP3   OH232648   2.851   3.850  11.294  0.3482  0.3375 -0.6469
 2818TIP3    H132649   2.758   3.872  11.297  0.2785 -0.0829  0.7359
 2818TIP3    H232650   2.890   3.901  11.365  0.9873 -0.3635 -0.4857
 2819TIP3   OH232651   1.566   2.594  11.934 -0.0740 -0.3674  0.6121
 2819TIP3    H132652   1.660   2.584  11.917 -0.0550 -0.8720  0.9944
 2819TIP3    H232653   1.539   2.666  11.877  0.0150 -1.8623 -1.4712
 2820TIP3   OH232654   5.256   6.671  11.396  0.1645  0.4281 -0.1551
 2820TIP3    H132655   5.272   6.577  11.397  2.0212  0.7180  0.1676
 2820TIP3    H232656   5.314   6.707  11.463 -1.2833  1.7168  0.4814
 2821TIP3   OH232657   1.071   2.373  10.466  0.2284  0.0347  0.2807
 2821TIP3    H132658   1.049   2.291  10.422 -0.1298  0.2286  0.0888
 2821TIP3    H232659   1.154   2.400  10.427  0.7625 -0.6305  0.9071
 2822TIP3   OH232660   3.704   6.576  12.812  0.6593 -0.7109 -0.1043
 2822TIP3    H132661   3.644   6.651  12.817  0.9821 -0.5246  1.7244
 2822TIP3    H232662   3.646   6.500  12.806  0.2417 -0.4709  0.7333
 2823TIP3   OH232663   5.472   6.504  11.236  0.1603 -0.2152  0.5504
 2823TIP3    H132664   5.393   6.465  11.272 -1.3914  2.5929  0.4532
 2823TIP3    H232665   5.543   6.445  11.263 -1.7468 -1.9785  1.9982
 2824TIP3   OH232666   3.357   2.216  11.869  0.7633 -0.6382  0.2089
 2824TIP3    H132667   3.328   2.223  11.778 -0.2925  0.4297  0.5897
 2824TIP3    H232668   3.298   2.275  11.917  0.8670 -1.6828  1.6828
 2825TIP3   OH232669   5.527   0.213  13.110  0.2585 -0.6437 -0.7140
 2825TIP3    H132670   5.576   0.289  13.078  1.5246 -0.8641  0.5885
 2825TIP3    H232671   5.469   0.190  13.038  0.5628  0.9454 -1.5110
 2826TIP3   OH232672   2.755   6.714  12.610 -0.4296 -0.2066 -0.2908
 2826TIP3    H132673   2.665   6.736  12.585 -0.8228  0.3102  1.4086
 2826TIP3    H232674   2.744   6.664  12.692  0.8597  0.8356  0.5531
 2827TIP3   OH232675   3.948   4.371  12.950  0.1772  0.3835 -1.0919
 2827TIP3    H132676   3.928   4.431  13.021  0.0599  0.4115 -1.1483
 2827TIP3    H232677   4.021   4.411  12.904 -0.0402  0.5926 -1.2592
 2828TIP3   OH232678   2.863   4.655  12.046 -0.1941 -0.0152  0.0384
 2828TIP3    H132679   2.862   4.735  12.098  1.0460 -0.2238  0.4111
 2828TIP3    H232680   2.775   4.618  12.059 -0.3198  0.5712  0.9850
 2829TIP3   OH232681   1.887   6.510  10.507  0.1350  0.5052 -0.6712
 2829TIP3    H132682   1.829   6.434  10.516  0.4262  0.1702 -1.5121
 2829TIP3    H232683   1.854   6.557  10.431 -1.1176  2.2248  0.8423
 2830TIP3   OH232684   0.674   2.872  11.525 -0.0168  0.3462 -0.0392
 2830TIP3    H132685   0.739   2.826  11.578  0.8694  0.8462 -0.6515
 2830TIP3    H232686   0.624   2.803  11.483 -0.7156 -0.0560  1.4102
 2831TIP3   OH232687   3.025   5.888  11.423 -0.0546  0.2384  0.6438
 2831TIP3    H132688   3.075   5.895  11.505 -1.1378 -0.6550  1.4001
 2831TIP3    H232689   2.934   5.889  11.450 -0.4200 -1.0504 -0.4716
 2832TIP3   OH232690   1.327   4.561  12.625  0.2362 -0.4265  0.4304
 2832TIP3    H132691   1.269   4.604  12.688 -2.4248 -0.7590 -1.6208
 2832TIP3    H232692   1.302   4.468  12.630  0.8060 -0.6224 -0.2962
 2833TIP3   OH232693   6.406   5.270  11.605 -0.2829 -0.7445  0.5319
 2833TIP3    H132694   6.324   5.251  11.652 -0.6483 -2.0799 -0.5704
 2833TIP3    H232695   6.395   5.359  11.573 -0.7638 -0.4468  1.4846
 2834TIP3   OH232696   2.630   5.323  10.163 -0.2203 -0.0561 -0.1403
 2834TIP3    H132697   2.583   5.336  10.246 -1.4947 -0.8392 -0.7011
 2834TIP3    H232698   2.602   5.396  10.108  0.1209  0.1084 -0.0958
 2835TIP3   OH232699   0.921   5.346  11.569  0.6663  0.1380  0.4425
 2835TIP3    H132700   0.979   5.322  11.642 -0.5246 -0.0433  1.3667
 2835TIP3    H232701   0.846   5.387  11.612 -1.3835 -2.4459 -0.4127
 2836TIP3   OH232702   6.018   1.306  11.345 -0.2538 -0.2336  0.4286
 2836TIP3    H132703   6.084   1.300  11.414 -0.4151  0.6958  0.6637
 2836TIP3    H232704   6.061   1.355  11.275  0.1437 -1.7348 -0.4251
 2837TIP3   OH232705   6.800   2.115  11.400  0.2119  0.5085 -0.2546
 2837TIP3    H132706   6.754   2.043  11.443 -0.2829 -0.1397 -1.8000
 2837TIP3    H232707   6.886   2.117  11.441  0.0032 -0.5473  0.2629
 2838TIP3   OH232708   1.646   1.350  13.016 -0.1863  0.1035 -0.0763
 2838TIP3    H132709   1.565   1.300  13.006  0.0016 -0.1908 -0.1337
 2838TIP3    H232710   1.674   1.370  12.927 -0.5064  0.7137 -0.0466
 2839TIP3   OH232711   5.197   1.456  12.203  0.1465 -0.0745 -0.7775
 2839TIP3    H132712   5.164   1.519  12.267 -0.8010  0.1658 -1.4790
 2839TIP3    H232713   5.124   1.443  12.142  1.1577  0.0384 -2.0560
 2840TIP3   OH232714   1.150   4.016  12.293 -0.5637 -0.4909  0.0712
 2840TIP3    H132715   1.112   3.961  12.361 -0.9578 -0.6376 -0.2625
 2840TIP3    H232716   1.094   4.093  12.289 -0.2686 -0.2638  0.2331
 2841TIP3   OH232717   3.773   3.715  13.065  0.4330  0.1147 -0.1969
 2841TIP3    H132718   3.767   3.753  12.977  0.6518 -0.4077 -0.4472
 2841TIP3    H232719   3.826   3.636  13.053  0.0645 -0.2206  0.3176
 2842TIP3   OH232720   5.056   2.848  12.630 -0.1929 -0.4244 -0.2182
 2842TIP3    H132721   5.104   2.884  12.705  1.0684  0.7973 -1.5465
 2842TIP3    H232722   5.042   2.756  12.652  4.7582 -1.5163 -0.5985
 2843TIP3   OH232723   1.784   5.569  11.360 -0.2614  0.1169  0.1665
 2843TIP3    H132724   1.847   5.631  11.323  0.8278 -1.3043 -0.4600
 2843TIP3    H232725   1.748   5.524  11.283  0.3290 -1.2843  0.6896
 2844TIP3   OH232726   5.956   0.899  12.967  0.0179 -0.2042  0.5947
 2844TIP3    H132727   5.984   0.983  13.003 -1.1017  0.0910  0.8249
 2844TIP3    H232728   5.892   0.921  12.900 -1.4311 -0.8951  1.7007
 2845TIP3   OH232729   4.785   2.207  11.794  0.1999  0.5256 -0.0167
 2845TIP3    H132730   4.774   2.190  11.888 -2.0351  0.9803 -0.1547
 2845TIP3    H232731   4.755   2.128  11.751  1.4166  0.2404 -0.3673
 2846TIP3   OH232732   2.958   6.367  12.680  0.0054  0.3532  0.2746
 2846TIP3    H132733   2.865   6.384  12.663 -0.0375 -0.4779 -0.3496
 2846TIP3    H232734   2.994   6.453  12.702 -1.2604  0.4262  2.2552
 2847TIP3   OH232735   0.986   0.198   9.906 -0.1103  0.4240  0.8687
 2847TIP3    H132736   0.902   0.167   9.873 -0.0954  0.3946  0.8574
 2847TIP3    H232737   1.022   0.122   9.952  0.4514  0.0522 -0.1533
 2848TIP3   OH232738   4.786   5.189  11.810 -0.0328 -0.3629  0.2562
 2848TIP3    H132739   4.860   5.137  11.777 -0.2708  0.1591 -1.1671
 2848TIP3    H232740   4.709   5.152  11.766 -0.3501  0.4356  0.1216
 2849TIP3   OH232741   3.878   5.437  11.303  0.4850  0.1726 -0.4479
 2849TIP3    H132742   3.786   5.424  11.323  0.8938 -1.0340  0.8073
 2849TIP3    H232743   3.887   5.409  11.211 -0.6551  1.7951 -1.0933
 2850TIP3   OH232744   2.060   6.255  10.226  0.7682 -0.8141 -0.0673
 2850TIP3    H132745   2.118   6.186  10.260  0.6601 -0.2327  1.3292
 2850TIP3    H232746   2.007   6.210  10.160  1.3225 -1.8667  0.1710
 2851TIP3   OH232747   2.274   1.086  10.726  0.3671  0.2939 -0.3360
 2851TIP3    H132748   2.219   1.164  10.728 -0.8793 -0.5511  2.4505
 2851TIP3    H232749   2.315   1.083  10.812 -0.6395 -2.7667  0.1432
 2852TIP3   OH232750   5.408   3.928  12.071  0.3024  0.4156 -0.0783
 2852TIP3    H132751   5.462   3.996  12.030  0.5206  0.2207 -0.1133
 2852TIP3    H232752   5.338   3.912  12.007  0.7469 -0.0231 -0.4672
 2853TIP3   OH232753   5.881   3.146  11.512 -0.3786 -0.3007 -0.2297
 2853TIP3    H132754   5.919   3.123  11.597 -1.8147  0.0590  0.5405
 2853TIP3    H232755   5.835   3.228  11.528 -1.3520 -0.6450 -1.1428
 2854TIP3   OH232756   5.704   3.476  11.028 -0.3675  0.0498 -0.2775
 2854TIP3    H132757   5.761   3.534  10.977 -1.0054 -0.7697 -2.0171
 2854TIP3    H232758   5.637   3.448  10.965 -1.7672 -0.2627  1.2921
 2855TIP3   OH232759   1.948   5.667  12.201  0.5161  0.0441 -0.4547
 2855TIP3    H132760   1.955   5.751  12.246  1.4145  0.4749 -1.3570
 2855TIP3    H232761   2.028   5.620  12.224 -0.1281 -0.7022  0.2978
 2856TIP3   OH232762   5.462   6.047   9.820 -0.0433  0.3489  0.0397
 2856TIP3    H132763   5.392   6.088   9.871 -0.3037  0.7928 -0.6599
 2856TIP3    H232764   5.483   5.967   9.869 -2.1826 -0.6695 -0.5503
 2857TIP3   OH232765   3.369   6.031  12.691 -0.1301  0.2653 -0.2477
 2857TIP3    H132766   3.370   5.937  12.712 -1.3818  0.2266 -0.3125
 2857TIP3    H232767   3.422   6.038  12.611  0.4886 -0.2853  0.0967
 2858TIP3   OH232768   2.621   0.052  12.274 -0.8286 -0.0102  0.0334
 2858TIP3    H132769   2.685   0.004  12.222 -1.2803  0.2711 -0.7901
 2858TIP3    H232770   2.675   0.107  12.332 -0.3062  0.4042 -0.8166
 2859TIP3   OH232771   1.438   2.661  11.220  0.2687 -0.4466  0.0983
 2859TIP3    H132772   1.454   2.706  11.137 -0.5609 -1.4465 -0.6417
 2859TIP3    H232773   1.516   2.607  11.233  1.2581  1.1266  0.9818
 2860TIP3   OH232774   4.606   4.028  10.058  0.1361 -0.3406 -0.1231
 2860TIP3    H132775   4.610   3.959   9.992  1.4221  0.4225 -0.8693
 2860TIP3    H232776   4.598   4.109  10.008 -0.7447  0.1211  0.7253
 2861TIP3   OH232777   2.138   3.741  12.840 -0.2900 -0.5922 -0.4749
 2861TIP3    H132778   2.227   3.726  12.872 -1.1602 -1.2847  1.8259
 2861TIP3    H232779   2.138   3.701  12.753  1.5810 -0.7757 -0.4495
 2862TIP3   OH232780   3.900   0.019  11.067  0.1269  0.1284 -0.3411
 2862TIP3    H132781   3.953   0.097  11.051  0.7470  0.3947  2.3660
 2862TIP3    H232782   3.955  -0.034  11.126 -2.0200 -0.2123  1.4909
 2863TIP3   OH232783   3.441   3.389  11.388  0.6596 -0.1889  0.0031
 2863TIP3    H132784   3.435   3.323  11.458 -1.0114  0.6446  0.6971
 2863TIP3    H232785   3.535   3.405  11.379  0.9578 -0.7526  1.6665
 2864TIP3   OH232786   4.715   6.657  11.798 -0.4772  0.3161  0.1814
 2864TIP3    H132787   4.633   6.638  11.844 -1.4287  3.2986 -0.0710
 2864TIP3    H232788   4.754   6.729  11.847 -0.2478  1.8698 -2.1109
 2865TIP3   OH232789   5.400   3.054   9.738 -0.4684 -0.3604 -0.4950
 2865TIP3    H132790   5.314   3.091   9.758 -0.2558  0.0260 -0.2823
 2865TIP3    H232791   5.459   3.130   9.737  0.0489 -0.7364  0.3626
 2866TIP3   OH232792   0.141   2.825  13.110 -0.0539  0.1488  0.5417
 2866TIP3    H132793   0.073   2.786  13.055  0.9420  0.1656 -0.7622
 2866TIP3    H232794   0.177   2.751  13.159  0.2312 -0.2048 -0.1715
 2867TIP3   OH232795   0.524   0.434  13.056 -0.2969  0.3617  0.1555
 2867TIP3    H132796   0.604   0.386  13.037 -0.6336 -2.3737  4.3484
 2867TIP3    H232797   0.550   0.500  13.120 -1.2434 -0.1169  1.0600
 2868TIP3   OH232798   3.332   2.325  10.447 -0.4209 -0.7106 -0.4504
 2868TIP3    H132799   3.316   2.233  10.423  0.1567 -0.1431 -3.3810
 2868TIP3    H232800   3.258   2.372  10.409  0.5654  0.2784 -1.2162
 2869TIP3   OH232801   6.231   5.702  10.674 -0.6057  0.0744  0.1221
 2869TIP3    H132802   6.305   5.721  10.731 -0.8038 -0.7117  0.6641
 2869TIP3    H232803   6.259   5.729  10.587 -0.6519  2.2204  0.7195
 2870TIP3   OH232804   5.074   2.764  11.211  0.5463 -0.6338  0.3437
 2870TIP3    H132805   5.152   2.740  11.161  1.3259  0.6635  0.9018
 2870TIP3    H232806   5.104   2.770  11.301 -0.0618  0.4430  0.4890
 2871TIP3   OH232807   3.689   0.967  10.437  0.5442  0.0365  0.4962
 2871TIP3    H132808   3.733   0.917  10.506 -1.1563 -1.0908  0.8193
 2871TIP3    H232809   3.719   1.057  10.449  0.4423 -0.1637  2.6000
 2872TIP3   OH232810   4.174   1.270  12.941  0.1157 -0.7057  0.1019
 2872TIP3    H132811   4.220   1.354  12.935 -2.2778  0.8453  1.7550
 2872TIP3    H232812   4.171   1.238  12.851  1.9434  0.4316 -0.4338
 2873TIP3   OH232813   5.199   1.615  10.961  0.0736  0.8475  0.7000
 2873TIP3    H132814   5.134   1.602  11.030  0.9379 -0.3323  1.3283
 2873TIP3    H232815   5.162   1.572  10.884 -0.5806  1.5638  0.5988
 2874TIP3   OH232816   6.142   5.650  10.399  0.3114 -0.9582  0.0083
 2874TIP3    H132817   6.091   5.730  10.394  0.8727 -0.5909  0.0462
 2874TIP3    H232818   6.116   5.600  10.322  1.7084  0.3324 -1.3755
 2875TIP3   OH232819   4.420   3.495  13.076  0.0039 -0.3871 -0.4914
 2875TIP3    H132820   4.408   3.408  13.036 -0.6492 -0.5333  0.0014
 2875TIP3    H232821   4.333   3.535  13.070  0.0682 -0.1519  0.1702
 2876TIP3   OH232822   5.047   3.259  10.326  0.1592 -0.7781  0.2653
 2876TIP3    H132823   4.982   3.266  10.395 -0.3969 -0.2435 -0.3083
 2876TIP3    H232824   5.123   3.306  10.360 -0.1388 -0.4488  0.4809
 2877TIP3   OH232825   1.339   5.075  12.372  0.3799 -0.3204 -0.1276
 2877TIP3    H132826   1.386   5.134  12.431  0.9690 -0.2852 -0.6260
 2877TIP3    H232827   1.393   5.072  12.293  0.4289 -1.6485 -0.0529
 2878TIP3   OH232828   0.777   4.365  12.850  0.0541  0.1342  0.4009
 2878TIP3    H132829   0.778   4.280  12.894  0.6059  0.0668  0.2615
 2878TIP3    H232830   0.832   4.421  12.904  1.8703 -0.3128 -0.8879
 2879TIP3   OH232831   0.965   5.272  10.433 -0.0892  0.3737  0.2691
 2879TIP3    H132832   1.031   5.338  10.415 -1.6810  1.8315 -0.4301
 2879TIP3    H232833   0.914   5.265  10.353 -1.4451  0.0629  1.1172
 2880TIP3   OH232834   6.567   2.816   9.166 -0.2243 -0.5471  0.7872
 2880TIP3    H132835   6.547   2.736   9.215 -0.8801 -1.5136 -0.9436
 2880TIP3    H232836   6.504   2.816   9.094  0.7134  0.7675 -0.0845
 2881TIP3   OH232837   6.094   0.412  10.383  0.1387  0.2360  0.1945
 2881TIP3    H132838   6.065   0.326  10.352 -3.7352  1.4081 -0.0581
 2881TIP3    H232839   6.177   0.428  10.338  1.0572 -3.3391  0.3552
 2882TIP3   OH232840   3.017   3.630  10.379 -0.4989 -0.2050  0.0535
 2882TIP3    H132841   3.056   3.578  10.449 -2.0180 -2.5097 -0.6961
 2882TIP3    H232842   3.079   3.621  10.306  0.1394  0.6020  0.4826
 2883TIP3   OH232843   0.407   3.004  11.603 -0.1788 -0.1731 -1.1226
 2883TIP3    H132844   0.486   2.995  11.550  0.9136  1.3664  0.1482
 2883TIP3    H232845   0.381   3.095  11.592  1.0544  0.6961  2.1921
 2884TIP3   OH232846   3.821   0.502  12.501 -0.4319 -0.1621  0.1811
 2884TIP3    H132847   3.744   0.559  12.495 -1.3327 -1.3262  0.2990
 2884TIP3    H232848   3.787   0.421  12.539  0.6149 -1.1152 -0.8567
 2885TIP3   OH232849   2.471   4.553  13.102  0.3287 -0.0269 -0.4680
 2885TIP3    H132850   2.539   4.496  13.065  1.9414  0.7402  1.1815
 2885TIP3    H232851   2.443   4.509  13.182  0.0800  0.4720 -0.2751
 2886TIP3   OH232852   4.663   6.719  10.052  0.0339 -0.2480  0.0147
 2886TIP3    H132853   4.641   6.812  10.055 -1.3518 -0.4598 -1.5024
 2886TIP3    H232854   4.582   6.677  10.023  0.7375 -1.8934  0.3193
 2887TIP3   OH232855   3.073   2.883  12.708 -0.2618 -0.0930 -0.2343
 2887TIP3    H132856   3.093   2.970  12.676  1.9850 -1.5422 -3.2871
 2887TIP3    H232857   3.149   2.859  12.762 -0.4353 -0.4681 -0.1505
 2888TIP3   OH232858   0.296   4.192  11.326  0.0620 -0.1474 -0.0113
 2888TIP3    H132859   0.261   4.276  11.294  1.0565  0.0971 -0.4998
 2888TIP3    H232860   0.251   4.177  11.409 -1.3523  0.0413 -0.7190
 2889TIP3   OH232861   4.866   0.721   9.744 -0.0892 -0.4024 -0.2531
 2889TIP3    H132862   4.955   0.751   9.765 -0.6193  1.0735 -0.0312
 2889TIP3    H232863   4.862   0.633   9.780  1.2698 -0.4788 -0.2187
 2890TIP3   OH232864   5.812   0.346  12.548 -0.6207 -0.7316 -0.0510
 2890TIP3    H132865   5.823   0.263  12.502 -2.1858 -1.0094  0.0214
 2890TIP3    H232866   5.830   0.325  12.640  1.4731 -0.3984 -0.3169
 2891TIP3   OH232867   6.544   1.845  11.351  0.4918 -0.0471  0.5049
 2891TIP3    H132868   6.590   1.848  11.267  0.2867 -0.4039  0.3800
 2891TIP3    H232869   6.614   1.852  11.416  0.6275  0.5316  0.3076
 2892TIP3   OH232870   1.882   4.488  11.907  0.5157 -0.2335  0.7695
 2892TIP3    H132871   1.889   4.529  11.821 -0.8105 -0.7161  0.4048
 2892TIP3    H232872   1.822   4.544  11.956 -0.3659 -1.0786  0.6719
 2893TIP3   OH232873   5.628   1.850  10.307  0.2535  0.3203  0.2511
 2893TIP3    H132874   5.607   1.820  10.219 -1.2489  3.4331 -0.5722
 2893TIP3    H232875   5.706   1.904  10.296  0.5076  0.1218  0.9844
 2894TIP3   OH232876   0.650   1.390  11.637  0.0336 -0.5391  0.5107
 2894TIP3    H132877   0.682   1.473  11.672 -1.5684 -0.5770  2.2007
 2894TIP3    H232878   0.696   1.323  11.687  0.2460 -0.6561  0.1627
 2895TIP3   OH232879   5.087   4.580  10.393 -0.2731  0.5171  0.4857
 2895TIP3    H132880   5.030   4.514  10.434  0.4948 -0.1486  0.5024
 2895TIP3    H232881   5.116   4.635  10.465  0.1751  0.0331  0.6793
 2896TIP3   OH232882   1.144   1.994  10.508  0.1323 -0.4229 -0.0037
 2896TIP3    H132883   1.213   1.978  10.443 -0.0604  1.9000 -0.9041
 2896TIP3    H232884   1.189   2.031  10.583  0.0057  0.1107 -0.1831
 2897TIP3   OH232885   2.352   2.515  12.686 -1.2299 -0.2525  1.1053
 2897TIP3    H132886   2.313   2.597  12.717 -0.8144 -0.5332  2.4370
 2897TIP3    H232887   2.347   2.457  12.762  0.0412 -0.9065  0.7055
 2898TIP3   OH232888   5.714   6.688  10.650 -0.1431 -0.7839  0.1216
 2898TIP3    H132889   5.720   6.737  10.732 -0.7356  0.1465 -0.3735
 2898TIP3    H232890   5.620   6.680  10.633 -0.0352  0.8685 -1.5096
 2899TIP3   OH232891   0.150   0.726  11.502 -0.2947  0.5208  0.1717
 2899TIP3    H132892   0.145   0.653  11.441  1.6408  0.8804 -0.4915
 2899TIP3    H232893   0.221   0.781  11.468  0.4994  1.0069  2.4404
 2900TIP3   OH232894   0.974   1.866  11.613 -0.7207  0.5187  0.0244
 2900TIP3    H132895   1.009   1.823  11.535 -1.8973 -1.1356  0.3456
 2900TIP3    H232896   1.035   1.938  11.630 -1.1924  1.8434 -3.2076
 2901TIP3   OH232897   2.252   1.035  12.548  0.3098 -0.7315 -0.2285
 2901TIP3    H132898   2.237   1.032  12.643 -0.2366 -1.9036 -0.3366
 2901TIP3    H232899   2.165   1.028  12.510  0.7108 -3.0568 -0.8257
 2902TIP3   OH232900   3.022   0.379  11.762 -0.0179  0.2507  0.0492
 2902TIP3    H132901   3.062   0.432  11.694 -1.5674  0.2631 -0.9073
 2902TIP3    H232902   3.064   0.293  11.755  0.2405  0.4232 -0.5272
 2903TIP3   OH232903   3.990   4.486  12.647 -0.4360 -0.0337  0.0614
 2903TIP3    H132904   3.899   4.507  12.630 -0.4135 -0.1868 -0.2448
 2903TIP3    H232905   3.987   4.405  12.699 -0.5712  1.2501  2.2027
 2904TIP3   OH232906   0.582   1.297  12.644  0.2331  0.4597  0.5667
 2904TIP3    H132907   0.596   1.222  12.701  0.0297  0.9415  1.2677
 2904TIP3    H232908   0.669   1.319  12.611  0.3379  0.1106  0.6057
 2905TIP3   OH232909   2.602   3.882  12.611  0.1168  0.0090  0.5148
 2905TIP3    H132910   2.555   3.937  12.674 -0.3333 -1.2822  1.3477
 2905TIP3    H232911   2.534   3.850  12.552  0.1045 -0.8822  0.9846
 2906TIP3   OH232912   6.256   4.647  10.419  0.5092 -0.3020 -0.3776
 2906TIP3    H132913   6.211   4.724  10.454  2.4515  0.1218  1.4079
 2906TIP3    H232914   6.290   4.675  10.335  0.2914  0.4337 -0.2257
 2907TIP3   OH232915   3.502   2.902  10.493  0.2218  0.5155  0.1797
 2907TIP3    H132916   3.555   2.822  10.502 -0.7244 -0.4879 -2.1920
 2907TIP3    H232917   3.530   2.939  10.409 -0.6875  1.6586  0.3615
 2908TIP3   OH232918   5.294   2.702  11.057  0.2756  0.2087 -0.4282
 2908TIP3    H132919   5.385   2.732  11.048  1.1187 -1.3666  1.8850
 2908TIP3    H232920   5.285   2.635  10.989  1.4880 -0.8954  0.4431
 2909TIP3   OH232921   6.081   5.482  10.175 -0.0859  0.4339 -0.2311
 2909TIP3    H132922   6.005   5.439  10.137 -0.2833  0.8280 -0.2832
 2909TIP3    H232923   6.118   5.534  10.104  0.4018  0.0136 -0.2859
 2910TIP3   OH232924   5.393   0.682  12.154 -0.5009  0.0180  0.1873
 2910TIP3    H132925   5.299   0.665  12.149 -0.2305 -1.3916 -0.9939
 2910TIP3    H232926   5.401   0.756  12.214 -2.4428  0.8646 -0.4941
 2911TIP3   OH232927   1.874   4.488  10.594 -0.4680 -0.1730 -0.3700
 2911TIP3    H132928   1.890   4.469  10.502 -0.4910 -0.2728 -0.3543
 2911TIP3    H232929   1.848   4.404  10.632  0.1661 -0.2685 -0.1354
 2912TIP3   OH232930   2.666   5.233  12.258 -0.4795  0.1622 -0.3586
 2912TIP3    H132931   2.754   5.267  12.243  0.1390 -1.0297  0.4037
 2912TIP3    H232932   2.642   5.192  12.174  1.0637 -2.3722  0.3332
 2913TIP3   OH232933   6.692   3.571  11.415 -0.0391  0.4756 -0.3779
 2913TIP3    H132934   6.741   3.627  11.355  1.1634 -0.8687 -0.7131
 2913TIP3    H232935   6.669   3.494  11.364 -0.3799  0.0003  0.4576
 2914TIP3   OH232936   4.143   6.764  13.221 -0.5084  0.1800 -0.0013
 2914TIP3    H132937   4.213   6.733  13.278  0.4391  1.1057 -0.6098
 2914TIP3    H232938   4.186   6.828  13.163 -1.2776 -1.1845 -2.1936
 2915TIP3   OH232939   3.111   6.081  10.481 -0.4377 -0.2383  0.0311
 2915TIP3    H132940   3.089   6.013  10.544  0.4665  0.9882  1.7696
 2915TIP3    H232941   3.098   6.163  10.529 -3.0841  0.9631 -2.4797
 2916TIP3   OH232942   0.865   3.655  12.973  0.5784 -0.0640  0.1162
 2916TIP3    H132943   0.849   3.593  13.044  2.1995  0.9493  1.4379
 2916TIP3    H232944   0.912   3.604  12.907 -1.5172 -1.1867 -0.6286
 2917TIP3   OH232945   4.679   5.718  11.279  0.4026 -0.4270 -0.0036
 2917TIP3    H132946   4.647   5.804  11.306 -1.5654 -1.3994  0.9991
 2917TIP3    H232947   4.744   5.694  11.346 -1.2786 -0.9600  1.5264
 2918TIP3   OH232948   4.773   6.597  12.555 -0.2771 -0.1620 -0.4601
 2918TIP3    H132949   4.782   6.612  12.649  2.8866  1.1806 -0.8338
 2918TIP3    H232950   4.754   6.683  12.518 -0.3513 -0.4611 -1.1354
 2919TIP3   OH232951   6.685   6.154  11.137 -0.5034 -0.2389  0.0522
 2919TIP3    H132952   6.659   6.070  11.174 -0.2327 -0.2081  0.3214
 2919TIP3    H232953   6.627   6.217  11.181  0.6051 -0.0682  1.3287
 2920TIP3   OH232954   3.003   1.653  11.129  0.6372 -0.0489 -0.3049
 2920TIP3    H132955   2.945   1.723  11.159  0.6639  0.0886 -0.5722
 2920TIP3    H232956   3.021   1.674  11.037  1.0427 -0.1344 -0.2489
 2921TIP3   OH232957   2.073   0.115  11.362 -0.4470 -0.6300  0.1655
 2921TIP3    H132958   2.168   0.125  11.371 -0.2060 -1.8089 -0.8451
 2921TIP3    H232959   2.060   0.021  11.350 -1.6171 -0.3425 -1.0488
 2922TIP3   OH232960   6.761   3.245   9.732  0.3657 -0.5385 -0.1867
 2922TIP3    H132961   6.786   3.337   9.724 -0.3551 -0.1478  1.5968
 2922TIP3    H232962   6.696   3.232   9.664 -0.2015  0.5426  0.1241
 2923TIP3   OH232963   1.024   3.580  12.191  0.7134 -0.1735  0.1011
 2923TIP3    H132964   0.980   3.658  12.156 -1.3837 -0.9331  0.9084
 2923TIP3    H232965   1.063   3.609  12.273 -1.5133 -0.2929  1.2711
 2924TIP3   OH232966   4.389   5.147  10.633  0.0246  0.0423  0.0626
 2924TIP3    H132967   4.431   5.135  10.548 -1.2984 -0.7618 -0.5047
 2924TIP3    H232968   4.459   5.133  10.696  0.8173 -0.3187 -0.8630
 2925TIP3   OH232969   2.565   2.444  10.555 -0.1943 -0.2944  0.1677
 2925TIP3    H132970   2.626   2.377  10.588  1.3078  0.4846 -0.9164
 2925TIP3    H232971   2.507   2.396  10.495  0.3164 -0.7826  0.0544
 2926TIP3   OH232972   6.345   5.453  12.564  0.0335 -0.4294 -0.3832
 2926TIP3    H132973   6.341   5.533  12.616 -0.2748 -1.7229  1.6732
 2926TIP3    H232974   6.393   5.478  12.485  0.3205  1.6633  0.4074
 2927TIP3   OH232975   5.610   1.213  10.542 -0.1709 -0.1711 -0.1063
 2927TIP3    H132976   5.525   1.181  10.573  0.7135 -1.9903  0.6180
 2927TIP3    H232977   5.620   1.173  10.456  0.4208 -0.8914  0.2871
 2928TIP3   OH232978   4.945   0.401  12.048  0.4184  0.1944 -0.6146
 2928TIP3    H132979   4.871   0.361  12.001  0.9392  0.3031 -1.5622
 2928TIP3    H232980   4.999   0.439  11.979 -0.7328  3.7700  0.2741
 2929TIP3   OH232981   3.858   0.047  12.993  0.0677  0.2967 -0.3863
 2929TIP3    H132982   3.904  -0.030  12.960 -1.4400 -1.7392  1.8950
 2929TIP3    H232983   3.887   0.055  13.084 -1.8172  0.7422  0.2188
 2930TIP3   OH232984   4.824   1.600  12.810  0.2440  0.1671 -0.3985
 2930TIP3    H132985   4.769   1.562  12.741  0.2805  0.0148 -0.3438
 2930TIP3    H232986   4.913   1.574  12.786  0.1251 -1.2039  0.5354
 2931TIP3   OH232987   1.478   5.381  10.841 -0.0839  0.9349 -0.1584
 2931TIP3    H132988   1.559   5.331  10.832 -1.0527 -0.3424 -3.4473
 2931TIP3    H232989   1.445   5.358  10.928  0.7355 -2.3556 -0.5821
 2932TIP3   OH232990   3.716   4.240  10.727 -0.0381 -0.3748 -0.4460
 2932TIP3    H132991   3.645   4.237  10.662  0.2113 -2.5229 -0.7019
 2932TIP3    H232992   3.796   4.240  10.674  0.1609 -0.1236 -0.1455
 2933TIP3   OH232993   1.591   0.122  11.785  0.1463 -0.3908  0.3985
 2933TIP3    H132994   1.655   0.178  11.739 -0.4110  0.2199  0.3599
 2933TIP3    H232995   1.608   0.034  11.751  1.9456 -0.5002  1.4532
 2934TIP3   OH232996   0.459   0.875  10.509 -0.6201 -0.8465 -0.3050
 2934TIP3    H132997   0.540   0.855  10.463  0.4558  1.1919  0.5771
 2934TIP3    H232998   0.465   0.968  10.529 -2.1726 -1.1157  1.7662
 2935TIP3   OH232999   0.131   5.062  11.822 -0.7173 -0.1384 -0.3484
 2935TIP3    H133000   0.095   5.098  11.741 -1.9210 -0.2054  0.1344
 2935TIP3    H233001   0.184   4.988  11.794 -1.7058 -0.6030 -1.0256
 2936TIP3   OH233002   5.967   5.778  10.222  0.4929 -0.2976 -0.1391
 2936TIP3    H133003   5.969   5.874  10.213  1.3670  0.1497  3.2856
 2936TIP3    H233004   5.878   5.754  10.195 -0.3247  1.7411  0.4974
 2937TIP3   OH233005   4.112   4.750  11.104  0.0175  0.2003  0.4569
 2937TIP3    H133006   4.148   4.821  11.050  0.4884 -0.0151  0.4903
 2937TIP3    H233007   4.157   4.759  11.188 -0.1034  0.0084  0.5417
 2938TIP3   OH233008   1.134   6.145  11.209 -0.1701  0.9932  0.0603
 2938TIP3    H133009   1.046   6.172  11.182 -0.9131 -0.5833  0.8046
 2938TIP3    H233010   1.171   6.105  11.130  0.6816  3.3430 -0.8461
 2939TIP3   OH233011   1.217   5.141  12.080  0.4004 -0.0976 -0.4182
 2939TIP3    H133012   1.304   5.127  12.116  0.9119  0.3669 -1.4220
 2939TIP3    H233013   1.159   5.147  12.156  1.2890 -0.1234  0.2666
 2940TIP3   OH233014   0.677   5.208  11.071  0.8056 -0.0660  0.1028
 2940TIP3    H133015   0.642   5.136  11.124  0.0982  1.0700  1.2453
 2940TIP3    H233016   0.741   5.252  11.129  2.0358 -0.3986 -0.9583
 2941TIP3   OH233017   0.487   4.227  10.343 -0.2440  0.5836  0.1888
 2941TIP3    H133018   0.429   4.155  10.365  1.6599 -0.8894  0.6416
 2941TIP3    H233019   0.494   4.279  10.424  0.5358 -0.3383  0.7391
 2942TIP3   OH233020   6.165   1.090  11.963 -0.0468 -0.3689 -0.1452
 2942TIP3    H133021   6.112   1.017  11.933  0.3585 -0.5477 -0.4235
 2942TIP3    H233022   6.240   1.093  11.903 -0.4066  0.6995 -0.5624
 2943TIP3   OH233023   4.187   2.235  11.989  0.0726  0.1583 -0.9694
 2943TIP3    H133024   4.247   2.255  11.917  1.5803  0.5490  0.3405
 2943TIP3    H233025   4.136   2.315  12.001  0.7909  0.5958 -0.7259
 2944TIP3   OH233026   3.240   4.836  13.144  0.2106 -0.3618  0.1188
 2944TIP3    H133027   3.260   4.753  13.101 -0.5701 -0.4747 -0.0453
 2944TIP3    H233028   3.198   4.810  13.226 -0.3092 -0.1306 -0.0713
 2945TIP3   OH233029   1.266   6.276   9.925  0.8764 -0.1904 -0.4276
 2945TIP3    H133030   1.344   6.327   9.946  0.1713  1.0481 -0.6392
 2945TIP3    H233031   1.289   6.227   9.846  1.1145  1.0184 -1.1445
 2946TIP3   OH233032   5.172   1.727  12.287  0.8195  0.0847 -0.0772
 2946TIP3    H133033   5.263   1.697  12.287  1.0056  0.6397 -0.5594
 2946TIP3    H233034   5.176   1.815  12.252  0.1003  0.1536  0.0037
 2947TIP3   OH233035   1.295   1.727  12.913  0.7736 -0.4747  0.3635
 2947TIP3    H133036   1.296   1.701  12.821  1.0670 -0.4098  0.3451
 2947TIP3    H233037   1.312   1.822  12.911  0.3974 -0.4044  0.4639
 2948TIP3   OH233038   3.672   0.697  12.052 -0.1020  0.4295 -0.0566
 2948TIP3    H133039   3.662   0.713  12.146 -4.4832  0.6231 -0.3392
 2948TIP3    H233040   3.715   0.776  12.019  1.1693  0.5159  1.6639
 2949TIP3   OH233041   0.443   6.308  11.444  0.1951 -0.6135  0.1093
 2949TIP3    H133042   0.457   6.307  11.349 -1.2337  0.3397 -0.1449
 2949TIP3    H233043   0.399   6.391  11.461 -0.8030 -1.3692  1.4290
 2950TIP3   OH233044   4.275   4.054  10.408  0.1178 -0.6684  0.0519
 2950TIP3    H133045   4.186   4.071  10.376 -0.0598 -0.3900  0.6845
 2950TIP3    H233046   4.282   3.958  10.407  0.2261 -0.6649 -1.0973
 2951TIP3   OH233047   2.405   3.659  10.235 -0.2198  0.0942 -0.3121
 2951TIP3    H133048   2.497   3.662  10.210 -0.0877 -1.0631  0.0017
 2951TIP3    H233049   2.358   3.651  10.151 -0.1191  1.7222 -0.5503
 2952TIP3   OH233050   3.212   4.298  11.158 -0.5412 -0.4753  0.1170
 2952TIP3    H133051   3.240   4.217  11.114 -1.5394  0.1138 -1.7112
 2952TIP3    H233052   3.243   4.368  11.100  0.7381  0.5324  1.9093
 2953TIP3   OH233053   2.502   2.261  12.611  0.0039 -0.3630  0.2947
 2953TIP3    H133054   2.574   2.251  12.548 -0.7550 -1.4287 -0.4363
 2953TIP3    H233055   2.478   2.172  12.635 -1.4691 -0.0480  0.0669
 2954TIP3   OH233056   0.669   3.985  12.729 -0.3884 -0.6133 -0.0111
 2954TIP3    H133057   0.682   3.961  12.820 -0.8417  1.1544  0.5430
 2954TIP3    H233058   0.576   4.007  12.723 -0.0454  0.8105 -0.5028
 2955TIP3   OH233059   1.428   2.355   9.401  0.2991  0.1190 -0.0080
 2955TIP3    H133060   1.444   2.268   9.363  1.4316 -0.4294  1.6280
 2955TIP3    H233061   1.504   2.407   9.373  0.3287  0.1789  0.1874
 2956TIP3   OH233062   0.613   3.049   9.851 -0.2531  0.2746  0.1258
 2956TIP3    H133063   0.555   3.123   9.867 -2.1128 -0.6894 -1.6091
 2956TIP3    H233064   0.655   3.069   9.767  0.2028 -0.0672  0.2661
 2957TIP3   OH233065   4.139   1.852  10.546 -0.0710  0.5224  0.3818
 2957TIP3    H133066   4.187   1.934  10.535  0.2960  0.2432 -0.2174
 2957TIP3    H233067   4.083   1.866  10.621  1.4340  0.6418  1.5360
 2958TIP3   OH233068   0.149   2.766  12.210 -0.1024  0.0441 -0.0434
 2958TIP3    H133069   0.210   2.839  12.217 -1.1199  0.8986  0.1284
 2958TIP3    H233070   0.160   2.733  12.121 -0.4605  1.1735 -0.5225
 2959TIP3   OH233071   2.378   0.194  12.499 -0.4389  0.1302 -0.4033
 2959TIP3    H133072   2.334   0.262  12.549 -0.0449  0.9948 -1.1985
 2959TIP3    H233073   2.310   0.155  12.445 -0.8914 -0.8950  0.8636
 2960TIP3   OH233074   6.116   2.086  12.954 -0.1127  0.1738  0.1025
 2960TIP3    H133075   6.145   2.176  12.963  1.9743 -0.6282  2.8872
 2960TIP3    H233076   6.021   2.090  12.956 -0.1004  2.3479 -1.1329
 2961TIP3   OH233077   2.334   0.177  11.418 -0.2466 -0.4194  0.3932
 2961TIP3    H133078   2.424   0.146  11.431 -0.2941 -0.9365 -0.4853
 2961TIP3    H233079   2.339   0.231  11.339 -0.9102 -1.2838 -0.2415
 2962TIP3   OH233080   2.982   3.620  11.394 -0.1063  0.4313 -0.2905
 2962TIP3    H133081   2.931   3.700  11.382 -0.0642  0.5172  0.0943
 2962TIP3    H233082   2.923   3.550  11.368  0.0020  0.6117 -1.0562
 2963TIP3   OH233083   3.253   4.068  12.497  0.5164  0.2234  0.2131
 2963TIP3    H133084   3.324   4.017  12.536  0.1645  0.7662  1.6438
 2963TIP3    H233085   3.235   4.025  12.413  1.2181 -1.1026  0.7149
 2964TIP3   OH233086   1.804   4.146  10.425 -0.1603  0.0398  0.0982
 2964TIP3    H133087   1.897   4.165  10.440 -0.5284  0.7958  1.7158
 2964TIP3    H233088   1.794   4.147  10.330  1.2513  1.1782 -0.0752
 2965TIP3   OH233089   2.118   0.693  10.214 -0.1706 -0.3028 -0.0348
 2965TIP3    H133090   2.078   0.710  10.300 -0.1923  1.3518 -0.3330
 2965TIP3    H233091   2.141   0.780  10.182  0.7636 -0.9867 -1.2741
 2966TIP3   OH233092   1.207   5.336  13.121  0.5019  0.2494  1.0963
 2966TIP3    H133093   1.231   5.423  13.087 -1.6710  0.0876 -1.1311
 2966TIP3    H233094   1.204   5.347  13.216  1.4637  2.2561  0.9553
 2967TIP3   OH233095   1.946   5.312  12.226 -0.4512 -0.5420  0.3402
 2967TIP3    H133096   2.013   5.352  12.170 -0.2289 -0.6525  0.5287
 2967TIP3    H233097   1.936   5.374  12.298 -2.5207  0.8648 -1.0482
 2968TIP3   OH233098   6.022   0.657  10.105  0.2330 -0.0532  0.1621
 2968TIP3    H133099   6.013   0.716  10.030 -0.9641 -0.1696  0.2019
 2968TIP3    H233100   6.049   0.574  10.067 -1.9169 -0.5657 -0.3625
 2969TIP3   OH233101   2.120   0.648  12.840 -0.8673  0.7332 -0.2462
 2969TIP3    H133102   2.161   0.693  12.766 -0.2287 -0.1574 -0.4502
 2969TIP3    H233103   2.074   0.575  12.800 -3.1862  2.0000 -0.0934
 2970TIP3   OH233104   4.007   5.266  12.195 -0.3880 -0.0124  0.3933
 2970TIP3    H133105   3.948   5.228  12.130 -1.2985 -0.9354  1.7186
 2970TIP3    H233106   4.010   5.202  12.266  0.3630  1.0920  1.3966
 2971TIP3   OH233107   1.821   2.287  10.566 -0.1229  0.7263  0.4759
 2971TIP3    H133108   1.822   2.222  10.495  0.0057 -0.7927  1.7955
 2971TIP3    H233109   1.761   2.250  10.631  1.1460  1.1452  1.9397
 2972TIP3   OH233110   4.001   6.205  10.147 -0.3627  0.2088 -0.0199
 2972TIP3    H133111   4.012   6.243  10.061  3.8251 -1.2570 -0.3597
 2972TIP3    H233112   4.035   6.271  10.208 -3.2462  1.2183  0.6419
 2973TIP3   OH233113   2.889   5.136  10.727  0.0202  0.3943  0.0961
 2973TIP3    H133114   2.867   5.065  10.667 -1.3114  0.3440  0.5953
 2973TIP3    H233115   2.897   5.213  10.672 -0.9584  0.3040 -0.1934
 2974TIP3   OH233116   4.103   0.149  11.324  0.0393 -0.0058 -0.3320
 2974TIP3    H133117   4.118   0.063  11.284 -2.1352 -0.3519 -0.5235
 2974TIP3    H233118   4.191   0.187  11.332  1.0036 -1.9987 -0.7626
 2975TIP3   OH233119   3.118   4.872  11.746 -0.0235  0.2060  0.0043
 2975TIP3    H133120   3.190   4.811  11.732  1.2357  1.3439  1.1754
 2975TIP3    H233121   3.040   4.823  11.721  1.0654 -1.3631 -0.4914
 2976TIP3   OH233122   1.003   6.331  10.581 -0.7318 -0.0201  0.1855
 2976TIP3    H133123   1.039   6.393  10.517 -0.4242  0.8392  1.1785
 2976TIP3    H233124   0.958   6.266  10.527  2.0299 -1.0229 -1.1535
 2977TIP3   OH233125   5.212   2.199  10.686 -0.6190  0.0536  0.3871
 2977TIP3    H133126   5.220   2.279  10.740  1.4431 -0.6714  1.2441
 2977TIP3    H233127   5.274   2.212  10.615 -0.9561 -0.4108  0.0058
 2978TIP3   OH233128   6.482   2.597  10.671  0.2037 -0.4241  0.3407
 2978TIP3    H133129   6.565   2.550  10.665  1.2925  1.4429 -0.0272
 2978TIP3    H233130   6.503   2.676  10.721 -1.0343  0.7395 -0.9036
 2979TIP3   OH233131   5.167   2.035  12.187 -0.2804  0.1882 -0.2322
 2979TIP3    H133132   5.111   2.018  12.111  1.1397  0.6877 -1.4393
 2979TIP3    H233133   5.118   2.098  12.239 -2.0530 -1.4646  0.2008
 2980TIP3   OH233134   0.581   3.704  12.260  0.3148 -0.1650  0.5283
 2980TIP3    H133135   0.598   3.724  12.353 -0.2112  0.8052  0.4284
 2980TIP3    H233136   0.627   3.773  12.213  1.0847 -0.9986  0.0229
 2981TIP3   OH233137   5.567   6.299  12.495 -0.4951  0.0059 -0.7892
 2981TIP3    H133138   5.661   6.313  12.485 -0.5630  3.4423  1.5334
 2981TIP3    H233139   5.529   6.341  12.418 -0.1787 -0.3963 -1.1706
 2982TIP3   OH233140   0.234   3.159  10.803 -0.5146  0.1948 -0.1376
 2982TIP3    H133141   0.179   3.083  10.822 -1.6987  1.1410  0.3840
 2982TIP3    H233142   0.296   3.128  10.736 -1.3628 -1.0441 -0.3868
 2983TIP3   OH233143   3.372   4.301  12.495 -0.2297 -0.2964 -0.5236
 2983TIP3    H133144   3.331   4.351  12.566 -1.8869  3.3767 -3.6628
 2983TIP3    H233145   3.322   4.219  12.491 -1.1562  0.1135  1.4877
 2984TIP3   OH233146   6.768   2.967  10.452  0.4997  0.2206 -0.2099
 2984TIP3    H133147   6.853   3.010  10.441  0.1103  0.7745 -1.2925
 2984TIP3    H233148   6.769   2.897  10.386  0.5206 -0.4474  0.4931
 2985TIP3   OH233149   5.411   4.405  10.521  0.3254  0.6013  0.2391
 2985TIP3    H133150   5.317   4.406  10.538  0.6566  0.6992  2.2865
 2985TIP3    H233151   5.419   4.434  10.430 -1.6286  0.2503 -0.0962
 2986TIP3   OH233152   4.020   1.829  10.820  0.1879 -0.1718  0.5779
 2986TIP3    H133153   3.989   1.909  10.778 -1.8729 -0.6986  0.9518
 2986TIP3    H233154   3.942   1.793  10.862  1.4737 -1.3713  2.0635
 2987TIP3   OH233155   6.025   3.904   9.737 -0.1870  0.0342  0.1970
 2987TIP3    H133156   6.020   3.993   9.700  0.9486  0.6140  1.3602
 2987TIP3    H233157   5.936   3.886   9.767 -0.3467  0.9708  0.3249
 2988TIP3   OH233158   1.999   2.438  12.871  0.0853  0.5597 -0.0599
 2988TIP3    H133159   1.999   2.345  12.893 -1.0105  0.8632  1.3718
 2988TIP3    H233160   2.091   2.465  12.877  0.2638 -0.1846  0.6842
 2989TIP3   OH233161   3.326   6.768  12.565 -0.0246  0.7568 -0.0205
 2989TIP3    H133162   3.268   6.742  12.636  0.4814  0.0882  0.1599
 2989TIP3    H233163   3.330   6.691  12.508  0.6757  0.8020 -0.0366
 2990TIP3   OH233164   2.591   1.440  11.785 -0.2954  0.8441  0.1831
 2990TIP3    H133165   2.618   1.531  11.799 -0.6343  1.0477 -0.4256
 2990TIP3    H233166   2.662   1.401  11.734 -1.2109  1.4627 -1.6827
 2991TIP3   OH233167   5.389   6.314  11.004  0.3135 -0.2723 -0.2474
 2991TIP3    H133168   5.453   6.316  11.075  1.4433  2.4938 -1.2060
 2991TIP3    H233169   5.304   6.324  11.047  0.7791 -0.8034  0.8267
 2992TIP3   OH233170   3.954   1.562  11.176  0.7844  0.1766 -0.2585
 2992TIP3    H133171   3.860   1.562  11.190  0.8603 -1.1032  0.4272
 2992TIP3    H233172   3.967   1.525  11.089  0.7359 -2.6157  0.8307
 2993TIP3   OH233173   5.034   5.070  11.893  0.6243 -0.0634 -0.1108
 2993TIP3    H133174   5.034   5.007  11.965  0.4952 -0.0246 -0.0782
 2993TIP3    H233175   5.031   5.015  11.814  0.4553 -0.0978 -0.0816
 2994TIP3   OH233176   3.321   2.341  12.271  0.0567  0.7677 -0.5519
 2994TIP3    H133177   3.277   2.271  12.320  0.0894  0.8870 -0.3506
 2994TIP3    H233178   3.314   2.314  12.179 -0.0451  0.5649 -0.4857
 2995TIP3   OH233179   6.469   1.932  10.190  0.3140 -0.3721  0.4958
 2995TIP3    H133180   6.464   2.024  10.215  0.4039 -0.5712  1.2773
 2995TIP3    H233181   6.517   1.932  10.107 -1.8817  0.5057 -0.8855
 2996TIP3   OH233182   1.089   4.228  11.473  0.5626 -0.4094  0.5114
 2996TIP3    H133183   1.025   4.200  11.408  1.1112  0.2798 -0.3559
 2996TIP3    H233184   1.037   4.256  11.548 -0.1613  0.2933 -0.2337
 2997TIP3   OH233185   0.894   4.122  11.330 -0.1775  0.7758 -0.4468
 2997TIP3    H133186   0.845   4.139  11.250  0.3233  0.6483 -0.7860
 2997TIP3    H233187   0.872   4.031  11.353  2.0589 -0.3098 -2.1875
 2998TIP3   OH233188   6.623   4.980  10.250 -0.1127  0.3163 -0.2459
 2998TIP3    H133189   6.558   4.940  10.192  0.4339  1.2618 -1.5390
 2998TIP3    H233190   6.574   4.999  10.330 -1.3845  0.8174 -1.1135
 2999TIP3   OH233191   4.269   3.684  12.340  0.3676  0.1970 -0.4987
 2999TIP3    H133192   4.238   3.694  12.250 -3.6339  1.4251  0.8062
 2999TIP3    H233193   4.248   3.593  12.363 -1.5335  0.7342  0.0542
 3000TIP3   OH233194   1.964   1.761  12.473 -0.5205  0.4893 -0.1541
 3000TIP3    H133195   2.049   1.728  12.504 -0.4782 -1.7307 -2.3500
 3000TIP3    H233196   1.986   1.816  12.398 -0.9579  1.0167  0.0990
 3001TIP3   OH233197   1.952   0.634  11.482  0.5679 -0.1261 -0.4495
 3001TIP3    H133198   1.966   0.575  11.408  2.0734 -0.8980  0.3963
 3001TIP3    H233199   1.916   0.577  11.550  0.6619  0.2467 -0.0893
 3002TIP3   OH233200   6.572   3.518  10.638 -0.3479  0.6140 -0.1130
 3002TIP3    H133201   6.620   3.490  10.560  1.8293 -0.1430  1.3919
 3002TIP3    H233202   6.611   3.603  10.661 -1.0917  0.9174  0.0529
 3003TIP3   OH233203   0.492   6.514  12.972 -0.0514 -0.3482 -0.8384
 3003TIP3    H133204   0.460   6.536  13.059  0.3520  0.5076 -0.8908
 3003TIP3    H233205   0.439   6.439  12.945 -2.0753  1.0602 -0.9839
 3004TIP3   OH233206   6.626   5.734  10.483  0.2053 -0.6942 -0.0290
 3004TIP3    H133207   6.553   5.676  10.460 -0.6362  0.8881 -1.6033
 3004TIP3    H233208   6.681   5.734  10.404  0.4833  0.1919  0.1625
 3005TIP3   OH233209   2.724   1.352  11.402 -0.5703 -0.0207  0.1588
 3005TIP3    H133210   2.751   1.281  11.344 -1.6622 -0.9353  0.7374
 3005TIP3    H233211   2.628   1.351  11.399 -0.6282  2.6102 -1.2113
 3006TIP3   OH233212   3.962   3.492  13.062 -0.1191 -0.3123 -0.2348
 3006TIP3    H133213   3.930   3.435  13.131 -0.7154  0.6332  0.2910
 3006TIP3    H233214   3.941   3.445  12.981  0.1179 -1.1924  0.2050
 3007TIP3   OH233215   2.909   4.064  11.459 -0.4456 -0.2591 -0.1103
 3007TIP3    H133216   2.837   4.097  11.512  0.3612  0.6108  0.4865
 3007TIP3    H233217   2.944   4.141  11.414  0.2625 -0.6175 -0.2022
 3008TIP3   OH233218   2.401   4.185  11.515  0.5886  0.3350 -0.3430
 3008TIP3    H133219   2.316   4.171  11.475  0.5048  0.7973 -0.3295
 3008TIP3    H233220   2.460   4.206  11.442  1.0504 -1.5296 -0.5457
 3009TIP3   OH233221   0.530   6.385  12.103 -0.3848  0.5925  0.3368
 3009TIP3    H133222   0.543   6.364  12.195  1.2340  0.5911  0.1269
 3009TIP3    H233223   0.593   6.454  12.084  1.0966 -1.0854 -1.3402
 3010TIP3   OH233224   5.556   1.645  11.243 -0.0682 -0.5933 -0.3004
 3010TIP3    H133225   5.535   1.559  11.280  0.6029 -0.3237  0.7657
 3010TIP3    H233226   5.637   1.631  11.194 -0.0010 -0.5927 -0.1905
 3011TIP3   OH233227   6.158   4.335  11.068 -0.3269 -0.8363  0.8201
 3011TIP3    H133228   6.224   4.327  11.137 -0.1299 -1.3792  0.5765
 3011TIP3    H233229   6.202   4.382  10.998  0.3514 -2.5756  0.0118
 3012TIP3   OH233230   5.450   4.317  11.465  0.4151  0.0261  0.1807
 3012TIP3    H133231   5.362   4.352  11.450  0.9728  1.2271 -0.4066
 3012TIP3    H233232   5.476   4.279  11.381  0.3012 -0.7106  0.4715
 3013TIP3   OH233233   3.512   4.345  10.243  0.4141  0.3540 -0.0124
 3013TIP3    H133234   3.426   4.375  10.213 -0.0325 -1.0890 -0.2496
 3013TIP3    H233235   3.554   4.312  10.163  0.4491 -0.6587  0.4201
 3014TIP3   OH233236   6.302   5.917  10.357  0.0962 -0.2557  0.3958
 3014TIP3    H133237   6.349   5.974  10.297  0.8733  0.2345  1.4418
 3014TIP3    H233238   6.251   5.859  10.301  0.2447  0.6671 -0.7043
 3015TIP3   OH233239   2.349   0.374  10.859 -0.0886  0.2451 -0.0516
 3015TIP3    H133240   2.257   0.345  10.863 -0.0055  0.0887  3.2049
 3015TIP3    H233241   2.344   0.469  10.853 -0.3557  0.1497 -2.9220
 3016TIP3   OH233242   2.407   4.414  11.951  0.7261 -0.1392 -0.2414
 3016TIP3    H133243   2.419   4.397  11.858 -1.1106 -2.9702 -0.0682
 3016TIP3    H233244   2.462   4.349  11.995  1.2692  0.9056  0.6736
 3017TIP3   OH233245   0.475   3.619  11.124 -0.1955 -0.5074  0.4563
 3017TIP3    H133246   0.479   3.715  11.128 -1.5304 -0.4005  0.0242
 3017TIP3    H233247   0.566   3.591  11.120  0.2499  0.6921  1.4684
 3018TIP3   OH233248   6.739   0.054  10.994  0.3713  0.2271 -0.4392
 3018TIP3    H133249   6.832   0.031  10.983  0.0233 -1.2611 -0.4477
 3018TIP3    H233250   6.701   0.043  10.907  0.1410  0.6486 -0.3926
 3019TIP3   OH233251   1.798   6.692  11.056  0.1953 -0.2994  0.1061
 3019TIP3    H133252   1.816   6.772  11.008 -0.6806 -0.4759 -0.5264
 3019TIP3    H233253   1.757   6.633  10.992  0.0897 -0.9606  0.7623
 3020TIP3   OH233254   6.834   3.496  12.921  0.4823 -0.0443 -0.4479
 3020TIP3    H133255   6.754   3.514  12.871 -0.7213  0.4832  1.5591
 3020TIP3    H233256   6.823   3.406  12.953  1.2342 -0.3720 -1.0717
 3021TIP3   OH233257   1.855   0.224  12.267  0.1668  0.0020  0.5998
 3021TIP3    H133258   1.782   0.222  12.329  0.0009 -0.1290  0.4009
 3021TIP3    H233259   1.860   0.315  12.238  1.1343  0.3808  1.8544
 3022TIP3   OH233260   3.747   1.297  10.949 -0.9478  0.3804  0.0569
 3022TIP3    H133261   3.653   1.312  10.946 -1.2557 -1.4161 -1.9091
 3022TIP3    H233262   3.778   1.326  10.863 -0.3704 -2.3445 -0.7618
 3023TIP3   OH233263   1.162   0.678   9.240 -0.0705 -0.3806 -0.4932
 3023TIP3    H133264   1.210   0.649   9.317  0.2877  0.1704 -0.5064
 3023TIP3    H233265   1.173   0.607   9.176 -1.1643 -1.2805  0.2737
 3024TIP3   OH233266   0.184   4.698  11.778  0.3655 -0.3550 -0.6908
 3024TIP3    H133267   0.137   4.629  11.732  0.5009  0.2023 -1.6956
 3024TIP3    H233268   0.167   4.681  11.871  0.3346 -1.6821 -0.9204
 3025TIP3   OH233269   3.396   5.155  11.389  0.3721  0.1915  0.1179
 3025TIP3    H133270   3.460   5.095  11.428  1.5676  1.6402  0.4885
 3025TIP3    H233271   3.390   5.127  11.298 -1.1739 -2.1634  0.8527
 3026TIP3   OH233272   0.502   5.228  12.030  0.2514  0.6214 -0.6568
 3026TIP3    H133273   0.498   5.137  12.059  0.3236  0.3379 -1.4991
 3026TIP3    H233274   0.566   5.228  11.959  1.4972  1.6385  0.3980
 3027TIP3   OH233275   6.337   0.364  11.792  0.0990 -0.2332  0.6005
 3027TIP3    H133276   6.419   0.320  11.768  0.4008 -0.2082  1.5647
 3027TIP3    H233277   6.287   0.366  11.710  1.0874 -0.1842 -0.0320
 3028TIP3   OH233278   1.154   6.110  10.654 -0.2372  0.2344 -0.0178
 3028TIP3    H133279   1.230   6.144  10.703  1.3316 -2.8032 -0.1343
 3028TIP3    H233280   1.121   6.186  10.607  1.7508  2.0334  1.2693
 3029TIP3   OH233281   6.592   4.507  11.043  0.4663  0.1516 -0.1891
 3029TIP3    H133282   6.685   4.487  11.037  0.7872  1.2931  0.6734
 3029TIP3    H233283   6.584   4.565  11.119 -1.0605 -0.5586  0.2504
 3030TIP3   OH233284   2.387   2.957  11.513 -0.3997  0.0164 -0.1649
 3030TIP3    H133285   2.393   2.866  11.543 -1.0388 -0.3097 -0.9920
 3030TIP3    H233286   2.306   2.990  11.551  0.5341  0.7210  1.3219
 3031TIP3   OH233287   5.372   4.062  10.311 -0.1662 -0.1396 -0.2469
 3031TIP3    H133288   5.337   4.053  10.400 -0.7778 -0.1352 -0.4864
 3031TIP3    H233289   5.467   4.068  10.324 -0.3693  2.9621  0.6743
 3032TIP3   OH233290   2.690   6.481  10.987 -0.2615  0.3917 -0.8552
 3032TIP3    H133291   2.663   6.571  11.002  2.2236  1.0704 -0.0659
 3032TIP3    H233292   2.776   6.488  10.946 -0.2083 -1.6376 -1.1932
 3033TIP3   OH233293   2.103   3.012  10.578 -0.1139  0.3363 -0.2217
 3033TIP3    H133294   2.163   3.063  10.633 -0.1183 -1.1524  1.2321
 3033TIP3    H233295   2.161   2.958  10.524 -0.1428  0.0455  0.0421
 3034TIP3   OH233296   0.728   0.586  12.400 -0.7788  0.1149 -0.6788
 3034TIP3    H133297   0.643   0.565  12.440 -1.6258  0.6744 -2.0811
 3034TIP3    H233298   0.789   0.522  12.436 -2.2030 -1.5128 -1.0245
 3035TIP3   OH233299   6.515   3.328  13.082  0.3204 -0.2876 -0.0891
 3035TIP3    H133300   6.462   3.330  13.003 -0.2644 -0.7895  0.2786
 3035TIP3    H233301   6.603   3.306  13.052 -0.3269 -2.7733 -0.4073
 3036TIP3   OH233302   5.475   3.403  11.544 -0.2931 -0.6529  0.0799
 3036TIP3    H133303   5.458   3.431  11.454 -0.1039 -0.5343  0.0802
 3036TIP3    H233304   5.468   3.308  11.541  0.2423 -0.6888 -0.1751
 3037TIP3   OH233305   3.998   4.285  10.814 -0.2324 -0.1845  0.1684
 3037TIP3    H133306   3.999   4.218  10.882 -0.0319  0.0723  0.4215
 3037TIP3    H233307   3.997   4.235  10.732 -0.6449 -0.4939  0.3591
 3038TIP3   OH233308   1.176   4.119  11.996  0.5462 -0.1959 -0.3741
 3038TIP3    H133309   1.156   4.212  12.005  0.5058 -0.3935  2.0654
 3038TIP3    H233310   1.134   4.094  11.914 -0.5334  1.6505 -0.4432
 3039TIP3   OH233311   3.015   0.665  10.417  0.4390 -1.0920 -0.0687
 3039TIP3    H133312   2.930   0.622  10.414  0.4877 -1.2105  0.1691
 3039TIP3    H233313   3.047   0.664  10.327  0.1742 -1.0172 -0.1623
 3040TIP3   OH233314   4.804   1.346  10.957  0.1273  0.1511 -0.4615
 3040TIP3    H133315   4.782   1.329  11.049  3.4585  0.0720  0.4700
 3040TIP3    H233316   4.796   1.260  10.915  0.4928 -0.2467  0.2510
 3041TIP3   OH233317   6.843   1.152  12.435 -0.5258 -0.9000  0.3146
 3041TIP3    H133318   6.855   1.200  12.517 -0.0290 -1.0651  0.3369
 3041TIP3    H233319   6.897   1.199  12.372 -1.4702 -0.3333 -0.0975
 3042TIP3   OH233320   3.878   2.473  10.380 -0.6175  0.1105  0.1127
 3042TIP3    H133321   3.806   2.421  10.416 -0.1369  0.8904  2.3705
 3042TIP3    H233322   3.925   2.412  10.323 -1.4842 -1.2001  0.7546
 3043TIP3   OH233323   4.465   3.719  12.018 -0.0468  0.5024 -1.0806
 3043TIP3    H133324   4.495   3.809  12.005  0.6316  0.5975  0.7989
 3043TIP3    H233325   4.373   3.727  12.041 -0.1740  0.6539 -1.6405
 3044TIP3   OH233326   3.489   5.490  11.138  0.2056  0.2006  0.0932
 3044TIP3    H133327   3.442   5.566  11.105  1.3546  0.9718  0.1471
 3044TIP3    H233328   3.574   5.493  11.093  0.7372 -0.3380  1.0232
 3045TIP3   OH233329   2.079   1.455  12.322  0.7852 -0.4164 -0.0277
 3045TIP3    H133330   2.025   1.520  12.277  0.7483 -0.1399  0.4024
 3045TIP3    H233331   2.162   1.455  12.275  1.1272  0.6483  0.5391
 3046TIP3   OH233332   1.446   0.916  12.896 -0.0806  0.5343 -0.4433
 3046TIP3    H133333   1.413   0.826  12.898  0.4315  0.3391 -0.6322
 3046TIP3    H233334   1.507   0.921  12.969  1.5466  0.0694 -1.7164
 3047TIP3   OH233335   6.240   5.963  12.217  0.4782  0.0133  0.1033
 3047TIP3    H133336   6.312   5.940  12.158  0.4318 -1.5320  0.6066
 3047TIP3    H233337   6.283   5.983  12.301  0.2756 -2.3635  0.8257
 3048TIP3   OH233338   5.047   3.010  11.108 -0.2969 -0.0887  0.6760
 3048TIP3    H133339   5.057   2.920  11.139  0.1214  0.0041  0.8140
 3048TIP3    H233340   5.081   3.064  11.179 -1.7851  0.2486  1.1679
 3049TIP3   OH233341   1.698   3.614  12.275 -0.0123  0.3237 -0.2647
 3049TIP3    H133342   1.652   3.584  12.196  1.1429  0.2498 -0.9323
 3049TIP3    H233343   1.707   3.709  12.262 -1.8297  0.7198  0.8810
 3050TIP3   OH233344   1.448   4.205  10.006 -0.4267  0.3521  0.1852
 3050TIP3    H133345   1.523   4.264   9.999  0.1593 -0.4636 -0.5511
 3050TIP3    H233346   1.373   4.258   9.979 -0.1432  1.1924  0.9912
 3051TIP3   OH233347   2.218   0.166  11.112  0.6917  0.7786 -0.6248
 3051TIP3    H133348   2.166   0.187  11.034 -2.4758 -0.1860  1.0819
 3051TIP3    H233349   2.243   0.074  11.099  0.6162  0.7727 -0.7363
 3052TIP3   OH233350   5.431   5.359  11.349 -0.2353  0.2618 -0.1668
 3052TIP3    H133351   5.349   5.326  11.386 -1.8603  1.3602 -2.5617
 3052TIP3    H233352   5.481   5.279  11.329 -0.4782 -0.4099  1.6877
 3053TIP3   OH233353   0.383   2.381  10.396 -0.1958 -0.0819 -0.4154
 3053TIP3    H133354   0.449   2.417  10.337 -0.7794  1.0432 -0.4207
 3053TIP3    H233355   0.302   2.382  10.346 -0.5626  0.2511  0.1582
 3054TIP3   OH233356   2.645   4.204  12.712 -0.4089 -0.5503 -0.0146
 3054TIP3    H133357   2.712   4.152  12.755 -1.1129  0.0717  1.9181
 3054TIP3    H233358   2.672   4.294  12.725  0.1048 -0.3315 -2.1936
 3055TIP3   OH233359   2.198   2.535  12.444 -0.2738 -0.7482  0.6875
 3055TIP3    H133360   2.137   2.604  12.470  1.5675  0.5316  1.8998
 3055TIP3    H233361   2.260   2.529  12.517  1.7283 -1.1232 -0.9522
 3056TIP3   OH233362   0.473   5.561  11.408 -0.1442 -0.1846 -0.2451
 3056TIP3    H133363   0.507   5.642  11.445 -0.8579 -0.1486  0.3740
 3056TIP3    H233364   0.414   5.589  11.338  0.6461 -0.2292 -0.9473
 3057TIP3   OH233365   3.190   4.508  10.476  0.1630 -0.5318  0.0844
 3057TIP3    H133366   3.114   4.527  10.421  1.4252  1.0747 -1.1839
 3057TIP3    H233367   3.178   4.416  10.501 -2.2941 -0.2663  0.1456
 3058TIP3   OH233368   4.450   1.336  11.658 -0.1256 -0.5452 -0.0760
 3058TIP3    H133369   4.494   1.396  11.599 -2.2560 -0.2407 -1.4901
 3058TIP3    H233370   4.385   1.390  11.704 -2.0988 -1.6373 -1.3920
 3059TIP3   OH233371   6.620   0.300  12.194 -0.2532 -0.0196  0.2443
 3059TIP3    H133372   6.559   0.374  12.189  2.5008  2.3697 -0.8979
 3059TIP3    H233373   6.582   0.234  12.136 -1.2855  1.7735 -1.2409
 3060TIP3   OH233374   4.096   6.367  11.546  0.7035  0.3714  0.6469
 3060TIP3    H133375   4.170   6.420  11.575  2.5430 -2.1731  1.0144
 3060TIP3    H233376   4.117   6.346  11.454 -0.6333  1.2712  0.1165
 3061TIP3   OH233377   6.464   3.225  12.269  0.2205  0.1897 -0.2840
 3061TIP3    H133378   6.532   3.250  12.331  0.6651 -0.8858 -0.3067
 3061TIP3    H233379   6.386   3.273  12.297  0.6798  0.5104  0.4672
 3062TIP3   OH233380   6.610   0.914  11.829  0.3247 -0.8428 -0.2573
 3062TIP3    H133381   6.688   0.918  11.884  0.4679 -1.5192 -0.3973
 3062TIP3    H233382   6.644   0.902  11.741  0.1095  0.6675 -0.5721
 3063TIP3   OH233383   2.533   3.085  12.626 -0.4337 -0.8908 -0.3257
 3063TIP3    H133384   2.450   3.129  12.607 -0.5225 -1.5489 -1.5948
 3063TIP3    H233385   2.573   3.138  12.695 -1.5025 -0.0576 -0.3148
 3064TIP3   OH233386   1.157   2.138  10.819  0.5690 -0.8055  0.2712
 3064TIP3    H133387   1.076   2.160  10.864 -0.6639 -1.3840 -1.5278
 3064TIP3    H233388   1.181   2.217  10.771 -0.8238 -1.5598 -1.8171
 3065TIP3   OH233389   3.981   4.004  10.690 -0.2873 -0.7525 -0.4492
 3065TIP3    H133390   3.929   3.933  10.653 -2.3118 -0.5699  1.8299
 3065TIP3    H233391   3.965   4.000  10.784  1.3758  1.3068  0.0087
 3066TIP3   OH233392   4.296   2.261  12.392  0.0781  0.4824 -0.8229
 3066TIP3    H133393   4.267   2.195  12.454  0.9404 -1.5295 -2.4650
 3066TIP3    H233394   4.363   2.311  12.440  0.3698 -0.7000  0.0411
 3067TIP3   OH233395   1.758   1.880  12.629  0.0684 -0.4046  0.4010
 3067TIP3    H133396   1.736   1.798  12.675 -1.8418 -0.9640 -1.3774
 3067TIP3    H233397   1.826   1.855  12.567  1.0760 -0.1157  1.3500
 3068TIP3   OH233398   6.818   1.523  12.431 -0.6049  0.7138 -0.2637
 3068TIP3    H133399   6.885   1.583  12.462 -0.1640  0.8642 -1.4457
 3068TIP3    H233400   6.865   1.459  12.377 -1.2171 -0.0291  0.0665
 3069TIP3   OH233401   3.345   3.276  10.874 -0.3465  0.2014 -0.2731
 3069TIP3    H133402   3.390   3.276  10.959 -0.2263  2.0221 -0.3092
 3069TIP3    H233403   3.408   3.236  10.814 -0.2570 -0.6845  0.3867
 3070TIP3   OH233404   1.899   2.194  10.006 -0.7146 -0.4067  0.3843
 3070TIP3    H133405   1.856   2.275   9.978 -3.1182 -0.8301  2.4087
 3070TIP3    H233406   1.947   2.164   9.929 -1.2130  2.0022 -0.9644
 3071TIP3   OH233407   2.792   1.643  11.511 -0.2101  0.7456 -0.0356
 3071TIP3    H133408   2.814   1.571  11.453  1.8892  0.8766  0.5359
 3071TIP3    H233409   2.697   1.654  11.500 -0.3675 -1.1995 -1.1272
 3072TIP3   OH233410   0.641   5.193  12.524 -0.1625  0.1450  0.1356
 3072TIP3    H133411   0.584   5.255  12.478 -0.5917  1.3731  2.1769
 3072TIP3    H233412   0.596   5.109  12.516  0.3930  0.0277 -2.6332
 3073TIP3   OH233413   1.802   5.414  11.721  0.2495 -0.7804 -0.2281
 3073TIP3    H133414   1.718   5.459  11.732 -0.3855 -2.2806  1.3957
 3073TIP3    H233415   1.788   5.327  11.758  1.5996 -2.2051 -2.7915
 3074TIP3   OH233416   1.645   3.419  12.766 -0.1658 -0.2490  0.1891
 3074TIP3    H133417   1.672   3.493  12.820 -1.5708  1.0761 -0.8275
 3074TIP3    H233418   1.671   3.444  12.677 -0.4584 -1.0885 -0.1447
 3075TIP3   OH233419   3.213   3.588  13.048  0.2148 -0.1566 -0.8970
 3075TIP3    H133420   3.226   3.638  13.129 -1.5567  0.9237 -1.2119
 3075TIP3    H233421   3.266   3.510  13.059  2.4995  1.4170 -0.0427
 3076TIP3   OH233422   2.318   0.456  12.929 -0.0945 -0.0305  0.4296
 3076TIP3    H133423   2.388   0.512  12.895  0.7125  0.7163  3.0744
 3076TIP3    H233424   2.251   0.517  12.959 -0.1639 -0.5570  1.3812
 3077TIP3   OH233425   5.124   1.359  11.323  0.2367  0.0468  0.2140
 3077TIP3    H133426   5.177   1.308  11.384  1.6407  1.2130  0.0071
 3077TIP3    H233427   5.177   1.436  11.302 -1.2431  0.9174 -0.5578
 3078TIP3   OH233428   3.275   2.854  13.257  0.0729 -0.8176  0.0409
 3078TIP3    H133429   3.218   2.916  13.302 -1.1523 -0.3511 -2.0497
 3078TIP3    H233430   3.217   2.806  13.198  1.6981 -0.9503 -1.5239
 3079TIP3   OH233431   5.899   1.029  11.061 -0.1215  0.1186  0.6882
 3079TIP3    H133432   5.822   1.080  11.085  0.6886  2.1941 -0.8078
 3079TIP3    H233433   5.958   1.037  11.137  0.0253  1.5373  0.4458
 3080TIP3   OH233434   1.109   2.233  10.207  0.0607  0.5463  0.1086
 3080TIP3    H133435   1.060   2.167  10.157 -0.6733 -0.5397  2.1444
 3080TIP3    H233436   1.059   2.314  10.196 -2.1378 -0.4667  1.8770
 3081TIP3   OH233437   4.353   0.824  12.876 -0.2691  0.8139 -0.6901
 3081TIP3    H133438   4.323   0.890  12.813 -0.6209  1.8049  0.4925
 3081TIP3    H233439   4.278   0.765  12.886 -1.4887  2.5528  1.2769
 3082TIP3   OH233440   6.547   3.035  12.923  1.1515  0.3474 -0.6140
 3082TIP3    H133441   6.602   3.100  12.967  1.2767  0.2525 -0.6281
 3082TIP3    H233442   6.467   3.031  12.976  0.6190  1.4068 -1.2884
 3083TIP3   OH233443   4.119   5.267  11.219 -0.1658 -0.3439 -0.0186
 3083TIP3    H133444   4.192   5.269  11.158 -1.6921  0.7155 -1.9601
 3083TIP3    H233445   4.079   5.181  11.207 -0.5222 -0.0997 -0.6175
 3084TIP3   OH233446   0.761   2.381  11.701 -0.6236  0.6733 -0.4318
 3084TIP3    H133447   0.678   2.428  11.696 -0.4808  1.1035  0.7457
 3084TIP3    H233448   0.737   2.290  11.717 -0.8825  0.5453 -1.5001
 3085TIP3   OH233449   3.849   0.230  10.344  0.0457 -0.0941 -0.2580
 3085TIP3    H133450   3.848   0.252  10.250 -0.5248 -2.3857 -0.8439
 3085TIP3    H233451   3.786   0.159  10.352 -1.1610  1.1491  2.1987
 3086TIP3   OH233452   1.897   4.475   9.672  0.0531 -0.2974  0.1088
 3086TIP3    H133453   1.807   4.451   9.649  0.4498 -0.0697 -1.8842
 3086TIP3    H233454   1.893   4.497   9.765 -2.3309  1.4150 -0.3059
 3087TIP3   OH233455   5.638   1.311  11.585  0.1088 -0.3570  0.5205
 3087TIP3    H133456   5.640   1.215  11.589 -1.9006 -0.5980 -1.8498
 3087TIP3    H233457   5.566   1.335  11.643  0.7541 -0.2551  1.2841
 3088TIP3   OH233458   3.164   0.721  11.176  0.1213 -0.3791 -0.0415
 3088TIP3    H133459   3.149   0.801  11.227  1.8696 -0.2551  0.3499
 3088TIP3    H233460   3.081   0.674  11.180 -0.0163 -0.0591  2.3858
 3089TIP3   OH233461   1.756   0.540  10.147  0.0274 -0.5314 -0.2661
 3089TIP3    H133462   1.688   0.606  10.161 -0.4896 -1.0482 -0.2778
 3089TIP3    H233463   1.786   0.554  10.058  0.2016 -0.0651 -0.1400
 3090TIP3   OH233464   3.129   3.367  10.666 -0.3124  0.2099  0.2667
 3090TIP3    H133465   3.202   3.423  10.639 -1.4795  0.4360 -2.7595
 3090TIP3    H233466   3.170   3.300  10.721  1.8338  1.4103  0.2722
 3091TIP3   OH233467   0.396   3.385  11.222  0.1509  0.3832 -0.4891
 3091TIP3    H133468   0.388   3.458  11.160  0.0355  0.3125 -0.5585
 3091TIP3    H233469   0.407   3.426  11.307 -2.5454  0.5221 -0.1311
 3092TIP3   OH233470   2.534   5.139  10.825  0.9065 -0.6325  0.2748
 3092TIP3    H133471   2.455   5.124  10.774  1.1818 -3.7858  0.5951
 3092TIP3    H233472   2.595   5.072  10.795  3.6922  1.9106 -0.2469
 3093TIP3   OH233473   1.607   0.359   9.742  0.3463 -0.7434  0.1241
 3093TIP3    H133474   1.670   0.418   9.701  0.0421  0.6330  1.5583
 3093TIP3    H233475   1.541   0.344   9.674  1.2124 -0.6947 -0.7621
 3094TIP3   OH233476   1.047   2.197  13.035  0.0669 -0.0354 -0.3268
 3094TIP3    H133477   1.024   2.286  13.009 -0.2392 -0.5982 -2.1051
 3094TIP3    H233478   1.114   2.208  13.102 -1.8571  1.5646  1.4999
 3095TIP3   OH233479   1.881   5.852  10.559  0.3560  0.0018 -0.1074
 3095TIP3    H133480   1.962   5.807  10.536  1.2568  1.0820  0.8213
 3095TIP3    H233481   1.872   5.836  10.653 -0.2144  0.3412 -0.1034
 3096TIP3   OH233482   0.846   4.015  11.804 -0.2124 -0.5513  0.0812
 3096TIP3    H133483   0.765   4.004  11.755 -1.2686  2.6506  0.8590
 3096TIP3    H233484   0.831   3.970  11.886 -1.2623  0.0755  0.2461
 3097TIP3   OH233485   2.995   5.620  11.528 -0.0913  0.3397  0.4384
 3097TIP3    H133486   2.986   5.536  11.483 -3.6366 -0.4980  2.2630
 3097TIP3    H233487   2.979   5.685  11.460 -2.3380 -0.7519 -0.1951
 3098TIP3   OH233488   0.512   2.498  11.675 -0.1063  0.1561  0.3095
 3098TIP3    H133489   0.458   2.456  11.742  0.1251 -1.4202 -0.4432
 3098TIP3    H233490   0.454   2.505  11.599 -0.0403  0.9251  0.3239
 3099TIP3   OH233491   3.683   5.631  11.564  0.5113 -0.3931  0.2617
 3099TIP3    H133492   3.681   5.613  11.658 -0.1320 -0.2183  0.2870
 3099TIP3    H233493   3.656   5.549  11.522 -0.2976 -0.1495  0.2849
 3100TIP3   OH233494   0.584   2.476  10.255 -0.1717 -0.3507  0.6489
 3100TIP3    H133495   0.547   2.501  10.171  0.6063  1.1791  0.7332
 3100TIP3    H233496   0.674   2.451  10.235  0.6148  1.8156  1.2222
 3101TIP3   OH233497   0.202   0.056  10.498  0.2585 -0.6741  0.7759
 3101TIP3    H133498   0.286   0.086  10.463  0.1008 -0.1328  0.8515
 3101TIP3    H233499   0.152   0.137  10.513 -0.6016 -1.0244 -0.0837
 3102TIP3   OH233500   5.045   1.793  10.795  0.6734 -0.3603  0.2822
 3102TIP3    H133501   4.998   1.872  10.824 -0.1276 -0.9909  0.7289
 3102TIP3    H233502   5.051   1.739  10.874  0.1123 -1.2893 -0.3004
 3103TIP3   OH233503   0.498   3.536  11.447 -1.0145 -0.0420 -0.6412
 3103TIP3    H133504   0.501   3.496  11.534 -1.3597  0.3488 -0.4459
 3103TIP3    H233505   0.585   3.574  11.435 -1.5071  1.4400  0.2789
 3104TIP3   OH233506   1.712   5.547  12.204  0.0817 -0.4133 -0.0517
 3104TIP3    H133507   1.798   5.585  12.219  0.9256 -1.3681 -2.1069
 3104TIP3    H233508   1.724   5.454  12.219 -1.1155 -0.3526  1.5389
 3105TIP3   OH233509   1.271   5.433  12.069 -0.0237  0.0543  0.6909
 3105TIP3    H133510   1.272   5.338  12.058  1.9274  0.1304 -0.3088
 3105TIP3    H233511   1.298   5.446  12.160 -1.0470 -0.3353  1.0677
 3106TIP3   OH233512   5.370   5.139  12.023 -0.0279 -0.1509  0.4735
 3106TIP3    H133513   5.330   5.127  12.109  0.0734 -1.4037  0.3656
 3106TIP3    H233514   5.455   5.095  12.030 -0.7886 -1.9408 -0.8049
 3107TIP3   OH233515   2.793   1.235  12.819 -0.3274  0.1680  0.1011
 3107TIP3    H133516   2.769   1.168  12.755  0.0642 -1.0323  1.1457
 3107TIP3    H233517   2.745   1.209  12.898 -0.7580  1.5763  0.3193
 3108TIP3   OH233518   1.657   1.014  10.040  0.4331 -0.5593 -0.3710
 3108TIP3    H133519   1.707   1.004   9.959  0.4709 -3.3861 -0.0804
 3108TIP3    H233520   1.718   0.991  10.109 -0.3296 -0.7049  0.2692
 3109TIP3   OH233521   2.544   5.995  11.665 -0.6910  0.0656 -0.3763
 3109TIP3    H133522   2.593   6.010  11.584 -0.6119 -1.5472 -0.6670
 3109TIP3    H233523   2.601   5.940  11.718 -0.9239  0.7450  0.6051
 3110TIP3   OH233524   5.336   5.092  11.179  0.8598  0.2246 -0.2514
 3110TIP3    H133525   5.245   5.072  11.203  0.7139 -1.2998 -1.8368
 3110TIP3    H233526   5.380   5.007  11.177  1.8502  0.7308 -1.2953
 3111TIP3   OH233527   4.250   4.681  11.846  0.0266 -0.0186  0.3039
 3111TIP3    H133528   4.204   4.739  11.906  1.9230  0.2417  1.5846
 3111TIP3    H233529   4.205   4.597  11.854 -1.2456  0.6303  0.2332
 3112TIP3   OH233530   1.887   1.321  11.181 -0.6643 -0.5948 -0.4704
 3112TIP3    H133531   1.863   1.253  11.244 -3.2615  0.2071 -0.4618
 3112TIP3    H233532   1.815   1.321  11.118  0.3378  0.7292 -1.6771
 3113TIP3   OH233533   6.127   3.381  10.376 -0.5223  0.5103 -0.1893
 3113TIP3    H133534   6.032   3.389  10.382 -0.5584  0.6308 -0.8848
 3113TIP3    H233535   6.156   3.461  10.332 -0.1614  0.1856 -0.5513
 3114TIP3   OH233536   6.640   2.319   9.743  0.0427  0.1317 -0.8612
 3114TIP3    H133537   6.730   2.345   9.762  0.2392 -0.1716 -1.3551
 3114TIP3    H233538   6.602   2.394   9.698  0.3877 -0.1423 -1.6306
 3115TIP3   OH233539   2.464   2.003  12.772  0.1833  0.5977  0.1105
 3115TIP3    H133540   2.485   2.010  12.865 -1.2483 -3.1734  0.9123
 3115TIP3    H233541   2.369   1.992  12.770  0.3108 -0.6583 -1.6266
 3116TIP3   OH233542   3.545   4.598  11.143  0.9541  0.6045  0.0299
 3116TIP3    H133543   3.634   4.633  11.137  1.1702 -0.0115 -0.5528
 3116TIP3    H233544   3.555   4.515  11.188  0.7246  0.3873 -0.3142
 3117TIP3   OH233545   0.977   1.028  11.603 -0.2594  0.4451  0.2404
 3117TIP3    H133546   0.963   0.935  11.622 -1.4664  0.9102  1.9143
 3117TIP3    H233547   1.043   1.029  11.533 -0.8922 -1.6731 -0.4616
 3118TIP3   OH233548   1.561   0.332  10.177 -0.4673  0.2321 -0.0932
 3118TIP3    H133549   1.487   0.368  10.129 -0.5437  2.3585  1.4648
 3118TIP3    H233550   1.621   0.405  10.188  0.3744 -0.6284  1.4298
 3119TIP3   OH233551   6.850   5.137  10.435 -0.0488  0.7883 -0.8008
 3119TIP3    H133552   6.868   5.054  10.390  0.8378  1.8560 -2.4891
 3119TIP3    H233553   6.936   5.171  10.457 -0.4115  1.2820 -0.1206
 3120TIP3   OH233554   6.112   3.801  10.539  0.4924  0.0220 -0.6755
 3120TIP3    H133555   6.156   3.864  10.482  0.1031  3.2981  2.2950
 3120TIP3    H233556   6.178   3.777  10.604 -0.2206 -0.2767 -0.0419
 3121TIP3   OH233557   0.831   1.382  12.570  0.6931 -0.1985 -0.2387
 3121TIP3    H133558   0.858   1.472  12.549 -0.2820  0.6209  1.7912
 3121TIP3    H233559   0.873   1.364  12.654  0.8835 -1.6763 -0.6305
 3122TIP3   OH233560   4.296   6.314  12.602  0.3300 -0.0408  1.0534
 3122TIP3    H133561   4.367   6.379  12.607  0.4872  0.0044 -1.0014
 3122TIP3    H233562   4.218   6.366  12.580  0.1069 -0.3577  1.0894
 3123TIP3   OH233563   0.980   3.911  10.592 -0.0374 -0.3908  0.0152
 3123TIP3    H133564   1.008   3.893  10.682 -0.4308 -0.9739  0.0270
 3123TIP3    H233565   0.932   3.994  10.599  1.7323  0.6821 -0.0312
 3124TIP3   OH233566   1.832   6.070  10.807 -0.0468  0.3276 -0.4236
 3124TIP3    H133567   1.781   6.131  10.861  1.4016  2.2128 -1.0488
 3124TIP3    H233568   1.919   6.111  10.802  1.5016 -2.6169  0.4137
 3125TIP3   OH233569   5.113   5.845  11.420  0.7431 -0.1781  0.6264
 3125TIP3    H133570   5.038   5.901  11.438  0.2503 -1.2130  1.8743
 3125TIP3    H233571   5.185   5.886  11.467  0.6366 -0.0064  0.6411
 3126TIP3   OH233572   6.010   4.546  11.927  0.1741 -0.1312 -0.2502
 3126TIP3    H133573   5.994   4.533  11.833  1.0116 -1.9746 -0.1813
 3126TIP3    H233574   5.934   4.506  11.970 -0.4755  1.1861 -0.1167
 3127TIP3   OH233575   5.832   0.212  12.095  0.5512  0.4205 -0.1414
 3127TIP3    H133576   5.760   0.246  12.043 -0.5020 -0.9368  0.3548
 3127TIP3    H233577   5.881   0.156  12.035  0.1846  0.0074 -0.0644
 3128TIP3   OH233578   0.418   5.589  10.667  0.2817 -0.0857  0.1685
 3128TIP3    H133579   0.340   5.547  10.632  0.4500 -1.0029  0.8699
 3128TIP3    H233580   0.453   5.638  10.593 -0.7117 -0.0088 -0.2728
 3129TIP3   OH233581   3.562   1.947  11.202 -0.4688 -0.1473  0.0892
 3129TIP3    H133582   3.575   2.014  11.270 -0.5797  0.1309 -0.1637
 3129TIP3    H233583   3.567   1.864  11.250 -0.9668  0.0564  0.5178
 3130TIP3   OH233584   4.338   0.527  12.717 -0.3209  0.0363  0.4562
 3130TIP3    H133585   4.334   0.612  12.674  0.4319 -0.5562 -0.8406
 3130TIP3    H233586   4.274   0.473  12.670  0.3135 -0.5381  0.2315
 3131TIP3   OH233587   5.640   4.790  12.355 -0.1480  0.0487  0.0919
 3131TIP3    H133588   5.659   4.713  12.302 -0.8535 -0.5977  0.7654
 3131TIP3    H233589   5.717   4.800  12.411 -0.8509 -1.3619  1.3890
 3132TIP3   OH233590   6.334   4.692  11.995  0.1563 -0.0338  0.0764
 3132TIP3    H133591   6.288   4.705  11.911  1.0908 -3.5741 -1.1284
 3132TIP3    H233592   6.425   4.713  11.975  0.0875  1.0077  0.7934
 3133TIP3   OH233593   0.050   1.836  11.756 -0.4493  0.1691 -0.1920
 3133TIP3    H133594   0.134   1.796  11.780  0.8082  2.5897 -0.2227
 3133TIP3    H233595   0.003   1.846  11.839  0.2616  0.8082  0.1455
 3134TIP3   OH233596   1.942   1.037  11.968  0.0249  0.3573  0.3857
 3134TIP3    H133597   1.897   1.120  11.985  0.9745  0.7065  1.2804
 3134TIP3    H233598   2.020   1.062  11.917  0.0035 -0.0638  0.1444
 3135TIP3   OH233599   6.022   6.245  11.702 -0.0403 -0.7685 -0.5792
 3135TIP3    H133600   5.990   6.236  11.792  0.7857 -0.2587 -0.2219
 3135TIP3    H233601   6.090   6.179  11.694  1.7892  0.9329  0.0813
 3136TIP3   OH233602   4.018   6.298   9.885  0.8478  0.4920 -0.5760
 3136TIP3    H133603   4.094   6.302   9.827  0.0917  0.3606 -1.6085
 3136TIP3    H233604   3.951   6.254   9.834  0.5488 -0.8275  0.8804
 3137TIP3   OH233605   0.801   4.103  10.643  0.2080 -0.0510  0.1426
 3137TIP3    H133606   0.712   4.079  10.669  0.1935  0.6296  0.7415
 3137TIP3    H233607   0.801   4.093  10.548  0.0247 -1.7756  0.3019
 3138TIP3   OH233608   4.794   0.055  12.460 -0.6707  0.4222 -0.1623
 3138TIP3    H133609   4.745   0.053  12.543 -1.6767  0.8706 -0.7321
 3138TIP3    H233610   4.741   0.108  12.402 -0.5578 -0.8609 -1.4829
 3139TIP3   OH233611   0.703   2.641  12.090  0.1062 -0.3083  0.0264
 3139TIP3    H133612   0.785   2.605  12.056  1.1155  1.7131  0.1734
 3139TIP3    H233613   0.718   2.652  12.184  0.2238  1.3613 -0.1540
 3140TIP3   OH233614   4.278   0.155  13.087  0.6420 -0.3732 -0.6284
 3140TIP3    H133615   4.313   0.091  13.025 -1.6469 -2.2187 -0.1868
 3140TIP3    H233616   4.248   0.228  13.033  2.0499 -0.2599 -1.2883
 3141TIP3   OH233617   1.234   1.796  12.635 -0.1480  0.0915  0.4060
 3141TIP3    H133618   1.173   1.869  12.623  0.8869  0.9596  0.2297
 3141TIP3    H233619   1.306   1.815  12.573  1.0002 -0.1029  1.6384
 3142TIP3   OH233620   5.385   5.043  11.742  0.8011  0.2719 -0.2502
 3142TIP3    H133621   5.328   4.967  11.750  1.1401 -0.0430 -0.8420
 3142TIP3    H233622   5.397   5.073  11.833 -0.5799  0.5533 -0.1429
 3143TIP3   OH233623   4.870   2.242  12.659 -0.5065 -0.0970 -0.7917
 3143TIP3    H133624   4.903   2.224  12.572  0.3209 -1.1711 -0.2701
 3143TIP3    H233625   4.799   2.179  12.671 -0.8298  0.2615 -0.8023
 3144TIP3   OH233626   3.545   3.284  12.252 -0.0661 -0.2508  0.2200
 3144TIP3    H133627   3.524   3.264  12.160  0.1442  0.6448 -0.0324
 3144TIP3    H233628   3.606   3.215  12.278  0.3868 -0.1459 -0.5193
 3145TIP3   OH233629   4.932   5.842  12.766  0.6421  0.4937 -0.1530
 3145TIP3    H133630   4.879   5.885  12.833  0.8129 -0.8489  0.8679
 3145TIP3    H233631   4.881   5.765  12.741  1.0222  0.4730 -0.8946
 3146TIP3   OH233632   1.503   4.143  11.620 -0.3886 -0.3195  0.3543
 3146TIP3    H133633   1.586   4.175  11.585 -0.1625 -2.5854 -1.4635
 3146TIP3    H233634   1.487   4.196  11.698  3.0349 -0.1743  1.1068
 3147TIP3   OH233635   1.161   4.432  12.277  0.0159 -0.1326  0.3433
 3147TIP3    H133636   1.136   4.513  12.321  0.1353 -0.6752  1.4539
 3147TIP3    H233637   1.098   4.367  12.310  0.5680 -0.7110  0.2716
 3148TIP3   OH233638   3.379   6.519  10.182 -0.0117  0.0982  0.3673
 3148TIP3    H133639   3.434   6.441  10.193  0.5643  0.7633  2.6326
 3148TIP3    H233640   3.435   6.582  10.138 -0.0185 -0.2600 -0.1735
 3149TIP3   OH233641   2.582   2.599  10.859 -0.5957 -0.1233 -0.2005
 3149TIP3    H133642   2.571   2.567  10.770 -0.9517 -1.7680  0.4057
 3149TIP3    H233643   2.654   2.663  10.853 -0.4726 -0.3725 -1.6144
 3150TIP3   OH233644   1.315   6.117  12.528  0.3175  0.0685 -0.2794
 3150TIP3    H133645   1.330   6.024  12.515  1.4728  0.4775 -2.3508
 3150TIP3    H233646   1.342   6.133  12.619  0.9402 -1.4648 -0.1667
 3151TIP3   OH233647   5.106   0.358  10.151  0.4447 -0.0838 -0.1029
 3151TIP3    H133648   5.165   0.398  10.087  0.6392 -1.1675 -0.6282
 3151TIP3    H233649   5.033   0.418  10.158 -0.4033 -0.7138 -2.6187
 3152TIP3   OH233650   4.138   1.425  11.295 -0.3784 -0.1486 -0.5965
 3152TIP3    H133651   4.189   1.391  11.221 -0.3126  1.2754 -1.2426
 3152TIP3    H233652   4.077   1.488  11.255 -1.7920 -0.8896  0.3204
 3153TIP3   OH233653   5.193   3.105  11.360  0.1892  0.0074  0.0022
 3153TIP3    H133654   5.124   3.171  11.371  0.1412  0.0981 -0.8038
 3153TIP3    H233655   5.184   3.049  11.437 -1.9569 -1.0580 -0.9357
 3154TIP3   OH233656   0.497   2.603  10.528 -0.3824 -0.1628 -0.3610
 3154TIP3    H133657   0.493   2.520  10.481 -0.0809 -0.6398  0.4250
 3154TIP3    H233658   0.572   2.648  10.491  0.5461 -1.0216  0.3998
 3155TIP3   OH233659   6.329   2.170  13.118  0.2358 -0.0254 -0.5323
 3155TIP3    H133660   6.291   2.254  13.093 -1.5482 -0.2246  1.1944
 3155TIP3    H233661   6.270   2.105  13.080  0.7964 -0.4618 -0.6728
 3156TIP3   OH233662   6.621   3.826  12.003  0.0552  0.0996 -0.3851
 3156TIP3    H133663   6.626   3.905  11.949  0.7504 -1.3097 -2.5161
 3156TIP3    H233664   6.538   3.834  12.050 -0.0691  1.9053 -0.8460
 3157TIP3   OH233665   3.696   4.731  12.999  0.4172  0.5746  0.2116
 3157TIP3    H133666   3.660   4.820  12.992  1.7022  1.0703 -0.3023
 3157TIP3    H233667   3.746   4.719  12.919  0.1138 -0.6975  0.1998
 3158TIP3   OH233668   0.277   1.573  12.404 -0.0026  0.1504 -0.4401
 3158TIP3    H133669   0.302   1.488  12.441 -4.8923 -2.4523 -2.2147
 3158TIP3    H233670   0.222   1.613  12.472 -1.9184 -0.6006 -1.5017
 3159TIP3   OH233671   5.058   6.277  10.844 -0.3851  0.4218  0.3425
 3159TIP3    H133672   5.150   6.291  10.823 -0.2997 -0.8314 -0.2180
 3159TIP3    H233673   5.058   6.204  10.906 -1.0948 -1.2094 -1.4753
 3160TIP3   OH233674   1.848   6.817  10.582 -0.3438  0.0161 -0.0760
 3160TIP3    H133675   1.845   6.721  10.583 -2.3019  0.0372 -0.1664
 3160TIP3    H233676   1.772   6.844  10.633  0.5626  1.5515  0.5529
 3161TIP3   OH233677   6.719   2.987  10.724  0.2907  0.0268  0.4805
 3161TIP3    H133678   6.805   2.969  10.762  1.5099 -0.4373 -2.2520
 3161TIP3    H233679   6.730   2.971  10.631 -2.6266  0.5959 -0.0676
 3162TIP3   OH233680   2.398   2.250  11.264  0.7561  0.2248 -0.0043
 3162TIP3    H133681   2.432   2.292  11.185  1.5499 -0.7071 -0.1801
 3162TIP3    H233682   2.471   2.255  11.326 -0.3261  2.2364  1.2160
 3163TIP3   OH233683   6.441   2.981   9.323  0.5622  0.2742  0.2632
 3163TIP3    H133684   6.464   2.920   9.253 -0.0334  0.5258 -0.1622
 3163TIP3    H233685   6.505   3.052   9.315 -0.6329  1.2659 -1.2942
 3164TIP3   OH233686   0.671   4.375  10.144  0.1949  0.0532  0.5029
 3164TIP3    H133687   0.613   4.318  10.194 -0.6652  0.6745  0.2460
 3164TIP3    H233688   0.758   4.358  10.180  0.0330 -1.7000  0.1602
 3165TIP3   OH233689   4.823   2.740  10.900 -0.2993 -0.1719  0.4525
 3165TIP3    H133690   4.891   2.688  10.944 -0.8019  0.1452  1.6594
 3165TIP3    H233691   4.809   2.814  10.959  0.1258  1.1620 -1.0293
 3166TIP3   OH233692   3.942   2.529  11.161  0.3567 -0.1846 -0.3474
 3166TIP3    H133693   3.993   2.609  11.168  1.3365 -0.8699  0.8541
 3166TIP3    H233694   4.002   2.465  11.124  0.8831 -1.3219  2.2052
 3167TIP3   OH233695   3.162   0.180   9.592  0.2793 -0.2800 -0.7513
 3167TIP3    H133696   3.163   0.250   9.526  0.2377  0.5517  0.0985
 3167TIP3    H233697   3.253   0.151   9.596  0.6427  0.9142  0.0854
 3168TIP3   OH233698   2.920   3.934  11.031 -0.3561 -0.0346  0.0638
 3168TIP3    H133699   2.855   4.001  11.008 -2.1916 -1.4071  1.0433
 3168TIP3    H233700   2.877   3.880  11.097  2.0348 -0.6587  1.2069
 3169TIP3   OH233701   2.863   3.026  11.444 -0.2455  0.3625  0.1259
 3169TIP3    H133702   2.805   3.051  11.516  0.2060 -1.2269  1.0872
 3169TIP3    H233703   2.812   3.047  11.365 -2.0261 -0.6500  0.9308
 3170TIP3   OH233704   6.821   3.822  12.191 -0.6467  0.9668 -0.5752
 3170TIP3    H133705   6.729   3.813  12.164 -0.7139 -1.3206  0.2370
 3170TIP3    H233706   6.822   3.795  12.282  1.3019 -2.5092 -1.4633
 3171TIP3   OH233707   0.849   0.550  12.948  0.1631  1.1904 -0.4677
 3171TIP3    H133708   0.839   0.498  13.028  0.4899  0.8099 -0.6697
 3171TIP3    H233709   0.794   0.506  12.883  0.0911  1.3560 -0.5193
 3172TIP3   OH233710   0.234   1.403  13.268 -0.1827  0.3331  0.0302
 3172TIP3    H133711   0.197   1.332  13.216  0.3115  0.4567 -0.4955
 3172TIP3    H233712   0.159   1.441  13.313 -0.3340 -1.1566  1.1175
 3173TIP3   OH233713   2.398   5.395  10.357  0.5876 -0.0115  0.2493
 3173TIP3    H133714   2.335   5.401  10.429  0.3373  0.4937 -0.0058
 3173TIP3    H233715   2.444   5.479  10.357  0.6109 -0.0211 -0.1542
 3174TIP3   OH233716   4.090   4.335  13.228  0.4893 -1.1028  0.6597
 3174TIP3    H133717   4.037   4.415  13.220  1.1898 -0.3183  3.0078
 3174TIP3    H233718   4.026   4.267  13.248 -0.0872 -1.1394 -1.0990
 3175TIP3   OH233719   6.199   2.397  10.234  0.0216 -0.0154 -0.1100
 3175TIP3    H133720   6.169   2.487  10.238 -0.3002 -0.1378  0.3196
 3175TIP3    H233721   6.124   2.345  10.263 -0.4569 -0.5702 -2.1938
 3176TIP3   OH233722   4.918   3.546  12.421 -0.8643  0.0925 -0.2555
 3176TIP3    H133723   4.905   3.456  12.449 -2.1687  0.5682  0.7711
 3176TIP3    H233724   4.887   3.549  12.331 -2.2621 -0.1702  0.1987
 3177TIP3   OH233725   6.207   0.706  10.320  1.0493 -0.3640  0.0976
 3177TIP3    H133726   6.137   0.676  10.262  1.4798 -0.6325 -0.2900
 3177TIP3    H233727   6.172   0.691  10.408  0.2609  0.3529 -0.0755
 3178TIP3   OH233728   4.700   3.240  12.463 -0.1831 -0.2297 -0.0973
 3178TIP3    H133729   4.733   3.323  12.499 -0.2738 -1.0706  2.0742
 3178TIP3    H233730   4.773   3.179  12.476 -0.3069 -0.6283 -1.2130
 3179TIP3   OH233731   3.780   5.940  12.187  0.0835  0.2424 -0.0385
 3179TIP3    H133732   3.783   5.847  12.209  0.5881 -0.1746 -1.7497
 3179TIP3    H233733   3.811   5.984  12.266  1.2360 -1.1216  0.3027
 3180TIP3   OH233734   1.972   0.666  13.118  0.0821 -0.3790  0.3846
 3180TIP3    H133735   2.004   0.745  13.160  0.9165 -0.6146  0.2037
 3180TIP3    H233736   1.989   0.679  13.024  1.5381 -1.3530  0.4907
 3181TIP3   OH233737   3.769   3.499  11.793 -0.5786  0.4159 -0.6677
 3181TIP3    H133738   3.684   3.485  11.835 -0.6548  0.4645 -0.8017
 3181TIP3    H233739   3.792   3.415  11.755 -0.4625  0.3466 -0.4444
 3182TIP3   OH233740   2.123   3.760  11.024  0.0512 -0.2358  0.2344
 3182TIP3    H133741   2.178   3.687  10.997  0.2403 -0.1476  0.3742
 3182TIP3    H233742   2.074   3.727  11.099  0.3052 -0.1487  0.4414
 3183TIP3   OH233743   2.912   3.065  10.850 -0.0781  0.1767  0.4882
 3183TIP3    H133744   2.963   2.988  10.823  0.7307  1.2018 -1.0850
 3183TIP3    H233745   2.948   3.087  10.936  0.7858 -0.2806  0.2658
 3184TIP3   OH233746   2.165   4.151  11.837 -0.0786 -0.2404  0.1932
 3184TIP3    H133747   2.157   4.199  11.754  0.0460  1.2274  1.0038
 3184TIP3    H233748   2.107   4.198  11.897 -0.2228 -1.3346  0.9265
 3185TIP3   OH233749   3.889   6.431  11.873 -0.2161  0.2188  0.0718
 3185TIP3    H133750   3.872   6.474  11.789 -2.1327 -0.0620  0.2676
 3185TIP3    H233751   3.808   6.383  11.892  0.2853  0.0357  1.9420
 3186TIP3   OH233752   3.677   1.718  12.037 -0.1361  0.2088  0.0328
 3186TIP3    H133753   3.735   1.647  12.065 -0.7976 -0.3596 -0.0138
 3186TIP3    H233754   3.706   1.738  11.948  0.8223  0.8146  0.4665
 3187TIP3   OH233755   3.209   4.505  10.959 -0.5892  0.1387  0.0256
 3187TIP3    H133756   3.276   4.466  10.904  0.2003  0.8700  0.4355
 3187TIP3    H233757   3.205   4.597  10.931 -2.3602 -0.1811 -0.8863
 3188TIP3   OH233758   5.913   1.658  11.699 -0.4668  0.4106  0.0806
 3188TIP3    H133759   5.959   1.633  11.778 -0.7342  0.6611  0.3156
 3188TIP3    H233760   5.925   1.584  11.640  1.0571  0.8470 -0.2263
 3189TIP3   OH233761   6.214   1.369  12.634 -0.7533 -0.2096  0.2184
 3189TIP3    H133762   6.248   1.434  12.695 -0.4781  0.5378 -0.7131
 3189TIP3    H233763   6.180   1.299  12.691 -0.0703  0.2364  1.2098
 3190TIP3   OH233764   0.026   4.595  11.061  0.1833 -0.1035 -0.0564
 3190TIP3    H133765   0.111   4.607  11.018  0.0010 -1.0726 -0.7206
 3190TIP3    H233766  -0.004   4.684  11.082  1.5382  0.2340  0.5641
 3191TIP3   OH233767   2.358   5.390  11.002 -0.1037 -0.3571 -0.0437
 3191TIP3    H133768   2.318   5.313  10.962  0.3945 -1.1859  1.0124
 3191TIP3    H233769   2.347   5.459  10.937  1.2436 -1.8067 -1.9378
 3192TIP3   OH233770   6.031   0.270  11.858  0.1499 -0.0156  0.8436
 3192TIP3    H133771   6.097   0.254  11.926  1.3069 -0.4728 -0.3365
 3192TIP3    H233772   6.082   0.279  11.777 -1.2791 -1.1592 -0.2407
 3193TIP3   OH233773   0.079   5.629  10.567 -0.0246  0.1229  0.2273
 3193TIP3    H133774   0.000   5.655  10.614 -1.3538  1.2911 -2.4268
 3193TIP3    H233775   0.101   5.705  10.514  0.8650 -1.3571 -1.6363
 3194TIP3   OH233776   5.279   3.843  10.178  0.2535  0.2345  0.4499
 3194TIP3    H133777   5.293   3.924  10.226 -1.2418  0.6247  0.2826
 3194TIP3    H233778   5.223   3.868  10.104 -1.8697 -1.2268  1.4543
 3195TIP3   OH233779   3.371   6.222  11.537 -0.2178 -0.3594 -0.5762
 3195TIP3    H133780   3.284   6.184  11.543  0.3127 -1.7460 -1.0684
 3195TIP3    H233781   3.423   6.174  11.603  0.5005 -0.5768 -1.2810
 3196TIP3   OH233782   2.222   1.418  11.207 -0.2023  0.3471  0.1012
 3196TIP3    H133783   2.209   1.324  11.198  2.0541  0.1157 -1.8323
 3196TIP3    H233784   2.178   1.457  11.132  0.5253  0.6200 -0.1966
 3197TIP3   OH233785   5.135   3.546  10.148  0.2924  0.3260  0.1485
 3197TIP3    H133786   5.113   3.627  10.193 -1.7261  0.8476 -1.5984
 3197TIP3    H233787   5.225   3.559  10.118  0.3593  1.4702  0.7933
 3198TIP3   OH233788   0.106   5.996  11.296  0.1376 -0.1700 -0.4762
 3198TIP3    H133789   0.163   6.026  11.366  0.8765 -3.1308  0.3419
 3198TIP3    H233790   0.165   5.959  11.231 -0.7184 -1.7281 -0.4214
 3199TIP3   OH233791   2.154   0.857  10.694  0.2970 -0.3773 -0.3166
 3199TIP3    H133792   2.141   0.825  10.784  1.2615 -2.4246 -0.8518
 3199TIP3    H233793   2.220   0.925  10.703  0.0321 -0.2195  0.5884
 3200TIP3   OH233794   3.663   2.645   9.847  0.0595 -0.0422 -0.1910
 3200TIP3    H133795   3.741   2.642   9.791  0.8456  1.9974  0.7233
 3200TIP3    H233796   3.658   2.557   9.885  2.1122 -0.1548 -0.0387
 3201TIP3   OH233797   4.613   0.558  12.157 -0.3464 -0.0311 -0.1866
 3201TIP3    H133798   4.544   0.536  12.220 -0.6402 -0.4922 -0.6650
 3201TIP3    H233799   4.639   0.474  12.119  1.9163 -0.1575  1.4420
 3202TIP3   OH233800   0.500   2.822  10.261  0.5100  0.4715  0.1492
 3202TIP3    H133801   0.538   2.735  10.252  0.2694  0.2481  1.1681
 3202TIP3    H233802   0.576   2.880  10.268  0.6818  0.1841  0.7703
 3203TIP3   OH233803   5.538   2.503  11.566 -0.0729  0.6141 -0.1782
 3203TIP3    H133804   5.617   2.450  11.555 -0.6932 -0.2824 -0.4307
 3203TIP3    H233805   5.570   2.587  11.598  1.0450  0.4990 -0.9437
 3204TIP3   OH233806   5.838   1.573  10.732  0.2741 -0.2330  0.1783
 3204TIP3    H133807   5.757   1.546  10.689 -0.0525 -1.9995  1.7619
 3204TIP3    H233808   5.812   1.590  10.823  1.7385 -1.2797  0.8183
 3205TIP3   OH233809   0.779   6.410  11.498  0.2087 -0.3840  0.1971
 3205TIP3    H133810   0.850   6.453  11.544 -0.7523  1.1576  0.3253
 3205TIP3    H233811   0.712   6.395  11.565  0.4988 -2.1237  0.1513
 3206TIP3   OH233812   3.074   0.898  11.889 -0.0362 -0.0115 -0.6084
 3206TIP3    H133813   3.052   0.991  11.898 -0.4202  0.0576 -2.0796
 3206TIP3    H233814   2.994   0.858  11.855 -1.0349 -1.5290  3.0201
 3207TIP3   OH233815   0.194   0.873  12.154  0.5135 -0.2960 -0.1073
 3207TIP3    H133816   0.258   0.806  12.177  1.6928  0.5066 -0.9181
 3207TIP3    H233817   0.224   0.952  12.199 -0.7623 -0.2396  0.6963
 3208TIP3   OH233818   4.404   5.602  10.509  0.6090  0.5613 -0.7914
 3208TIP3    H133819   4.372   5.586  10.597  0.5433  0.3337 -0.8565
 3208TIP3    H233820   4.380   5.524  10.460 -0.7479  1.3217 -1.3963
 3209TIP3   OH233821   4.511   3.177  10.338 -0.1786 -0.2958  0.4212
 3209TIP3    H133822   4.439   3.226  10.299  1.7287  2.3821 -0.0324
 3209TIP3    H233823   4.489   3.171  10.431 -0.6415  1.1592  0.4241
 3210TIP3   OH233824   6.349   3.793  13.118 -0.3634 -0.7341  0.4166
 3210TIP3    H133825   6.282   3.727  13.139 -0.3240 -1.3212 -1.1624
 3210TIP3    H233826   6.311   3.843  13.046  0.9968 -1.3061 -0.7435
 3211TIP3   OH233827   1.741   0.771   8.995  0.2815 -0.2628  0.1240
 3211TIP3    H133828   1.665   0.772   9.053 -0.5215 -2.1689 -0.7799
 3211TIP3    H233829   1.794   0.698   9.027  0.0128 -1.1022 -1.2381
 3212TIP3   OH233830   6.429   6.228  10.353  0.1657  0.0239  0.5243
 3212TIP3    H133831   6.510   6.192  10.317 -0.1271 -0.1405  0.0211
 3212TIP3    H233832   6.458   6.285  10.424  0.6981 -0.3702  0.6367
 3213TIP3   OH233833   0.813   2.467  10.503  0.1096  0.0813 -0.1782
 3213TIP3    H133834   0.759   2.460  10.424 -1.5325 -2.8048  1.0632
 3213TIP3    H233835   0.898   2.432  10.478  0.4070  1.4954 -1.2631
 3214TIP3   OH233836   6.411   4.101  10.178  0.3282  0.2282  0.0143
 3214TIP3    H133837   6.484   4.157  10.204  1.3728 -0.8005 -0.5729
 3214TIP3    H233838   6.395   4.123  10.086  0.0642  0.2852  0.0744
 3215TIP3   OH233839   1.631   5.368  11.969  0.1589  0.1079  0.3941
 3215TIP3    H133840   1.575   5.395  11.896 -0.7745  1.4951  1.5577
 3215TIP3    H233841   1.656   5.450  12.011  0.8718 -0.6485  1.5000
 3216TIP3   OH233842   3.282   2.045  10.382 -0.0533 -0.5664  0.8877
 3216TIP3    H133843   3.257   1.999  10.302 -0.9575  2.3780 -0.6716
 3216TIP3    H233844   3.374   2.021  10.395 -0.0864 -1.6850 -0.6470
 3217TIP3   OH233845   1.521   6.276  10.614 -0.1964  0.3307  0.0896
 3217TIP3    H133846   1.515   6.370  10.631 -0.3213  0.3257  0.0733
 3217TIP3    H233847   1.464   6.262  10.539 -3.1195 -0.3346  2.2499
 3218TIP3   OH233848   1.301   1.978  12.301 -0.7961  0.6102 -0.5723
 3218TIP3    H133849   1.380   1.988  12.353 -1.0223  2.8269 -0.5662
 3218TIP3    H233850   1.313   2.039  12.227 -2.3875  0.8490 -0.6717
 3219TIP3   OH233851   5.804   4.271  11.676 -0.5819  0.5751  0.2047
 3219TIP3    H133852   5.840   4.186  11.651  0.2647  0.6813  1.0048
 3219TIP3    H233853   5.830   4.331  11.606 -1.7303  0.0681 -0.6889
 3220TIP3   OH233854   2.799   3.661  13.010  0.2563 -0.0906  0.1617
 3220TIP3    H133855   2.751   3.584  13.039 -2.8071  1.7023  0.2948
 3220TIP3    H233856   2.759   3.685  12.927  0.7470  1.6521  0.3801
 3221TIP3   OH233857   5.606   1.497  10.620  0.0244 -0.4011  0.5555
 3221TIP3    H133858   5.517   1.512  10.652 -0.3051  0.1644 -0.5684
 3221TIP3    H233859   5.600   1.419  10.566  0.3130 -0.6209  0.8361
 3222TIP3   OH233860   4.051   5.443  12.790  0.0016 -0.8789 -0.1219
 3222TIP3    H133861   4.106   5.464  12.714  0.2199 -2.7342 -0.5311
 3222TIP3    H233862   4.030   5.528  12.829  1.2524  0.0096 -1.2941
 3223TIP3   OH233863   2.960   5.045  10.980  0.3143  0.1197  0.0965
 3223TIP3    H133864   2.908   5.096  10.918  1.1823 -0.3508 -1.0567
 3223TIP3    H233865   2.910   4.964  10.991  0.1128  0.2416  0.0967
 3224TIP3   OH233866   5.605   4.169  12.500 -0.3668 -0.2771 -0.1057
 3224TIP3    H133867   5.680   4.229  12.504 -0.4049 -0.1997 -0.5127
 3224TIP3    H233868   5.644   4.082  12.500 -0.3614 -0.3257  2.1673
 3225TIP3   OH233869   1.418   5.810  12.321 -0.1309 -0.0743 -0.7609
 3225TIP3    H133870   1.431   5.874  12.250 -0.5620 -0.3719 -1.1098
 3225TIP3    H233871   1.483   5.835  12.387 -1.4014  1.7759 -0.1381
 3226TIP3   OH233872   3.522   2.217  11.263 -0.2451  0.5509  0.4764
 3226TIP3    H133873   3.608   2.220  11.305 -0.5851 -0.6249  1.3278
 3226TIP3    H233874   3.491   2.307  11.265  0.0249  0.6504  2.2498
 3227TIP3   OH233875   0.430   4.294   9.910 -0.7150 -0.1506  0.2926
 3227TIP3    H133876   0.335   4.291   9.923 -0.3929  0.0312  3.6094
 3227TIP3    H233877   0.451   4.387   9.911 -0.5281 -0.1474 -1.2775
 3228TIP3   OH233878   1.638   6.235  12.532 -0.0800  0.0284 -0.5919
 3228TIP3    H133879   1.576   6.246  12.460 -0.2874 -0.9175 -0.5808
 3228TIP3    H233880   1.607   6.157  12.578 -0.3658  1.0182  0.9564
 3229TIP3   OH233881   0.260   5.632  11.260 -0.0149 -0.0549  0.1282
 3229TIP3    H133882   0.264   5.724  11.236  0.9196 -0.3750 -1.0642
 3229TIP3    H233883   0.251   5.586  11.177 -0.2792 -1.0571  0.6924
 3230TIP3   OH233884   4.894   2.393  12.882 -0.0352 -0.1438  0.4361
 3230TIP3    H133885   4.889   2.337  12.804  0.1534  1.8230 -1.0687
 3230TIP3    H233886   4.807   2.385  12.922 -0.3699 -0.6694 -0.3610
 3231TIP3   OH233887   3.146   0.869  10.202 -0.5922  0.0463  0.0748
 3231TIP3    H133888   3.157   0.921  10.123  0.0591  0.6841  0.5693
 3231TIP3    H233889   3.091   0.795  10.175 -2.6892  1.6628 -0.3490
 3232TIP3   OH233890   4.433   3.933  10.893  0.4943 -0.3934  0.5929
 3232TIP3    H133891   4.511   3.972  10.932  1.3647  0.4349 -1.7730
 3232TIP3    H233892   4.376   4.007  10.873  0.4088 -0.7109 -0.3743
 3233TIP3   OH233893   4.540   5.143  11.611  0.3538 -0.1633  0.3842
 3233TIP3    H133894   4.517   5.051  11.622  0.2821 -0.5429 -2.2745
 3233TIP3    H233895   4.478   5.190  11.666 -1.4306 -1.5909 -0.3055
 3234TIP3   OH233896   0.881   3.126  10.534 -0.4370  0.1072 -0.2410
 3234TIP3    H133897   0.817   3.173  10.587  0.2773 -0.0372  0.7630
 3234TIP3    H233898   0.949   3.100  10.595 -0.3030 -1.3377 -0.9566
 3235TIP3   OH233899   3.068   2.260  11.723  0.5854 -0.5971 -0.0620
 3235TIP3    H133900   3.071   2.337  11.780 -0.0084 -0.5951 -0.0340
 3235TIP3    H233901   3.148   2.265  11.671 -1.0555  1.9817 -2.6169
 3236TIP3   OH233902   1.307   0.423  12.318  0.1876  0.2624  0.4773
 3236TIP3    H133903   1.270   0.511  12.322  0.2157  0.2640  0.6737
 3236TIP3    H233904   1.400   0.437  12.297  0.0614  0.2542 -0.1313
 3237TIP3   OH233905   4.093   1.398  10.550 -0.0018 -0.2495 -0.5262
 3237TIP3    H133906   4.061   1.417  10.462  1.0027 -0.5014 -0.9573
 3237TIP3    H233907   4.117   1.484  10.585  0.3438 -0.2286 -0.8042
 3238TIP3   OH233908   4.396   0.574  11.703 -0.0950  0.4233 -0.2868
 3238TIP3    H133909   4.414   0.629  11.627 -0.2130  0.2308 -0.4552
 3238TIP3    H233910   4.419   0.629  11.778 -0.4793  0.8002 -0.4420
 3239TIP3   OH233911   3.040   6.743  11.123 -0.2321 -0.4315 -0.4006
 3239TIP3    H133912   3.065   6.758  11.214 -1.4727 -1.8491  0.2121
 3239TIP3    H233913   3.003   6.826  11.094  1.4615  0.4686 -0.0837
 3240TIP3   OH233914   5.473   2.883  11.866  0.5623 -0.6696  0.7835
 3240TIP3    H133915   5.504   2.973  11.853  1.1412 -0.7400  1.5969
 3240TIP3    H233916   5.529   2.830  11.809 -0.2772 -0.4507 -0.2774
 3241TIP3   OH233917   4.341   5.804  11.099  0.6541 -0.7797 -0.0581
 3241TIP3    H133918   4.418   5.818  11.043  1.5351 -1.9670  0.8060
 3241TIP3    H233919   4.272   5.777  11.038  0.4618  1.5927 -1.0339
 3242TIP3   OH233920   3.674   0.840  10.925  0.7749  0.2628  0.5924
 3242TIP3    H133921   3.765   0.809  10.919  0.2171 -1.2874 -0.3328
 3242TIP3    H233922   3.622   0.773  10.881 -0.9640  0.5390  2.0719
 3243TIP3   OH233923   5.731   5.929  11.198 -0.4472  0.4205  0.0487
 3243TIP3    H133924   5.669   5.882  11.142  0.8548  1.3898 -2.4070
 3243TIP3    H233925   5.755   6.006  11.146  0.7041  1.5300  2.1086
 3244TIP3   OH233926   5.421   2.368  12.640  0.3159  0.4645  0.4295
 3244TIP3    H133927   5.414   2.404  12.728 -1.8286  3.0732 -0.6835
 3244TIP3    H233928   5.514   2.375  12.618  0.3947  2.9146  1.2907
 3245TIP3   OH233929   2.747   6.453  10.703  0.2398  0.1613  0.5580
 3245TIP3    H133930   2.729   6.521  10.638  1.5208  0.4233  0.4445
 3245TIP3    H233931   2.663   6.412  10.720 -0.2237  0.5378 -0.7716
 3246TIP3   OH233932   2.713   1.023  13.004  0.0300 -0.3160  0.2123
 3246TIP3    H133933   2.698   0.974  12.924  0.4300  0.3004 -0.2530
 3246TIP3    H233934   2.627   1.060  13.026  0.0029 -0.1308 -0.1829
 3247TIP3   OH233935   0.934   3.505  12.754 -0.0074  0.5446 -0.0122
 3247TIP3    H133936   0.852   3.471  12.717  0.4390  0.2706 -0.7769
 3247TIP3    H233937   0.999   3.488  12.686  0.3421  2.4155 -0.1790
 3248TIP3   OH233938   5.514   5.497  12.010 -0.0347  0.5034  0.7353
 3248TIP3    H133939   5.586   5.446  11.972 -0.9207 -1.0769  1.0675
 3248TIP3    H233940   5.483   5.552  11.938  2.0836  1.9577  0.8364
 3249TIP3   OH233941   1.650   2.081  11.537  0.6926 -0.3676 -0.1158
 3249TIP3    H133942   1.652   2.119  11.449  0.1323 -0.8490 -0.3393
 3249TIP3    H233943   1.661   1.987  11.523 -0.3968 -0.5624  0.2470
 3250TIP3   OH233944   3.991   5.985   9.980  0.2566  0.3463  0.2997
 3250TIP3    H133945   3.986   6.031  10.063 -0.4935 -0.0311  0.4811
 3250TIP3    H233946   4.083   5.963   9.969  0.3217  0.1686  1.1635
 3251TIP3   OH233947   6.600   2.329  12.470 -0.5822  0.2546 -0.0010
 3251TIP3    H133948   6.616   2.419  12.442  0.8513 -0.4056 -1.5030
 3251TIP3    H233949   6.687   2.292  12.481 -1.1406 -0.5943  1.9453
 3252TIP3   OH233950   1.349   0.114  12.757  0.0449 -0.0870 -0.8494
 3252TIP3    H133951   1.332   0.025  12.726 -1.2595 -0.2438  0.2389
 3252TIP3    H233952   1.275   0.165  12.724 -1.3669 -0.2452  1.7633
 3253TIP3   OH233953   4.411   6.099  11.911 -0.1708 -0.0663 -0.1320
 3253TIP3    H133954   4.324   6.066  11.936 -0.0556 -1.7893 -1.7576
 3253TIP3    H233955   4.405   6.111  11.816  1.3683 -0.2456 -0.2678
 3254TIP3   OH233956   4.570   2.545  10.634  0.3990  0.5746 -0.5538
 3254TIP3    H133957   4.592   2.632  10.602 -2.7652  1.5074 -0.4648
 3254TIP3    H233958   4.512   2.508  10.568 -0.5543 -0.3287  0.7256
 3255TIP3   OH233959   3.870   4.704  12.782  0.1788  0.1480 -0.6570
 3255TIP3    H133960   3.782   4.698  12.746 -0.0970 -1.2502  0.2006
 3255TIP3    H233961   3.925   4.656  12.720 -0.0424 -0.8938 -0.0725
 3256TIP3   OH233962   0.447   4.787  11.521  0.2643 -0.2451 -0.2593
 3256TIP3    H133963   0.507   4.862  11.526 -0.2701  0.1211  2.2466
 3256TIP3    H233964   0.504   4.711  11.511  0.7874  0.4425 -3.7333
 3257TIP3   OH233965   3.332   2.650  11.065 -0.3556  0.2959 -0.2396
 3257TIP3    H133966   3.345   2.705  11.142 -1.3571 -1.9648  1.6606
 3257TIP3    H233967   3.237   2.640  11.057 -0.2357 -0.2492 -1.2304
 3258TIP3   OH233968   6.782   6.730   9.836  0.0986  0.2071 -0.3083
 3258TIP3    H133969   6.716   6.736   9.766  0.3096  0.3631 -0.4952
 3258TIP3    H233970   6.824   6.815   9.837 -0.7037  0.6110  0.8214
 3259TIP3   OH233971   2.831   2.720   9.910  0.5874  0.3254 -0.0835
 3259TIP3    H133972   2.788   2.803   9.934  2.1040  0.9143  0.7270
 3259TIP3    H233973   2.915   2.747   9.874  0.4477 -0.8239 -1.3338
 3260TIP3   OH233974   0.763   1.704  12.968 -0.4027 -0.7899  0.1453
 3260TIP3    H133975   0.790   1.734  13.055 -1.1012 -0.0813  0.1395
 3260TIP3    H233976   0.794   1.614  12.963 -0.4011 -0.8649  1.1601
 3261TIP3   OH233977   4.806   0.537  11.835 -0.1170 -0.0834  0.0984
 3261TIP3    H133978   4.815   0.550  11.740  4.0992 -1.3038  0.1048
 3261TIP3    H233979   4.828   0.622  11.873  0.3063 -0.1218 -0.0468
 3262TIP3   OH233980   4.444   1.351  12.275  0.3700 -0.3865 -0.1230
 3262TIP3    H133981   4.513   1.327  12.213  0.1940  0.0531 -0.4887
 3262TIP3    H233982   4.481   1.422  12.327  0.0410  0.1560 -0.6155
 3263TIP3   OH233983   2.689   2.851  12.636 -0.1091 -0.8906 -0.0654
 3263TIP3    H133984   2.749   2.872  12.708  2.0530 -1.0725 -1.7328
 3263TIP3    H233985   2.621   2.918  12.641  2.4565  1.9882 -0.5824
 3264TIP3   OH233986   5.023   3.764  10.279  0.1225 -0.3664 -0.1507
 3264TIP3    H133987   4.973   3.755  10.360  0.6858 -2.5144  0.0129
 3264TIP3    H233988   4.977   3.833  10.230 -0.1915  1.0365  1.9706
 3265TIP3   OH233989   6.018   5.022  12.467 -0.2202  0.0437 -0.3350
 3265TIP3    H133990   5.996   5.112  12.445  0.8715  0.1768 -0.9217
 3265TIP3    H233991   6.045   4.982  12.385  1.5662 -0.1466  0.3052
 3266TIP3   OH233992   6.262   0.329  11.301  0.2935 -0.1581  0.3969
 3266TIP3    H133993   6.194   0.274  11.263  1.4472 -1.0315 -0.4833
 3266TIP3    H233994   6.269   0.403  11.241 -0.6408  0.5216  1.1010
 3267TIP3   OH233995   5.810   1.065  12.711 -0.1162 -0.4834  0.5967
 3267TIP3    H133996   5.727   1.018  12.721 -1.6034  0.9403 -3.0620
 3267TIP3    H233997   5.872   0.999  12.682 -0.2727 -1.3251  2.0786
 3268TIP3   OH233998   3.751   0.174  11.809  0.5612 -0.1075 -0.2751
 3268TIP3    H133999   3.799   0.222  11.741  0.5438 -2.0180 -1.7406
 3268TIP3    H234000   3.813   0.168  11.882  2.0906 -1.3180 -1.6013
 3269TIP3   OH234001   6.453   6.405  12.094 -0.0611 -0.2779 -0.2170
 3269TIP3    H134002   6.420   6.321  12.061 -2.4262 -0.1861  1.6236
 3269TIP3    H234003   6.407   6.471  12.042 -0.4298 -0.1283  0.2998
 3270TIP3   OH234004   1.446   5.943  10.968  0.1919  0.2866  0.0770
 3270TIP3    H134005   1.393   6.023  10.965 -0.9692 -0.4880 -1.2914
 3270TIP3    H234006   1.463   5.923  10.876  4.7668  1.6558  0.4108
 3271TIP3   OH234007   6.722   0.896  11.207  0.1193  0.0544 -0.7350
 3271TIP3    H134008   6.816   0.906  11.198  0.1905 -1.7139 -2.3047
 3271TIP3    H234009   6.706   0.802  11.203 -1.4934  0.0577  2.2675
 3272TIP3   OH234010   6.251   0.547  12.340  0.4623 -0.3078  0.5400
 3272TIP3    H134011   6.252   0.498  12.257  0.4891  0.3646  0.1367
 3272TIP3    H234012   6.318   0.615  12.328 -0.5351  0.7115  0.5463
 3273TIP3   OH234013   1.946   2.729  11.957  0.3480  0.1086  0.0963
 3273TIP3    H134014   1.944   2.704  12.049  0.0612  0.3186  0.1499
 3273TIP3    H234015   2.025   2.782  11.947  0.2681  0.2591  0.2677
 3274TIP3   OH234016   1.114   4.371  10.389 -0.4320 -0.2646 -0.5227
 3274TIP3    H134017   1.026   4.373  10.351 -1.1139  0.0952  1.0326
 3274TIP3    H234018   1.170   4.343  10.316 -1.5166  1.4362 -2.0919
 3275TIP3   OH234019   0.605   4.847  12.336  0.3054 -0.1630 -0.2110
 3275TIP3    H134020   0.527   4.793  12.339  0.8047 -1.1693 -2.7102
 3275TIP3    H234021   0.616   4.879  12.426 -0.9232 -2.8822  1.0079
 3276TIP3   OH234022   0.830   5.436  12.628 -0.1435 -1.0912 -0.4154
 3276TIP3    H134023   0.833   5.359  12.571 -0.1370 -0.8414 -0.7572
 3276TIP3    H234024   0.782   5.407  12.706 -0.2035 -1.4197 -0.5738
 3277TIP3   OH234025   3.676   5.033  11.183 -0.5080  0.5659 -0.3720
 3277TIP3    H134026   3.585   5.063  11.178 -0.6316  0.0620 -1.7998
 3277TIP3    H234027   3.722   5.086  11.118 -0.1828 -0.4403 -0.9854
 3278TIP3   OH234028   2.751   1.333  10.554 -0.4533  0.0528  0.7028
 3278TIP3    H134029   2.661   1.299  10.558 -0.1348 -0.9407 -0.1918
 3278TIP3    H234030   2.805   1.262  10.588  0.0015  0.6567  1.2640
 3279TIP3   OH234031   3.303   1.221  12.783 -0.9477  0.7032  0.0038
 3279TIP3    H134032   3.290   1.184  12.695  0.9596 -1.0016  0.3435
 3279TIP3    H234033   3.288   1.148  12.842  0.1229  1.1963  0.9242
 3280TIP3   OH234034   4.610   1.049  11.079  0.5216 -0.1754  0.5242
 3280TIP3    H134035   4.652   1.044  10.993 -0.3275  0.4851  0.0610
 3280TIP3    H234036   4.683   1.059  11.140  1.0841  0.2002 -0.1950
 3281TIP3   OH234037   3.545   4.979  12.945 -0.2153 -0.5682 -0.1443
 3281TIP3    H134038   3.457   4.978  12.908 -0.7440  0.5577  1.0274
 3281TIP3    H234039   3.603   4.972  12.869 -1.2991 -1.7454 -0.8937
 3282TIP3   OH234040   0.235   1.898  11.565 -0.1186  0.0078  0.5038
 3282TIP3    H134041   0.166   1.877  11.627 -0.3808  0.7749  0.4838
 3282TIP3    H234042   0.275   1.978  11.600 -0.3373  0.5109 -0.3566
 3283TIP3   OH234043   4.296   4.604  12.237 -0.7758 -0.1991  0.1649
 3283TIP3    H134044   4.353   4.537  12.274 -0.6500 -0.0662  0.2072
 3283TIP3    H234045   4.218   4.601  12.292 -1.0373 -0.7513 -0.2138
 3284TIP3   OH234046   2.650   2.276  11.655  0.0719 -0.0604 -0.1708
 3284TIP3    H134047   2.730   2.224  11.668 -0.7384 -1.1401  0.7031
 3284TIP3    H234048   2.677   2.366  11.672  0.8184 -0.5585  1.5202
 3285TIP3   OH234049   1.105   0.205  12.645  0.9915  0.0040 -0.1063
 3285TIP3    H134050   1.106   0.188  12.551 -0.3464 -2.5793  0.2388
 3285TIP3    H234051   1.025   0.161  12.676  1.8512  0.0239  2.3542
 3286TIP3   OH234052   3.284   2.928  11.556  0.0369 -0.1926  0.0556
 3286TIP3    H134053   3.264   3.005  11.609 -1.9969 -0.9420  0.4872
 3286TIP3    H234054   3.200   2.905  11.516  1.2519 -0.3791 -2.5625
 3287TIP3   OH234055   4.371   4.525  10.995  0.4115 -0.2526  0.1784
 3287TIP3    H134056   4.448   4.552  10.946  0.4761 -0.2606  0.2754
 3287TIP3    H234057   4.395   4.539  11.087  0.7603 -1.4449  0.2837
 3288TIP3   OH234058   5.708   4.992  10.744 -0.2095  0.2341  0.4143
 3288TIP3    H134059   5.625   4.969  10.703  0.6457  0.1126 -1.3648
 3288TIP3    H234060   5.698   5.083  10.772  0.0100  1.2522 -2.5343
 3289TIP3   OH234061   3.631   0.671  12.506  0.9959 -0.3041  0.1765
 3289TIP3    H134062   3.595   0.645  12.421 -1.1032 -0.7183  1.1306
 3289TIP3    H234063   3.628   0.767  12.505 -1.4550 -0.2914  0.6614
 3290TIP3   OH234064   5.542   1.491  10.297  0.3053  0.1912 -0.1876
 3290TIP3    H134065   5.531   1.462  10.207  1.8407 -0.2527 -0.2556
 3290TIP3    H234066   5.624   1.540  10.297  0.2292  0.3586  0.9372
 3291TIP3   OH234067   5.295   4.123  12.417  0.6781 -0.4383  0.1361
 3291TIP3    H134068   5.216   4.130  12.471  1.3451 -0.2838  1.1300
 3291TIP3    H234069   5.363   4.169  12.468  1.3150 -0.2097 -0.8826
 3292TIP3   OH234070   6.604   3.067  11.333  0.1792 -0.0541 -0.1141
 3292TIP3    H134071   6.514   3.098  11.327  0.0681 -0.6210 -1.4621
 3292TIP3    H234072   6.620   3.021  11.251  2.3462  1.7898 -0.8560
 3293TIP3   OH234073   6.507   2.565   9.264  0.0613  0.1913  0.0204
 3293TIP3    H134074   6.438   2.563   9.330 -0.1860 -0.2522 -0.2444
 3293TIP3    H234075   6.465   2.531   9.185  0.4228  0.4822 -0.2999
 3294TIP3   OH234076   4.349   5.311  11.104 -0.1887 -0.6184 -0.6834
 3294TIP3    H134077   4.395   5.239  11.146  1.2783  0.5144 -0.2291
 3294TIP3    H234078   4.417   5.379  11.093 -1.8904  1.4166  0.6354
 3295TIP3   OH234079   6.108   0.415  12.776 -0.4476  0.3136  0.1239
 3295TIP3    H134080   6.079   0.498  12.814 -0.4319  0.7540 -0.8130
 3295TIP3    H234081   6.051   0.350  12.817 -0.6231  0.8071  0.6878
 3296TIP3   OH234082   3.215   1.055  13.210 -0.3524 -0.7887  0.1864
 3296TIP3    H134083   3.203   1.041  13.304 -0.5615 -1.8056  0.0250
 3296TIP3    H234084   3.127   1.050  13.174 -0.3414  0.1894 -0.0034
 3297TIP3   OH234085   1.306   6.618  10.993 -0.4211  0.0141  0.4721
 3297TIP3    H134086   1.243   6.557  11.031  0.8526 -1.3440  0.4977
 3297TIP3    H234087   1.268   6.643  10.909 -2.4688  1.7435  1.8193
 3298TIP3   OH234088   5.058   3.769  12.133  0.1076 -0.1464 -0.2416
 3298TIP3    H134089   4.988   3.706  12.120  1.2588 -1.7398  0.8002
 3298TIP3    H234090   5.054   3.790  12.227  1.5462 -1.0032  0.0511
 3299TIP3   OH234091   5.432   0.398  11.415 -0.3356  0.9577 -0.1025
 3299TIP3    H134092   5.402   0.345  11.488 -0.2078  1.0607  0.0250
 3299TIP3    H234093   5.432   0.488  11.449  3.5882  0.6671  1.1311
 3300TIP3   OH234094   5.689   0.183  11.342  0.0868 -0.1601  0.4237
 3300TIP3    H134095   5.633   0.136  11.404  3.1270  0.1583  3.7498
 3300TIP3    H234096   5.708   0.119  11.274 -2.3022 -0.9882  0.4356
 3301TIP3   OH234097   6.307   6.075  11.124  0.1730  1.2204  0.0908
 3301TIP3    H134098   6.278   6.166  11.130 -0.3681  1.3384 -2.7462
 3301TIP3    H234099   6.297   6.053  11.031  0.8488 -1.5628  0.5855
 3302TIP3   OH234100   3.836   4.449  12.015 -0.4063 -0.7807  0.0950
 3302TIP3    H134101   3.924   4.434  12.051 -0.3777 -1.9243 -0.4039
 3302TIP3    H234102   3.815   4.368  11.969 -1.6533 -0.4435  0.0387
 3303TIP3   OH234103   2.693   0.718  11.302 -0.0926  0.1219  0.0392
 3303TIP3    H134104   2.743   0.746  11.378  0.2395 -2.1493  0.7433
 3303TIP3    H234105   2.615   0.773  11.303  0.5374  1.0416  1.2400
 3304TIP3   OH234106   2.245   0.788  10.962 -0.3620 -0.5879 -0.1241
 3304TIP3    H134107   2.233   0.743  11.045  0.4195 -2.9546 -1.2080
 3304TIP3    H234108   2.306   0.860  10.982  0.5864 -1.7093  1.1746
 3305TIP3   OH234109   2.803   4.957  11.713 -0.9177  0.1188 -0.0015
 3305TIP3    H134110   2.837   5.016  11.646  0.0330  0.9856  1.1935
 3305TIP3    H234111   2.712   4.983  11.724 -1.5726 -1.0700 -2.0050
 3306TIP3   OH234112   2.719   2.667  11.999  0.3302  0.1494 -0.0075
 3306TIP3    H134113   2.813   2.676  12.016  0.7768 -1.4125 -1.3835
 3306TIP3    H234114   2.685   2.756  12.002  1.7364  0.6836  1.0972
 3307TIP3   OH234115   1.690   4.781  10.436 -0.5133  0.1559  0.3977
 3307TIP3    H134116   1.682   4.808  10.344  0.2399 -0.7159  0.0624
 3307TIP3    H234117   1.625   4.833  10.482 -0.1284  1.4503 -0.4568
 3308TIP3   OH234118   5.926   6.734   9.898 -0.4121  0.1825  0.4374
 3308TIP3    H134119   5.909   6.803   9.834  0.0150 -1.1064 -1.1050
 3308TIP3    H234120   5.887   6.656   9.861 -0.7433 -0.4654  2.0876
 3309TIP3   OH234121   2.093   1.571  11.386 -0.6387  0.0757 -0.5061
 3309TIP3    H134122   2.144   1.519  11.324 -1.0226 -0.5417 -0.3207
 3309TIP3    H234123   2.081   1.656  11.344 -0.0009  0.0144 -0.8187
 3310TIP3   OH234124   1.711   5.209  10.847  0.4170  0.2744 -0.3540
 3310TIP3    H134125   1.700   5.180  10.757 -1.3371  2.1894 -0.8264
 3310TIP3    H234126   1.691   5.132  10.900 -0.8435 -0.2759 -1.5727
 3311TIP3   OH234127   4.484   0.126  12.062  0.4069 -0.4066  0.3081
 3311TIP3    H134128   4.398   0.133  12.022  1.2640 -1.1922 -1.8197
 3311TIP3    H234129   4.487   0.037  12.098  1.0994 -1.2459 -1.6943
 3312TIP3   OH234130   2.341   1.071  10.990 -0.1323  0.2453  0.1919
 3312TIP3    H134131   2.280   1.110  11.051 -0.0579  1.8905 -0.7430
 3312TIP3    H234132   2.427   1.083  11.031 -0.0362  1.7576 -0.4170
 3313TIP3   OH234133   2.338   4.325  10.555  0.3584  0.4543  0.0214
 3313TIP3    H134134   2.319   4.290  10.642  0.8793  0.7080  0.2437
 3313TIP3    H234135   2.287   4.270  10.495 -0.4281  0.6204  0.5239
 3314TIP3   OH234136   6.691   0.104  12.375 -0.5502  0.2025 -0.3111
 3314TIP3    H134137   6.691   0.031  12.313  3.0999  0.5094 -0.9171
 3314TIP3    H234138   6.654   0.177  12.326 -0.4120 -0.2655 -1.1329
 3315TIP3   OH234139   2.001   6.144  12.805  0.2185  0.0976  0.6478
 3315TIP3    H134140   1.981   6.142  12.711 -0.9581  1.5672  0.8279
 3315TIP3    H234141   2.092   6.115  12.811  1.0972  2.2358 -1.1901
 3316TIP3   OH234142   0.072   6.342  11.866  0.2866  0.3626  0.2538
 3316TIP3    H134143  -0.009   6.295  11.845  1.6593 -1.2406 -1.9767
 3316TIP3    H234144   0.093   6.315  11.955 -0.5616 -0.9045  0.1048
 3317TIP3   OH234145   0.929   5.762  12.210  0.2153 -0.0382  0.4722
 3317TIP3    H134146   0.857   5.711  12.247 -0.4276  0.7661  0.3556
 3317TIP3    H234147   0.925   5.846  12.257  0.6746  0.2425  0.0137
 3318TIP3   OH234148   6.759   2.056  10.919  0.0060 -0.1799  0.8045
 3318TIP3    H134149   6.733   1.977  10.872 -1.9209  0.1672  1.1830
 3318TIP3    H234150   6.854   2.055  10.919  0.0154 -1.7212 -0.4908
 3319TIP3   OH234151   2.778   4.270  11.075 -0.4260 -0.3353 -0.3843
 3319TIP3    H134152   2.811   4.290  10.988  1.2102 -0.5680  0.1513
 3319TIP3    H234153   2.841   4.310  11.135 -1.3622 -0.4165  0.7117
 3320TIP3   OH234154   3.329   4.121  12.095  0.2463  0.3639 -0.8352
 3320TIP3    H134155   3.254   4.162  12.050 -1.3284 -0.5713  0.7961
 3320TIP3    H234156   3.289   4.053  12.149  2.1743  0.6200  1.0049
 3321TIP3   OH234157   4.843   0.653  12.346  0.0091 -0.2132 -0.4966
 3321TIP3    H134158   4.752   0.645  12.317  0.1701 -3.5347 -0.4503
 3321TIP3    H234159   4.847   0.602  12.427  1.8589  0.1436 -0.3216
 3322TIP3   OH234160   6.221   2.958  10.640  0.5381 -0.2532  0.1139
 3322TIP3    H134161   6.260   2.903  10.573  2.5093  0.8871  0.2549
 3322TIP3    H234162   6.274   2.944  10.718 -0.1958  0.2861  0.7315
 3323TIP3   OH234163   3.217   0.186  11.778  0.5280 -0.0680 -0.8248
 3323TIP3    H134164   3.307   0.217  11.777  1.3923 -2.1884  1.3180
 3323TIP3    H234165   3.220   0.101  11.735 -0.5017 -0.1288 -0.8127
 3324TIP3   OH234166   0.466   1.320  13.385 -0.9761 -0.3502  0.5333
 3324TIP3    H134167   0.487   1.382  13.455  1.3462 -1.5968  1.0742
 3324TIP3    H234168   0.384   1.352  13.347 -0.2423  2.6421  1.1973
 3325TIP3   OH234169   1.875   6.471  13.138  0.2515 -0.3429 -0.1793
 3325TIP3    H134170   1.862   6.491  13.231  1.4853  0.9890 -0.2620
 3325TIP3    H234171   1.848   6.379  13.129  1.2807 -0.8815  1.7542
 3326TIP3   OH234172   3.734   5.009  12.707  0.8497 -0.4962 -0.9125
 3326TIP3    H134173   3.681   5.075  12.661  0.6159 -0.4378 -0.5679
 3326TIP3    H234174   3.815   5.055  12.730  0.6091 -0.2663 -0.5044
 3327TIP3   OH234175   6.092   2.493  12.001  0.3206 -0.1428  0.2029
 3327TIP3    H134176   6.166   2.539  12.041 -0.1568 -0.9730  2.1442
 3327TIP3    H234177   6.044   2.456  12.075 -1.7606 -0.0586 -1.0490
 3328TIP3   OH234178   2.149   4.590  11.483 -0.9247  0.7334  0.3330
 3328TIP3    H134179   2.161   4.652  11.555 -1.7142 -0.0701  1.1731
 3328TIP3    H234180   2.237   4.557  11.465 -1.0382 -1.6566  3.3221
 3329TIP3   OH234181   6.318   4.072  11.132  0.1449 -0.0301 -0.6517
 3329TIP3    H134182   6.397   4.020  11.147 -0.3790 -0.8974 -0.7817
 3329TIP3    H234183   6.248   4.020  11.173 -0.2622  1.0638  0.0918
 3330TIP3   OH234184   0.989   3.377  10.870  0.4202  0.4660 -0.6141
 3330TIP3    H134185   0.997   3.458  10.920 -0.3252  0.9376 -1.2391
 3330TIP3    H234186   0.929   3.322  10.922 -0.4361  0.9966 -1.0137
 3331TIP3   OH234187   0.914   0.602  11.955  0.4282 -0.5342  0.5407
 3331TIP3    H134188   0.989   0.561  11.998  0.7767  0.9893  1.4806
 3331TIP3    H234189   0.840   0.587  12.014 -0.5579 -3.6897 -1.2611
 3332TIP3   OH234190   3.329   1.274  10.731 -0.2075  0.2032  0.1338
 3332TIP3    H134191   3.379   1.193  10.738 -0.4016  0.0954  0.2861
 3332TIP3    H234192   3.270   1.259  10.657 -0.4001  0.1194  0.3041
 3333TIP3   OH234193   5.279   0.851  10.482 -0.1381  0.2579 -0.1418
 3333TIP3    H134194   5.281   0.945  10.497  1.9129  0.2139  0.1166
 3333TIP3    H234195   5.297   0.812  10.568  2.9244 -0.2123 -0.8769
 3334TIP3   OH234196   5.482   6.459  12.299  0.1115 -0.1348  0.7654
 3334TIP3    H134197   5.460   6.406  12.223  1.5960 -1.3071  1.0924
 3334TIP3    H234198   5.398   6.483  12.337 -0.6239 -0.9001 -0.3144
 3335TIP3   OH234199   1.668   5.210  10.549 -0.1964  0.3190 -0.6974
 3335TIP3    H134200   1.587   5.248  10.584 -0.4983 -1.5092  0.7158
 3335TIP3    H234201   1.645   5.182  10.460 -0.9901  0.2241 -0.4721
 3336TIP3   OH234202   4.833   0.617  11.550  0.1079 -0.2223 -0.1511
 3336TIP3    H134203   4.764   0.608  11.485 -0.0858 -2.4267  0.2765
 3336TIP3    H234204   4.914   0.624  11.499 -0.2259  0.1617 -0.6307
 3337TIP3   OH234205   6.457   4.259  10.967  0.1737 -0.0064 -0.3211
 3337TIP3    H134206   6.398   4.225  11.035  0.5669 -2.3032 -1.0560
 3337TIP3    H234207   6.478   4.348  10.996 -1.4334 -0.1247  1.3902
 3338TIP3   OH234208   4.613   0.133  10.049  0.1114 -0.3455 -0.4918
 3338TIP3    H134209   4.643   0.195   9.982 -0.2121  0.2739 -0.0799
 3338TIP3    H234210   4.600   0.188  10.127 -0.7771 -0.8333 -0.2909
 3339TIP3   OH234211   3.203   3.673  12.042 -0.0367 -0.2179 -0.5924
 3339TIP3    H134212   3.291   3.639  12.026 -0.2279 -2.1367  1.9088
 3339TIP3    H234213   3.146   3.597  12.033 -1.1000  0.4077  0.4915
 3340TIP3   OH234214   5.973   5.997  12.969 -0.4120  0.6130 -0.0525
 3340TIP3    H134215   5.883   5.966  12.976 -0.5929  1.1918  0.2678
 3340TIP3    H234216   6.005   6.001  13.059 -0.6816  2.1431  0.0007
 3341TIP3   OH234217   5.657   2.748  10.936  0.5285 -0.1978  0.3507
 3341TIP3    H134218   5.694   2.668  10.972  1.4343  0.5350  1.1186
 3341TIP3    H234219   5.683   2.816  10.998  1.0607  0.9164 -1.0364
 3342TIP3   OH234220   2.259   6.502  12.237 -0.2606  0.4395  0.3785
 3342TIP3    H134221   2.300   6.589  12.234 -2.2759  1.4363  0.2811
 3342TIP3    H234222   2.166   6.520  12.243 -0.6837 -1.7462  1.0636
 3343TIP3   OH234223   2.222   0.427  12.557  0.0561  0.0411  0.5381
 3343TIP3    H134224   2.155   0.413  12.624 -1.8969  1.1605 -1.0667
 3343TIP3    H234225   2.254   0.516  12.572 -0.0379  0.1195  0.2797
 3344TIP3   OH234226   6.659   5.321  11.706 -0.4327 -0.0123 -0.2472
 3344TIP3    H134227   6.564   5.307  11.700 -0.5065  0.5353 -0.3629
 3344TIP3    H234228   6.673   5.407  11.668  0.4048 -1.0805 -2.5613
 3345TIP3   OH234229   1.306   2.296  12.534 -0.1012  0.6508  0.4212
 3345TIP3    H134230   1.391   2.268  12.567  0.7339 -1.6696 -3.0759
 3345TIP3    H234231   1.251   2.218  12.541 -0.7896  1.0082 -0.7394
 3346TIP3   OH234232   5.161   2.985  13.054  0.2270  0.0218 -0.2535
 3346TIP3    H134233   5.079   2.938  13.074 -0.3586  1.4782  0.9444
 3346TIP3    H234234   5.152   3.008  12.961 -1.4408  1.4244  0.1938
 3347TIP3   OH234235   4.121   3.853  12.806  0.4784  0.3011  0.3475
 3347TIP3    H134236   4.071   3.905  12.868 -1.2970  0.8858 -1.4810
 3347TIP3    H234237   4.211   3.885  12.815  0.1430  0.8600  2.0669
 3348TIP3   OH234238   6.453   4.764  10.892 -0.0195 -0.0629 -0.4820
 3348TIP3    H134239   6.498   4.849  10.895  0.4355 -0.3336  0.7296
 3348TIP3    H234240   6.454   4.741  10.799 -1.9253  2.1640 -1.1610
 3349TIP3   OH234241   0.669   3.679  12.760 -0.8251  0.2827  0.3690
 3349TIP3    H134242   0.676   3.595  12.715 -1.6490  0.3621  0.0658
 3349TIP3    H234243   0.751   3.688  12.807 -1.0223 -1.0430  1.0210
 3350TIP3   OH234244   6.579   6.678  11.832 -0.3001 -0.1182 -0.4022
 3350TIP3    H134245   6.507   6.740  11.831 -0.5825 -0.4420 -1.0826
 3350TIP3    H234246   6.563   6.623  11.908 -0.2905  0.3539 -0.0528
 3351TIP3   OH234247   6.444   5.852  12.057  0.5165  0.5063 -0.0431
 3351TIP3    H134248   6.517   5.819  12.110 -0.4696  0.4609  1.3415
 3351TIP3    H234249   6.404   5.774  12.019  1.2396  0.5407 -0.9274
 3352TIP3   OH234250   1.569   2.467  12.881  0.1517 -0.0463 -0.1594
 3352TIP3    H134251   1.526   2.510  12.955  1.2952  1.4150 -0.2985
 3352TIP3    H234252   1.658   2.502  12.882  0.5213 -0.8802 -1.5517
 3353TIP3   OH234253   0.866   2.685  11.603 -0.3814  0.3104 -0.0237
 3353TIP3    H134254   0.928   2.664  11.673  2.0380 -0.5935 -2.2835
 3353TIP3    H234255   0.885   2.621  11.534 -3.0640  0.7813 -1.3256
 3354TIP3   OH234256   5.845   5.656  12.327 -0.5619  0.2681  0.3281
 3354TIP3    H134257   5.827   5.675  12.235  1.9461 -0.8233 -0.4772
 3354TIP3    H234258   5.807   5.730  12.375 -0.1325  1.9271 -1.7530
 3355TIP3   OH234259   4.189   2.492  12.256 -0.2978  0.0195  0.1240
 3355TIP3    H134260   4.225   2.403  12.262  1.3963  0.5185 -1.5024
 3355TIP3    H234261   4.263   2.545  12.225 -1.8684  1.5659 -1.1697
 3356TIP3   OH234262   4.644   2.724   9.704 -0.5595 -0.0755  0.1946
 3356TIP3    H134263   4.640   2.704   9.797 -0.5964  1.5503  0.5700
 3356TIP3    H234264   4.553   2.743   9.679 -0.2244  2.2978  0.5368
 3357TIP3   OH234265   0.508   1.616  11.534  0.3448 -0.2247 -0.1816
 3357TIP3    H134266   0.517   1.522  11.551  1.3747  0.1275  1.3903
 3357TIP3    H234267   0.463   1.650  11.611  0.5175  0.6547 -0.4597
 3358TIP3   OH234268   5.542   0.735  11.919  0.2849  0.3210  0.1908
 3358TIP3    H134269   5.478   0.729  11.991  0.4115  1.4650  0.4128
 3358TIP3    H234270   5.613   0.789  11.954  0.5595  0.5164 -0.6485
 3359TIP3   OH234271   4.400   0.743  10.448 -0.4272  0.3510  0.2835
 3359TIP3    H134272   4.491   0.747  10.420 -0.6347  1.3602 -0.3223
 3359TIP3    H234273   4.403   0.706  10.537  0.6345  1.0364  0.5515
 3360TIP3   OH234274   4.793   5.691   9.864  0.1121  0.5964 -0.2628
 3360TIP3    H134275   4.785   5.780   9.831 -3.4961  1.4894  2.3036
 3360TIP3    H234276   4.847   5.699   9.943 -0.3354  0.6019  0.0526
 3361TIP3   OH234277   6.513   0.216  11.417 -0.4154 -0.2673  0.3075
 3361TIP3    H134278   6.452   0.261  11.359 -0.1959 -0.9402 -0.4628
 3361TIP3    H234279   6.582   0.183  11.359 -0.7101 -1.8323  0.7871
 3362TIP3   OH234280   5.784   4.809  10.955  0.4016  0.1836  0.3019
 3362TIP3    H134281   5.738   4.861  10.888 -0.8229  2.1345  2.4885
 3362TIP3    H234282   5.869   4.852  10.964  0.9044 -0.6007 -0.5374
 3363TIP3   OH234283   0.331   6.121  10.430  0.3214 -0.0503 -0.1566
 3363TIP3    H134284   0.283   6.202  10.443 -1.5334 -0.8386 -1.5848
 3363TIP3    H234285   0.388   6.138  10.355 -0.2041 -0.1073 -0.5734
 3364TIP3   OH234286   2.050   1.285  10.822  0.1507  0.0740  0.1068
 3364TIP3    H134287   2.011   1.202  10.850  0.6045 -0.7482 -1.5849
 3364TIP3    H234288   1.981   1.328  10.772  0.0126  0.6088  0.7411
 3365TIP3   OH234289   1.572   6.557  10.934  0.4966 -0.0653 -0.1428
 3365TIP3    H134290   1.528   6.587  10.854  1.1202  0.1944 -0.3938
 3365TIP3    H234291   1.501   6.548  10.997  0.2878  2.5743  0.1441
 3366TIP3   OH234292   6.068   1.457   9.426 -0.6509  0.0117  0.4587
 3366TIP3    H134293   6.135   1.524   9.437 -1.3177  1.0987 -1.6567
 3366TIP3    H234294   6.115   1.381   9.392 -0.3360  0.4164 -0.0145
 3367TIP3   OH234295   1.077   2.391  10.732 -0.1664 -0.1194 -0.0779
 3367TIP3    H134296   0.986   2.397  10.761  0.1208  2.3058  0.5349
 3367TIP3    H234297   1.073   2.393  10.637 -0.7206  1.1814 -0.0389
 3368TIP3   OH234298   5.156   2.377  12.878  0.5549 -0.0051  0.1212
 3368TIP3    H134299   5.206   2.452  12.912 -0.9036  1.8856 -1.6365
 3368TIP3    H234300   5.067   2.410  12.868 -0.1536 -2.0039 -0.7292
 3369TIP3   OH234301   6.500   2.229  11.776  0.5709  0.0803 -0.4344
 3369TIP3    H134302   6.534   2.316  11.754 -3.6946  1.9181 -0.7988
 3369TIP3    H234303   6.461   2.241  11.863 -0.7475 -1.1946 -0.8128
 3370TIP3   OH234304   1.812   2.549  11.559  0.4483  0.2348 -0.1098
 3370TIP3    H134305   1.860   2.527  11.639 -0.8573 -0.4034  0.5254
 3370TIP3    H234306   1.823   2.644  11.550  0.9480  0.2551  0.5897
 3371TIP3   OH234307   1.984   4.234  10.644 -0.8675 -0.1898  0.2549
 3371TIP3    H134308   1.929   4.199  10.715 -1.6830 -0.7239 -0.6138
 3371TIP3    H234309   2.055   4.171  10.636 -0.0259  0.5746  1.4749
 3372TIP3   OH234310   2.398   6.706  10.635  0.4978 -0.4341  0.5511
 3372TIP3    H134311   2.489   6.734  10.649  0.3014  0.2699  0.4404
 3372TIP3    H234312   2.371   6.750  10.555  0.5833 -1.9510 -0.3620
 3373TIP3   OH234313   0.711   0.407  10.725  0.0261  0.0443  0.1570
 3373TIP3    H134314   0.667   0.476  10.675 -1.8368 -0.5106  0.9412
 3373TIP3    H234315   0.795   0.445  10.750  0.7272  0.5723 -2.7465
 3374TIP3   OH234316   1.220   6.682  12.947 -0.2742  0.5210  0.0269
 3374TIP3    H134317   1.285   6.694  13.017 -1.8213 -0.4148  1.7351
 3374TIP3    H234318   1.271   6.673  12.867  1.8199 -1.2923  1.4371
 3375TIP3   OH234319   3.246   1.238  10.369 -0.1012  0.0634  0.2572
 3375TIP3    H134320   3.173   1.285  10.408  0.0044  0.4472 -0.0022
 3375TIP3    H234321   3.230   1.242  10.275  0.3693  0.3484  0.1836
 3376TIP3   OH234322   2.242   6.602  13.092 -0.8753 -0.0943 -0.2303
 3376TIP3    H134323   2.196   6.555  13.022 -2.6080 -0.3718  1.0216
 3376TIP3    H234324   2.285   6.533  13.143  0.1503  0.0816 -0.8458
 3377TIP3   OH234325   2.536   6.337  11.570  0.2396 -0.0637 -0.3191
 3377TIP3    H134326   2.595   6.396  11.523  0.6082 -0.2569 -0.1073
 3377TIP3    H234327   2.560   6.250  11.539  1.8475 -0.4000  1.6079
 3378TIP3   OH234328   3.411   0.359  11.450  0.3527  0.1947 -0.8335
 3378TIP3    H134329   3.421   0.451  11.426 -1.8873  0.9476  0.7235
 3378TIP3    H234330   3.465   0.349  11.528  4.9155 -1.3758 -3.7736
 3379TIP3   OH234331   2.256   6.701  10.013  0.2631  0.6119  0.6089
 3379TIP3    H134332   2.329   6.744   9.967 -1.1317  0.6151 -1.7790
 3379TIP3    H234333   2.266   6.608   9.992 -1.1871  0.7742 -1.0408
 3380TIP3   OH234334   2.662   3.515  10.613 -0.1089  0.5500  0.3385
 3380TIP3    H134335   2.720   3.465  10.671 -0.0125  1.1671  0.7821
 3380TIP3    H234336   2.575   3.480  10.631  0.2479 -1.5367 -1.5000
 3381TIP3   OH234337   3.070   1.413  10.496 -0.7212 -0.0585 -0.2723
 3381TIP3    H134338   2.997   1.460  10.456  1.6717  2.9761 -1.5337
 3381TIP3    H234339   3.045   1.401  10.587 -1.7262  3.5161  0.0713
 3382TIP3   OH234340   4.945   6.306  10.437 -0.6520 -0.4450 -0.0251
 3382TIP3    H134341   5.037   6.329  10.422 -1.0591 -0.2082 -2.8334
 3382TIP3    H234342   4.945   6.257  10.519  1.9921 -0.5708 -0.0125
 3383TIP3   OH234343   5.031   4.413  10.913  0.5091  0.3808 -0.8659
 3383TIP3    H134344   5.112   4.443  10.956  0.4025 -1.9234  1.1785
 3383TIP3    H234345   5.061   4.354  10.844  0.6231 -1.1099  0.4148
 3384TIP3   OH234346   3.785   4.166  11.224  0.7417 -0.0373  0.0213
 3384TIP3    H134347   3.790   4.228  11.151 -0.4086 -0.4336 -0.4229
 3384TIP3    H234348   3.702   4.120  11.210 -1.0967  1.9001  3.1811
 3385TIP3   OH234349   3.984   1.187  10.955 -0.3522  0.0005  0.3712
 3385TIP3    H134350   3.893   1.215  10.964 -0.0700  0.9242  0.3720
 3385TIP3    H234351   4.013   1.172  11.045 -0.5255 -0.3780  0.3666
 3386TIP3   OH234352   6.531   1.006  12.526  0.1305  0.2888  0.1365
 3386TIP3    H134353   6.606   0.956  12.557  0.6971  0.0149 -1.5384
 3386TIP3    H234354   6.534   1.088  12.576  1.4479  0.2046  0.2254
 3387TIP3   OH234355   3.232   4.098  10.278 -0.4840  0.0785 -0.0688
 3387TIP3    H134356   3.195   4.014  10.251 -2.0290  1.4919 -2.8268
 3387TIP3    H234357   3.319   4.100  10.238 -0.8866  0.2196 -0.9552
 3388TIP3   OH234358   1.362   5.669  11.951  0.0427 -0.1086  0.1689
 3388TIP3    H134359   1.343   5.576  11.963  0.5335 -0.1026  1.1132
 3388TIP3    H234360   1.279   5.713  11.970 -0.1139 -0.3353  0.0150
 3389TIP3   OH234361   0.610   1.164  11.956 -0.3067  0.7131 -0.4609
 3389TIP3    H134362   0.680   1.228  11.970  0.3406 -0.1184  0.1789
 3389TIP3    H234363   0.653   1.079  11.959 -1.1298  0.2284 -1.4609
 3390TIP3   OH234364   2.592   0.773  10.547  0.0187 -0.1530 -0.1982
 3390TIP3    H134365   2.621   0.826  10.621 -0.2847 -1.3726  0.8263
 3390TIP3    H234366   2.498   0.789  10.540 -0.3731 -1.6548  1.0870
 3391TIP3   OH234367   2.620   5.149  12.002 -0.2224  0.2113 -0.0941
 3391TIP3    H134368   2.619   5.101  11.919 -0.0652  0.6311 -0.3401
 3391TIP3    H234369   2.529   5.143  12.034 -0.1542 -0.4307 -0.0137
 3392TIP3   OH234370   1.765   4.373  12.240 -0.2234  0.0994 -0.6658
 3392TIP3    H134371   1.722   4.316  12.176 -0.4694  1.1593 -1.4826
 3392TIP3    H234372   1.844   4.326  12.265 -1.1483 -1.2707 -0.1694
 3393TIP3   OH234373   5.586   5.677  12.726 -0.1097  0.3123 -0.5627
 3393TIP3    H134374   5.540   5.742  12.674 -1.4870 -1.1281 -1.2086
 3393TIP3    H234375   5.678   5.688  12.702 -0.3155  1.8998 -0.7400
 3394TIP3   OH234376   1.390   5.334  12.504 -0.3209  0.2380 -0.2540
 3394TIP3    H134377   1.485   5.346  12.505 -0.2494 -0.2407 -0.6542
 3394TIP3    H234378   1.358   5.396  12.439 -0.5115  1.8239  1.2797
 3395TIP3   OH234379   4.577   6.330  12.006 -0.4921 -0.2723 -0.1366
 3395TIP3    H134380   4.653   6.288  11.966 -0.6473 -0.0922 -0.6305
 3395TIP3    H234381   4.516   6.258  12.024 -0.0131 -0.4766  0.7086
 3396TIP3   OH234382   0.970   4.706  10.972  0.3111 -0.6091 -0.5399
 3396TIP3    H134383   0.888   4.656  10.976  0.6804 -1.3116 -1.5205
 3396TIP3    H234384   1.015   4.684  11.053 -0.8125  0.4263  0.4102
 3397TIP3   OH234385   4.465   6.148  12.248  0.1469  0.0400 -0.2515
 3397TIP3    H134386   4.407   6.080  12.213  0.3986 -0.1108 -0.3749
 3397TIP3    H234387   4.405   6.216  12.279 -0.1290 -0.4729  0.3680
 3398TIP3   OH234388   6.069   1.562  11.163 -0.2291 -0.1301  0.2969
 3398TIP3    H134389   6.105   1.578  11.075 -1.2499 -1.6366 -0.4269
 3398TIP3    H234390   6.144   1.574  11.221  0.8374 -0.6114 -0.9271
 3399TIP3   OH234391   4.552   4.082  10.341 -0.4899 -0.1882 -0.3031
 3399TIP3    H134392   4.457   4.074  10.350 -0.5969 -0.7768 -1.6411
 3399TIP3    H234393   4.573   4.024  10.267  0.9921 -0.5401  0.3754
 3400TIP3   OH234394   5.099   2.802  12.209  0.0185  0.1494 -0.2743
 3400TIP3    H134395   5.149   2.783  12.129 -0.7247 -0.8679 -0.5177
 3400TIP3    H234396   5.144   2.751  12.277  0.0020  0.1470 -0.2655
 3401TIP3   OH234397   5.033   0.949  10.410  0.5085 -0.2521  0.2189
 3401TIP3    H134398   5.105   0.900  10.369  0.1727 -0.2106 -0.4334
 3401TIP3    H234399   4.963   0.946  10.346  0.3791  0.8397  0.3009
 3402TIP3   OH234400   2.658   4.438  12.919  0.2263 -0.0785  0.2610
 3402TIP3    H134401   2.726   4.505  12.910  1.0418 -1.0376 -0.9589
 3402TIP3    H234402   2.702   4.365  12.963 -0.2280 -0.4233  0.1500
 3403TIP3   OH234403   2.725   0.502  10.140  0.4261  0.2145  0.6339
 3403TIP3    H134404   2.747   0.550  10.220  0.4053  0.5970  0.4111
 3403TIP3    H234405   2.810   0.479  10.102  0.4576  1.2180  0.0594
 3404TIP3   OH234406   3.416   6.370  10.890  0.7757 -0.5333 -0.4415
 3404TIP3    H134407   3.376   6.299  10.840 -0.1562 -0.9582  0.8588
 3404TIP3    H234408   3.415   6.339  10.981  0.5758  1.0222  0.1198
 3405TIP3   OH234409   5.145   6.388  11.092  0.0269 -0.6563  0.4108
 3405TIP3    H134410   5.118   6.423  11.177  1.0256  0.3571  0.3375
 3405TIP3    H234411   5.071   6.335  11.063 -1.6181  1.4780  0.4979
 3406TIP3   OH234412   1.935   3.075  11.668 -0.0494 -0.1893  0.4882
 3406TIP3    H134413   1.923   3.097  11.761  1.0054  1.8332  0.1876
 3406TIP3    H234414   1.853   3.104  11.627  0.4621  1.2960  0.4423
 3407TIP3   OH234415   0.809   6.287  11.836  0.4897 -0.2170 -0.0970
 3407TIP3    H134416   0.867   6.341  11.889  0.5681  0.6497 -1.0304
 3407TIP3    H234417   0.729   6.339  11.828  0.3598 -0.4791 -0.5487
 3408TIP3   OH234418   1.609   3.439  13.284  0.1536 -0.4310 -0.3902
 3408TIP3    H134419   1.583   3.347  13.288  1.2520 -0.7001  1.6201
 3408TIP3    H234420   1.528   3.488  13.298 -0.3503 -1.0804 -0.9348
 3409TIP3   OH234421   5.787   2.811  12.223  0.0365 -0.4916 -0.1050
 3409TIP3    H134422   5.800   2.906  12.231  2.9298 -0.8273  0.2668
 3409TIP3    H234423   5.708   2.802  12.170 -1.0042  2.1006  0.8210
 3410TIP3   OH234424   6.201   0.698  10.933  0.2435  0.4598 -0.1055
 3410TIP3    H134425   6.231   0.762  10.870  0.0755  0.3027 -0.3453
 3410TIP3    H234426   6.119   0.734  10.967  0.2365  0.4534 -0.1151
 3411TIP3   OH234427   0.913   3.345   9.502  0.0332 -0.1871  0.0629
 3411TIP3    H134428   0.944   3.256   9.487  0.1946 -0.3351  1.1712
 3411TIP3    H234429   0.991   3.400   9.494  0.2047 -0.3172  0.7698
 3412TIP3   OH234430   2.296   5.014  13.063  0.5842 -0.7243  0.2437
 3412TIP3    H134431   2.245   4.934  13.052 -1.1608  0.5491 -1.9147
 3412TIP3    H234432   2.364   5.009  12.996  1.3507 -1.0020  1.0300
 3413TIP3   OH234433   4.334   2.114  10.489 -0.1724  0.0170 -0.1907
 3413TIP3    H134434   4.419   2.114  10.446 -0.2068 -0.0735 -0.2590
 3413TIP3    H234435   4.333   2.195  10.540  0.5382 -0.6951  0.9869
 3414TIP3   OH234436   5.748   2.208  11.426  0.0198  0.3132 -0.6006
 3414TIP3    H134437   5.843   2.211  11.433  0.1324  1.3458 -2.0388
 3414TIP3    H234438   5.726   2.285  11.374 -1.7856  1.1695  1.2811
 3415TIP3   OH234439   6.758   2.389  10.915  0.2714  0.1640 -0.0514
 3415TIP3    H134440   6.758   2.321  10.982 -0.2071  0.0698 -0.1447
 3415TIP3    H234441   6.760   2.471  10.963 -0.2897  0.1012  0.0879
 3416TIP3   OH234442   4.708   1.594  10.942  0.0934  0.0764 -0.2007
 3416TIP3    H134443   4.618   1.562  10.945  0.5256 -1.2421 -0.4490
 3416TIP3    H234444   4.760   1.516  10.926  1.2360  0.9075 -0.6702
 3417TIP3   OH234445   6.444   3.643  11.179 -0.3381 -0.7140  0.3239
 3417TIP3    H134446   6.509   3.632  11.110 -1.0625 -0.2944 -0.4481
 3417TIP3    H234447   6.446   3.737  11.200 -0.3278 -0.7875  0.6675
 3418TIP3   OH234448   2.338   0.641  10.654 -0.4279 -0.3263  0.3596
 3418TIP3    H134449   2.289   0.710  10.699  2.1889  1.8260  0.1803
 3418TIP3    H234450   2.405   0.614  10.718  1.1928  0.3484 -0.9849
 3419TIP3   OH234451   3.813   6.327  11.500  0.0912  0.2025  0.3628
 3419TIP3    H134452   3.904   6.346  11.525  1.2083  0.4274 -3.2984
 3419TIP3    H234453   3.805   6.232  11.508  1.6164 -0.1836 -1.7251
 3420TIP3   OH234454   5.606   2.830  12.558  0.7088 -0.4490 -0.4997
 3420TIP3    H134455   5.647   2.769  12.619 -0.3662 -1.6798 -0.9670
 3420TIP3    H234456   5.587   2.908  12.610  1.2748 -0.8620  0.3343
 3421TIP3   OH234457   5.378   4.574  11.332  0.0750 -0.1541 -0.3026
 3421TIP3    H134458   5.380   4.647  11.394 -0.5866  1.2081 -1.8099
 3421TIP3    H234459   5.458   4.524  11.351 -0.5968 -0.4084  2.2929
 3422TIP3   OH234460   3.866   2.764  12.500 -0.4362 -0.7414 -0.2792
 3422TIP3    H134461   3.949   2.737  12.540  0.6567  1.1592 -1.1108
 3422TIP3    H234462   3.877   2.745  12.407 -1.6954 -2.1613 -0.1746
 3423TIP3   OH234463   2.050   1.760  11.923 -0.3193  0.2861  0.3978
 3423TIP3    H134464   2.143   1.748  11.944 -0.0010  1.2910 -0.3876
 3423TIP3    H234465   2.037   1.854  11.924 -0.5421  0.3789 -2.6593
 3424TIP3   OH234466   2.505   6.314  10.694 -0.2887 -0.4119  0.1291
 3424TIP3    H134467   2.451   6.272  10.761  0.4077 -0.5814  0.6038
 3424TIP3    H234468   2.445   6.372  10.647 -1.0864 -1.3175 -0.0020
 3425TIP3   OH234469   5.542   1.468  10.019  0.3882 -0.1171  0.4305
 3425TIP3    H134470   5.503   1.399   9.965 -0.0358 -0.2145  0.8560
 3425TIP3    H234471   5.635   1.466   9.996  0.0779  0.4708 -0.9843
 3426TIP3   OH234472   3.316   0.738  11.927  0.5221  0.5364  0.1498
 3426TIP3    H134473   3.334   0.739  11.833  1.1679 -1.5903  0.1974
 3426TIP3    H234474   3.224   0.761  11.934 -0.5315 -2.6733 -1.3733
 3427TIP3   OH234475   3.108   4.943  10.732 -0.2184 -0.2562  0.4978
 3427TIP3    H134476   3.055   5.015  10.764  0.7857  1.1989 -0.9519
 3427TIP3    H234477   3.086   4.935  10.640  0.4222 -1.1525  0.4005
 3428TIP3   OH234478   1.326   6.166  11.412 -0.4923 -0.0387  0.0651
 3428TIP3    H134479   1.260   6.165  11.342 -0.7591  1.1804  0.2850
 3428TIP3    H234480   1.369   6.081  11.405 -0.4344  0.0989 -1.6594
 3429TIP3   OH234481   3.300   3.045  13.033 -0.3682 -0.1681  0.8409
 3429TIP3    H134482   3.264   2.962  12.999  0.2853  0.7969 -2.5468
 3429TIP3    H234483   3.394   3.032  13.034 -0.1507  0.8903 -1.0435
 3430TIP3   OH234484   1.766   6.171  11.849  0.0344 -0.7801 -0.4746
 3430TIP3    H134485   1.706   6.169  11.775 -0.9202  0.3876  0.2168
 3430TIP3    H234486   1.852   6.151  11.812 -0.5587 -1.0850 -1.7281
 3431TIP3   OH234487   5.992   2.526  10.862  0.5922 -0.1543 -0.1760
 3431TIP3    H134488   6.075   2.480  10.850  1.5536  0.8474  2.1172
 3431TIP3    H234489   6.001   2.606  10.809  0.6078 -0.5932 -0.8444
 3432TIP3   OH234490   6.347   5.205  12.106  0.0102 -0.0484 -0.1500
 3432TIP3    H134491   6.430   5.186  12.150 -0.5631 -1.8651  0.2292
 3432TIP3    H234492   6.354   5.160  12.022  0.2475  1.6312 -1.0634
 3433TIP3   OH234493   5.438   6.199  11.814 -0.4339  0.2090 -0.1482
 3433TIP3    H134494   5.511   6.147  11.782  0.9526  3.5095 -2.9767
 3433TIP3    H234495   5.367   6.181  11.751 -1.1098 -0.6529  0.8144
 3434TIP3   OH234496   2.407   2.182  10.845 -0.0689 -0.5093  0.3070
 3434TIP3    H134497   2.354   2.251  10.884 -0.6391 -1.9629  2.2312
 3434TIP3    H234498   2.385   2.103  10.894 -1.0789 -2.6024 -3.1803
 3435TIP3   OH234499   5.095   4.632  12.370 -0.2083  0.0883  0.0876
 3435TIP3    H134500   5.016   4.677  12.340 -0.5491 -0.5118  0.0671
 3435TIP3    H234501   5.112   4.669  12.457 -0.5404  0.1923  0.1094
 3436TIP3   OH234502   5.259   2.450  10.840 -0.0953  0.0823 -0.7769
 3436TIP3    H134503   5.351   2.430  10.858 -0.6550 -1.3966  0.7418
 3436TIP3    H234504   5.260   2.497  10.757  1.9877 -0.2988 -1.0175
 3437TIP3   OH234505   2.277   2.707  12.040  0.3782  0.6270 -0.0478
 3437TIP3    H134506   2.207   2.769  12.065  1.0666  0.7450  1.7402
 3437TIP3    H234507   2.332   2.757  11.979  0.0071  1.2149  0.0834
 3438TIP3   OH234508   0.407   1.707  11.196  0.4263  0.3604  0.3827
 3438TIP3    H134509   0.396   1.704  11.101  0.5312 -1.2185  0.3967
 3438TIP3    H234510   0.385   1.618  11.225 -1.8094  1.3722  2.0938
 3439TIP3   OH234511   5.772   5.681  12.057 -0.2020 -0.5098 -0.7058
 3439TIP3    H134512   5.822   5.763  12.053 -1.6823  0.3700 -3.2496
 3439TIP3    H234513   5.794   5.636  11.976 -2.0272 -1.0235 -0.9530
 3440TIP3   OH234514   1.894   2.394  12.357 -0.3402 -0.0216  0.0559
 3440TIP3    H134515   1.974   2.434  12.325 -0.4674  0.0725 -0.1464
 3440TIP3    H234516   1.911   2.376  12.450 -0.3269  0.6089  0.1772
 3441TIP3   OH234517   2.310   3.146   9.540  0.1487  0.7014  0.1884
 3441TIP3    H134518   2.227   3.109   9.570 -0.2061  0.4077 -1.1143
 3441TIP3    H234519   2.286   3.204   9.468  1.0446  0.8689  0.0145
 3442TIP3   OH234520   3.549   1.963  10.412 -0.0620 -0.3749  0.5770
 3442TIP3    H134521   3.526   1.922  10.495  0.0616 -0.6829  0.4610
 3442TIP3    H234522   3.645   1.964  10.411 -0.0273 -1.6858 -0.1831
 3443TIP3   OH234523   0.794   0.345  13.119  0.3810 -0.2280 -0.2332
 3443TIP3    H134524   0.732   0.273  13.130  0.5863 -0.2746  0.7444
 3443TIP3    H234525   0.876   0.303  13.095  0.1831 -0.2097 -0.9655
 3444TIP3   OH234526   2.157   6.193  10.993 -0.8062 -0.0172 -0.2785
 3444TIP3    H134527   2.100   6.133  11.041 -0.2325  0.7385  1.4109
 3444TIP3    H234528   2.143   6.278  11.035  1.0098  0.3231 -0.3143
 3445TIP3   OH234529   0.936   1.831  12.313 -0.5158 -0.0553 -0.6368
 3445TIP3    H134530   0.873   1.798  12.249  1.4347 -0.8218 -2.2449
 3445TIP3    H234531   0.890   1.903  12.357 -2.4471 -0.5028 -1.8100
 3446TIP3   OH234532   6.470   2.771  11.553  0.4819  0.7052 -0.2139
 3446TIP3    H134533   6.404   2.738  11.492 -1.4145  2.0447  1.0358
 3446TIP3    H234534   6.452   2.725  11.635  0.5620  1.7143  0.3756
 3447TIP3   OH234535   6.178   3.578   9.991  0.5605 -0.1401  0.2506
 3447TIP3    H134536   6.267   3.592   9.959  1.6432 -2.4782  1.9129
 3447TIP3    H234537   6.151   3.497   9.950 -0.5745  0.2176  0.2716
 3448TIP3   OH234538   0.576   3.189  10.194 -0.5632 -0.1769  0.2180
 3448TIP3    H134539   0.624   3.272  10.200 -0.7060 -0.0529 -0.3254
 3448TIP3    H234540   0.570   3.171  10.100 -0.2597 -0.9618  0.3341
 3449TIP3   OH234541   2.641   5.376  10.720  0.0019 -0.2504 -0.4482
 3449TIP3    H134542   2.683   5.345  10.640 -1.3425  0.3364 -1.4186
 3449TIP3    H234543   2.596   5.299  10.756  0.7286 -0.5476 -0.1701
 3450TIP3   OH234544   2.319   4.193  12.301 -0.1942  0.2164 -0.6323
 3450TIP3    H134545   2.411   4.195  12.329 -1.0015 -2.0504  2.7748
 3450TIP3    H234546   2.317   4.123  12.235  0.4265 -0.1335 -0.2933
 3451TIP3   OH234547   1.137   6.853  12.236  0.4767  0.0918 -0.3743
 3451TIP3    H134548   1.134   6.937  12.282  1.8330  0.9118 -1.6759
 3451TIP3    H234549   1.060   6.854  12.179  1.3297  1.2265 -1.5705
 3452TIP3   OH234550   2.869   5.420  12.714  0.5125  0.1225 -0.1800
 3452TIP3    H134551   2.912   5.379  12.639  0.2136  1.3436 -1.0718
 3452TIP3    H234552   2.795   5.363  12.734  0.2875  0.0481 -1.1752
 3453TIP3   OH234553   4.136   3.132  10.460  0.3349  0.3886  0.1345
 3453TIP3    H134554   4.062   3.120  10.401 -0.5032 -0.3198  1.2748
 3453TIP3    H234555   4.191   3.196  10.417 -1.1194  1.1940 -0.5991
 3454TIP3   OH234556   6.201   5.761  11.292 -0.2302  0.1038  0.2004
 3454TIP3    H134557   6.258   5.833  11.319  1.6658 -1.2861  0.0526
 3454TIP3    H234558   6.117   5.780  11.334 -0.1040  2.8813 -0.5810
 3455TIP3   OH234559   6.783   2.721  10.329  0.2076  0.1136 -0.5909
 3455TIP3    H134560   6.807   2.643  10.279 -0.3414 -0.2686 -0.2695
 3455TIP3    H234561   6.688   2.714  10.340  0.3545  0.0641  0.7105
 3456TIP3   OH234562   1.588   0.084  11.325  0.5554  0.2845 -0.0213
 3456TIP3    H134563   1.669   0.099  11.276  1.2464 -0.8445  0.7314
 3456TIP3    H234564   1.530   0.038  11.264  1.3387 -0.9358  0.1205
 3457TIP3   OH234565   1.620   6.459  12.242 -0.0078 -0.1448  0.4845
 3457TIP3    H134566   1.539   6.415  12.271 -0.5566 -0.2280 -1.0791
 3457TIP3    H234567   1.625   6.537  12.296 -2.0930  0.7641 -0.4962
 3458TIP3   OH234568   2.904   1.576  12.923  0.4590  0.8438 -0.2090
 3458TIP3    H134569   2.950   1.512  12.976 -0.8621  1.0611  1.2757
 3458TIP3    H234570   2.915   1.546  12.833 -1.6259 -2.5588  0.5075
 3459TIP3   OH234571   6.358   2.962  11.152 -0.6638 -0.4591  0.1004
 3459TIP3    H134572   6.314   2.962  11.067 -1.1093  0.2960  0.3180
 3459TIP3    H234573   6.420   2.889  11.148 -2.3119 -1.8979 -0.0014
 3460TIP3   OH234574   3.771   3.888  12.565  0.2549  0.3217  0.2087
 3460TIP3    H134575   3.784   3.842  12.482  0.8258 -1.0588  1.0329
 3460TIP3    H234576   3.742   3.975  12.539 -1.9278 -0.7789 -1.4188
 3461TIP3   OH234577   0.676   0.111  13.132 -0.1544 -0.0433 -0.1020
 3461TIP3    H134578   0.591   0.090  13.169  0.0982 -0.2829  0.3488
 3461TIP3    H234579   0.695   0.038  13.073 -1.1236  0.9484 -1.6993
 3462TIP3   OH234580   3.193   6.679   9.857  0.1457  0.5231  0.8086
 3462TIP3    H134581   3.120   6.656   9.800  1.0265 -0.3148 -0.0174
 3462TIP3    H234582   3.261   6.614   9.838  1.0067  1.1000  1.7610
 3463TIP3   OH234583   2.473   4.956  13.320  0.2085 -0.3409  0.0847
 3463TIP3    H134584   2.429   4.986  13.400 -0.7619 -2.4000  0.3834
 3463TIP3    H234585   2.411   4.973  13.250  0.9224  1.1525 -0.2052
 3464TIP3   OH234586   5.593   3.992  11.027 -0.6561  0.1024  0.8760
 3464TIP3    H134587   5.672   3.961  10.982 -1.2734  1.6960 -1.4929
 3464TIP3    H234588   5.521   3.948  10.981 -1.2871  1.4273  0.5589
 3465TIP3   OH234589   5.175   6.248  12.171  0.3500  0.1952  0.5239
 3465TIP3    H134590   5.169   6.319  12.107 -1.8991  0.4099  0.8898
 3465TIP3    H234591   5.204   6.172  12.120  2.8153  1.3131  0.1357
 3466TIP3   OH234592   5.253   1.593  11.301  0.2470  0.8091  0.1368
 3466TIP3    H134593   5.290   1.650  11.368  2.6217  0.1650 -0.5368
 3466TIP3    H234594   5.286   1.629  11.218  1.5478 -1.2687 -0.3185
 3467TIP3   OH234595   5.546   2.084  10.919  0.0701 -0.2705 -0.0067
 3467TIP3    H134596   5.630   2.078  10.964 -0.8634 -0.3204  1.8249
 3467TIP3    H234597   5.528   2.178  10.914 -1.4133 -0.3015  2.9709
 3468TIP3   OH234598   0.293   2.808  10.087  0.0320 -0.0536 -0.0336
 3468TIP3    H134599   0.252   2.723  10.106 -0.5088  0.4325  1.0503
 3468TIP3    H234600   0.371   2.809  10.142 -0.1019  0.2600  0.1496
 3469TIP3   OH234601   0.739   4.101  10.386  0.4294 -0.7898 -0.3857
 3469TIP3    H134602   0.723   4.008  10.370 -0.2326 -0.5310 -1.2757
 3469TIP3    H234603   0.664   4.146  10.347  2.0061  0.2899 -2.3279
 3470TIP3   OH234604   2.992   4.283   9.706  0.2036  0.0990 -0.3481
 3470TIP3    H134605   3.067   4.224   9.706 -0.9903 -1.5407 -2.7968
 3470TIP3    H234606   2.920   4.231   9.742 -0.1769  1.1279  0.4405
 3471TIP3   OH234607   5.801   1.577  10.291  0.3435 -0.0338  0.2307
 3471TIP3    H134608   5.846   1.650  10.334  0.4563  0.0497 -0.0249
 3471TIP3    H234609   5.871   1.517  10.265  0.4496  0.7156 -1.3330
 3472TIP3   OH234610   5.077   2.472  11.508  0.0047 -1.2451 -0.7922
 3472TIP3    H134611   5.141   2.438  11.446 -0.7407 -1.6338 -1.3581
 3472TIP3    H234612   5.070   2.565  11.487 -0.4351 -1.4289 -1.4540
 3473TIP3   OH234613   2.998   3.256  12.949 -0.4829  0.3204 -0.0152
 3473TIP3    H134614   3.009   3.313  13.026 -0.0123 -0.2476  0.3493
 3473TIP3    H234615   2.948   3.181  12.981  0.8651 -0.5669  0.0827
 3474TIP3   OH234616   4.234   1.328  12.452  0.6381 -0.1221  0.0163
 3474TIP3    H134617   4.318   1.313  12.409 -0.1302 -1.3013 -1.1430
 3474TIP3    H234618   4.169   1.301  12.387 -0.6026 -0.5606  1.4018
 3475TIP3   OH234619   5.152   4.374  12.741  0.5838 -0.8712 -0.2650
 3475TIP3    H134620   5.140   4.413  12.828  2.3846  0.5278 -0.5996
 3475TIP3    H234621   5.211   4.301  12.756 -0.8088 -1.9992 -0.0309
 3476TIP3   OH234622   1.058   5.433  11.804  0.1012  0.1217 -0.1934
 3476TIP3    H134623   1.011   5.509  11.837 -0.0177  0.6697 -1.5642
 3476TIP3    H234624   1.036   5.363  11.865  0.3348  1.2094  1.1764
 3477TIP3   OH234625   6.298   1.401  11.352 -0.1387  0.1011  0.1108
 3477TIP3    H134626   6.329   1.488  11.326  1.4902 -1.0238 -2.0208
 3477TIP3    H234627   6.312   1.347  11.274 -1.3962 -2.0211  1.2784
 3478TIP3   OH234628   5.806   1.526  11.072 -0.2153 -0.3282  0.4267
 3478TIP3    H134629   5.818   1.620  11.085  0.3852 -0.5150  1.3084
 3478TIP3    H234630   5.893   1.488  11.086  0.0054 -0.8172 -1.9854
 3479TIP3   OH234631   1.891   3.138  12.992  0.1869  0.3166 -0.3769
 3479TIP3    H134632   1.860   3.144  12.902 -0.5672  3.4572 -0.0354
 3479TIP3    H234633   1.818   3.098  13.039  0.2768 -0.6206 -1.0163
 3480TIP3   OH234634   5.962   3.571  11.062  0.8525  0.2910 -0.4510
 3480TIP3    H134635   5.937   3.572  11.155  0.5172  1.9699 -0.5372
 3480TIP3    H234636   6.057   3.561  11.063  0.7521 -0.8306  0.0178
 3481TIP3   OH234637   1.938   2.349  12.628 -0.1116 -0.0552  0.2144
 3481TIP3    H134638   1.872   2.287  12.658  0.0915 -0.0583  0.6694
 3481TIP3    H234639   1.968   2.392  12.708  1.0931 -0.7114  0.1497
 3482TIP3   OH234640   1.139   2.665  12.852 -0.1430 -0.0906  0.1888
 3482TIP3    H134641   1.225   2.699  12.879  0.8039 -1.2318 -1.2259
 3482TIP3    H234642   1.159   2.580  12.813 -1.9156 -0.2778 -0.3559
 3483TIP3   OH234643   2.667   5.235  12.743  0.1752 -0.0979  0.6130
 3483TIP3    H134644   2.696   5.183  12.818  1.1716 -0.1416  0.2139
 3483TIP3    H234645   2.664   5.173  12.670  2.2900  0.5161 -0.0919
 3484TIP3   OH234646   0.087   5.770  12.199 -0.2058 -0.1556  0.3704
 3484TIP3    H134647   0.096   5.699  12.136 -0.5514  0.0897  0.0485
 3484TIP3    H234648   0.103   5.728  12.284  0.8310 -0.3744  0.0830
 3485TIP3   OH234649   2.932   4.974  10.492  0.5516 -0.4526  0.3861
 3485TIP3    H134650   2.842   4.974  10.458 -0.0844  1.9996  1.8071
 3485TIP3    H234651   2.983   5.020  10.426  0.6535 -1.2507 -0.1070
 3486TIP3   OH234652   2.453   1.376  11.349 -0.2107 -0.2260  0.1372
 3486TIP3    H134653   2.373   1.384  11.296 -0.4923 -2.2917  0.1633
 3486TIP3    H234654   2.466   1.463  11.387 -0.7920  0.9262 -2.1810
 3487TIP3   OH234655   6.254   1.286  13.160 -0.3754  0.6213 -0.8097
 3487TIP3    H134656   6.324   1.345  13.135  1.0946 -0.1200  1.2386
 3487TIP3    H234657   6.294   1.199  13.160 -1.8274 -0.0883 -1.4137
 3488TIP3   OH234658   5.660   1.961  12.311  0.3004  0.3180 -0.2855
 3488TIP3    H134659   5.721   1.916  12.253  0.8624  1.6180 -0.7439
 3488TIP3    H234660   5.617   1.891  12.359  0.6741 -0.7330 -1.4255
 3489TIP3   OH234661   5.294   5.510  12.177  0.1146 -0.2357 -0.4286
 3489TIP3    H134662   5.224   5.462  12.133  0.0938  0.1098 -0.7753
 3489TIP3    H234663   5.374   5.481  12.133  0.0711  0.2863 -0.8505
 3490TIP3   OH234664   2.127   5.006   9.977  0.2389  0.2890 -1.3550
 3490TIP3    H134665   2.196   4.952  10.016 -0.8795  0.3058  0.7727
 3490TIP3    H234666   2.125   4.978   9.885  2.9644  0.2190 -1.5019
 3491TIP3   OH234667   0.482   3.187  11.932  0.7423  0.2321  0.0691
 3491TIP3    H134668   0.444   3.272  11.907  1.0473  0.8523  1.5943
 3491TIP3    H234669   0.410   3.125  11.920  0.2114  0.8646 -0.1348
 3492TIP3   OH234670   1.034   1.135  10.008 -0.1439 -0.7997  0.2890
 3492TIP3    H134671   0.995   1.055  10.045  0.6081 -0.6209  1.5326
 3492TIP3    H234672   0.965   1.171   9.953 -1.6326 -0.7025  2.1040
 3493TIP3   OH234673   0.671   0.335  11.782 -0.0870 -0.0249 -0.2229
 3493TIP3    H134674   0.658   0.253  11.829 -0.2006 -0.0672 -0.3279
 3493TIP3    H234675   0.644   0.403  11.843  2.2542  0.1104  0.8038
 3494TIP3   OH234676   3.646   5.378  10.163 -0.4857  0.2100 -0.5274
 3494TIP3    H134677   3.685   5.378  10.076  2.0436  0.5394  0.5170
 3494TIP3    H234678   3.720   5.366  10.223 -2.0379  0.6753  1.6286
 3495TIP3   OH234679   6.053   0.167  12.248  0.3004  0.1846 -0.1842
 3495TIP3    H134680   5.958   0.174  12.242  0.1999 -0.4651  0.3992
 3495TIP3    H234681   6.087   0.230  12.185 -0.5240 -0.8916 -1.7606
 3496TIP3   OH234682   1.407   4.335  11.791  0.2825 -0.5338 -0.3078
 3496TIP3    H134683   1.451   4.360  11.872  2.0912  0.0960 -1.4082
 3496TIP3    H234684   1.342   4.403  11.776  0.7774  0.0120 -0.0050
 3497TIP3   OH234685   0.957   3.078  11.553 -0.2351  0.2416 -0.6115
 3497TIP3    H134686   1.043   3.114  11.571  0.5588 -1.8109  0.0338
 3497TIP3    H234687   0.973   2.985  11.536 -2.1314  0.1458 -2.2688
 3498TIP3   OH234688   4.247   3.893  11.612  0.6198 -0.0507  0.2466
 3498TIP3    H134689   4.175   3.850  11.568 -0.2141 -2.1613  3.3822
 3498TIP3    H234690   4.206   3.960  11.667  0.7427 -1.9311  2.8318
 3499TIP3   OH234691   2.197   4.626  11.760  0.0700 -1.0474 -0.2230
 3499TIP3    H134692   2.226   4.553  11.815  0.4420  0.3513  1.5405
 3499TIP3    H234693   2.279   4.667  11.731 -0.0155  0.5470  1.5119
 3500TIP3   OH234694   5.063   3.606  11.086 -0.5786 -0.0995 -0.2683
 3500TIP3    H134695   5.020   3.537  11.035  1.4856 -2.3444  0.8045
 3500TIP3    H234696   5.041   3.586  11.177  1.0317 -0.1345  0.1472
 3501TIP3   OH234697   4.630   5.214  10.758  0.1471 -0.3491 -0.2967
 3501TIP3    H134698   4.684   5.256  10.691  1.0188  2.1194  1.7940
 3501TIP3    H234699   4.608   5.284  10.819  2.1726 -2.9132  3.8376
 3502TIP3   OH234700   0.961   2.453  12.975  0.0938 -0.2270 -0.2098
 3502TIP3    H134701   0.872   2.483  12.990  0.7862  1.8737 -0.0530
 3502TIP3    H234702   1.003   2.524  12.927  1.8430 -0.9314  0.1889
 3503TIP3   OH234703   0.054   3.984   9.892 -0.6659 -0.2876 -0.1970
 3503TIP3    H134704  -0.014   3.943   9.945 -0.1989 -1.4566 -0.4865
 3503TIP3    H234705   0.072   3.922   9.822  0.3927  0.1996 -0.3800
 3504TIP3   OH234706   1.240   5.157  11.581  0.2215 -0.1769 -0.0740
 3504TIP3    H134707   1.167   5.104  11.613  0.1360  0.1163  0.2254
 3504TIP3    H234708   1.283   5.188  11.660  2.6571 -2.9679 -0.1304
 3505TIP3   OH234709   1.564   6.794  10.391  0.1356 -0.0131  0.1891
 3505TIP3    H134710   1.575   6.699  10.396  0.1410  0.0457  1.9374
 3505TIP3    H234711   1.470   6.808  10.402  0.0339  0.1734 -0.7945
 3506TIP3   OH234712   3.967   1.810  12.586  0.7298  0.1391 -0.0310
 3506TIP3    H134713   4.011   1.731  12.617  1.6941  0.7325  0.1297
 3506TIP3    H234714   3.989   1.815  12.493 -2.9870 -2.2071 -1.2908
 3507TIP3   OH234715   5.316   4.640  12.113 -0.1531 -0.4601  0.7116
 3507TIP3    H134716   5.345   4.615  12.200  0.1714  0.4363  0.8696
 3507TIP3    H234717   5.246   4.578  12.092  0.1268 -1.0082  1.3887
 3508TIP3   OH234718   3.329   0.334  11.007 -0.3389 -0.0716  0.5550
 3508TIP3    H134719   3.324   0.250  10.962  1.4735 -0.7011  1.4681
 3508TIP3    H234720   3.241   0.347  11.043 -1.5097 -0.1101 -2.0434
 3509TIP3   OH234721   2.958   0.984  13.108 -0.0584  0.0560 -0.0296
 3509TIP3    H134722   2.956   0.889  13.107 -0.3018 -0.0292  2.3389
 3509TIP3    H234723   2.866   1.010  13.110 -0.0197  0.1871  2.1738
 3510TIP3   OH234724   2.348   0.289  11.887  0.2238  0.7374 -0.3712
 3510TIP3    H134725   2.416   0.324  11.830 -0.3770  0.1967 -1.4596
 3510TIP3    H234726   2.308   0.219  11.835 -0.7343  0.6282  0.4983
 3511TIP3   OH234727   5.563   1.688   9.816  0.5043 -0.0368 -0.1991
 3511TIP3    H134728   5.526   1.606   9.784  0.3846 -0.5408  1.1498
 3511TIP3    H234729   5.657   1.680   9.801  0.5746 -0.7288  0.5233
 3512TIP3   OH234730   5.298   5.890  11.632  0.3522  0.0108 -0.7908
 3512TIP3    H134731   5.238   5.815  11.641 -1.7110  1.6876  0.3898
 3512TIP3    H234732   5.383   5.854  11.656 -0.6290 -1.9018  0.1693
 3513TIP3   OH234733   4.861   4.246  11.357  0.4315  0.4612 -0.0248
 3513TIP3    H134734   4.937   4.191  11.341  0.8599  0.6345  1.2428
 3513TIP3    H234735   4.857   4.253  11.453 -1.6054 -0.1424 -0.0101
 3514TIP3   OH234736   4.273   4.172  12.686 -0.0569  0.3205  0.5134
 3514TIP3    H134737   4.321   4.155  12.767 -0.3406  3.1566  1.3755
 3514TIP3    H234738   4.180   4.165  12.711 -0.1900 -2.1378 -0.4341
 3515TIP3   OH234739   4.769   3.034  12.262  0.0532  0.1336  0.4877
 3515TIP3    H134740   4.844   2.998  12.309 -0.5979  0.3445  1.7128
 3515TIP3    H234741   4.792   3.024  12.169  0.8746 -1.3107  0.8215
 3516TIP3   OH234742   6.056   0.084  10.946 -0.0984  0.1234  0.2130
 3516TIP3    H134743   6.086  -0.001  10.979  0.8483  0.0491 -0.7993
 3516TIP3    H234744   6.110   0.101  10.869 -0.1806  1.7172  0.4747
 3517TIP3   OH234745   4.528   4.835   9.704 -0.1091  0.2325  0.6941
 3517TIP3    H134746   4.460   4.903   9.703 -0.6712 -0.2572 -1.7026
 3517TIP3    H234747   4.606   4.880   9.671 -0.7275 -0.3768 -1.8762
 3518TIP3   OH234748   2.944   6.609  10.386  0.2699  0.3314 -0.6590
 3518TIP3    H134749   3.037   6.629  10.375  0.3985  0.8730  1.0948
 3518TIP3    H234750   2.929   6.615  10.480 -1.3434 -0.7060 -0.8099
 3519TIP3   OH234751   4.212   0.106  11.977  0.6157  0.2014 -0.1317
 3519TIP3    H134752   4.127   0.063  11.991  1.6193 -1.7557  0.3845
 3519TIP3    H234753   4.208   0.139  11.887 -0.5404 -0.2721 -0.2707
 3520TIP3   OH234754   1.355   2.160  13.163  0.3647 -0.5452 -0.2369
 3520TIP3    H134755   1.422   2.208  13.211  0.6476 -0.4426 -0.7298
 3520TIP3    H234756   1.349   2.075  13.207  1.8040 -1.0838 -1.0272
 3521TIP3   OH234757   5.648   5.233  12.192  0.0137 -0.0219  0.2640
 3521TIP3    H134758   5.574   5.293  12.178 -1.2113 -1.6568 -0.7236
 3521TIP3    H234759   5.641   5.170  12.120  2.3767 -0.2744  0.1839
 3522TIP3   OH234760   6.187   3.062   9.402  0.2801 -0.5314  0.4977
 3522TIP3    H134761   6.269   3.019   9.377  0.2995  0.1697 -0.7284
 3522TIP3    H234762   6.194   3.150   9.365 -0.8285 -0.3044  0.8030
 3523TIP3   OH234763   4.114   5.968  12.980 -0.3777 -0.5332 -0.5237
 3523TIP3    H134764   4.153   5.962  13.067 -1.5272  1.5549  0.2130
 3523TIP3    H234765   4.175   6.022  12.930 -0.4487 -0.4862 -0.5590
 3524TIP3   OH234766   4.034   5.689  11.629  0.0506 -0.1996 -0.1485
 3524TIP3    H134767   3.977   5.716  11.701 -0.9128 -2.0133 -0.1712
 3524TIP3    H234768   4.121   5.717  11.656 -0.5404  0.7733  0.8618
 3525TIP3   OH234769   5.767   5.593  11.031 -0.2137 -0.4454  0.5036
 3525TIP3    H134770   5.762   5.574  11.125  0.0852  2.1026  1.0995
 3525TIP3    H234771   5.715   5.672  11.020 -0.1942 -0.6680 -1.4896
 3526TIP3   OH234772   3.652   4.198  11.620 -0.0377  0.1635  0.4696
 3526TIP3    H134773   3.636   4.118  11.671  1.0864 -0.8229 -0.6697
 3526TIP3    H234774   3.591   4.191  11.546 -0.9854  1.1251  1.1213
 3527TIP3   OH234775   4.588   2.254  12.027  0.4937 -0.0997  0.1354
 3527TIP3    H134776   4.636   2.325  11.987 -0.1032 -0.7682 -1.8703
 3527TIP3    H234777   4.509   2.244  11.973 -0.9033 -0.3775  2.0968
 3528TIP3   OH234778   0.290   2.026  10.751 -0.2653 -0.0423  0.0070
 3528TIP3    H134779   0.277   1.950  10.694 -1.4552 -0.5584  0.9289
 3528TIP3    H234780   0.301   2.099  10.690  0.8129 -0.9239 -0.8899
 3529TIP3   OH234781   3.424   5.733  10.737 -0.6821 -0.3458  0.2807
 3529TIP3    H134782   3.390   5.693  10.657 -0.2920  2.3216 -1.3561
 3529TIP3    H234783   3.443   5.824  10.711  1.1017  0.1375  2.9692
 3530TIP3   OH234784   5.236   3.822  11.126 -1.0477  0.4377 -0.2322
 3530TIP3    H134785   5.274   3.817  11.214  0.4134 -0.1613 -0.8706
 3530TIP3    H234786   5.194   3.737  11.113 -0.8245  0.3362 -0.2975
 3531TIP3   OH234787   2.689   6.184  10.984  0.3285 -0.0864  0.4317
 3531TIP3    H134788   2.600   6.189  10.949  1.3573 -0.5107 -2.4662
 3531TIP3    H234789   2.713   6.275  11.001  0.0678  0.2430 -0.8509
 3532TIP3   OH234790   6.118   6.404  10.785  0.2564  0.4655  0.5689
 3532TIP3    H134791   6.210   6.412  10.809  0.0797 -0.5810  1.6760
 3532TIP3    H234792   6.075   6.476  10.832  0.3882  0.4773  0.6704
 3533TIP3   OH234793   3.349   4.374  10.748 -0.0075 -0.2560  0.2216
 3533TIP3    H134794   3.345   4.284  10.780 -2.9358  0.0109  0.9031
 3533TIP3    H234795   3.297   4.373  10.668  0.2289  0.7627  0.0412
 3534TIP3   OH234796   2.142   6.491  11.414  0.1896  0.0375  0.3000
 3534TIP3    H134797   2.188   6.552  11.355 -0.6429  1.1254  0.7419
 3534TIP3    H234798   2.067   6.541  11.446 -1.9471 -2.0065 -1.2116
 3535TIP3   OH234799   2.431   6.803  13.028 -0.2173  0.5094  0.4252
 3535TIP3    H134800   2.382   6.729  13.064  0.5946  0.8350  2.2776
 3535TIP3    H234801   2.377   6.879  13.047 -1.2953  0.4135 -1.9258
 3536TIP3   OH234802   6.475   5.510  11.870 -0.1978  0.0599  0.0451
 3536TIP3    H134803   6.539   5.527  11.939 -0.2183 -0.4877  0.2025
 3536TIP3    H234804   6.472   5.592  11.820 -1.1614  0.9365  1.4650
 3537TIP3   OH234805   6.047   3.336  11.217 -0.1210  0.3647 -0.3286
 3537TIP3    H134806   5.987   3.379  11.278 -1.0609  1.7377 -2.1096
 3537TIP3    H234807   6.094   3.408  11.175 -1.0921 -0.2893 -2.7597
 3538TIP3   OH234808   4.085   4.066  11.061  0.1171  0.1645  0.3423
 3538TIP3    H134809   4.081   4.066  11.156  2.0672 -0.5076  0.4681
 3538TIP3    H234810   4.176   4.089  11.041 -0.2547  0.2954 -1.3633
 3539TIP3   OH234811   6.568   6.198  11.421  0.2888  0.1152  0.0929
 3539TIP3    H134812   6.497   6.258  11.444  0.4460  1.0007 -1.5880
 3539TIP3    H234813   6.637   6.218  11.484  0.4861  2.0250 -0.6557
 3540TIP3   OH234814   4.161   4.519  12.873  0.0477 -0.1466  0.2608
 3540TIP3    H134815   4.128   4.541  12.786 -1.4396 -0.3465  0.7280
 3540TIP3    H234816   4.176   4.603  12.916  3.0058  0.0276 -0.8913
 3541TIP3   OH234817   0.408   2.060  11.701  0.3833 -0.4790 -0.0867
 3541TIP3    H134818   0.470   1.986  11.697 -1.4211 -2.1222  0.8385
 3541TIP3    H234819   0.407   2.085  11.793  1.1268  0.8872 -0.4249
 3542TIP3   OH234820   2.804   0.118   9.796 -0.4641 -0.4527 -0.3135
 3542TIP3    H134821   2.721   0.153   9.830  1.4445  2.6000  1.6404
 3542TIP3    H234822   2.807   0.150   9.706 -0.9172  0.4223 -0.0376
 3543TIP3   OH234823   3.219   5.714  12.700  0.0694 -0.2394 -0.5462
 3543TIP3    H134824   3.190   5.627  12.726 -0.5489  0.4186  1.1083
 3543TIP3    H234825   3.312   5.716  12.723 -0.1318 -0.1635  0.2898
 3544TIP3   OH234826   2.158   6.787  10.315  0.6347  0.6178 -0.4672
 3544TIP3    H134827   2.133   6.695  10.323 -1.2611  1.1489  0.2094
 3544TIP3    H234828   2.153   6.805  10.222  1.5444 -0.0880 -0.6668
 3545TIP3   OH234829   2.882   1.309   9.830  0.1762 -0.1666 -0.1897
 3545TIP3    H134830   2.957   1.260   9.794 -0.0161  0.0716 -0.9350
 3545TIP3    H234831   2.908   1.330   9.920  0.5081 -1.1153 -0.0597
 3546TIP3   OH234832   6.118   2.243  11.690  0.2950  0.0114 -0.3867
 3546TIP3    H134833   6.032   2.240  11.731  0.5218  1.0061  0.1927
 3546TIP3    H234834   6.145   2.334  11.697  1.5537 -0.3491 -0.2310
 3547TIP3   OH234835   3.882   4.848  12.187 -0.0515  0.1810  0.1397
 3547TIP3    H134836   3.815   4.908  12.156  0.3978  0.1403 -0.9823
 3547TIP3    H234837   3.938   4.901  12.244  0.5170  0.9486 -1.0712
 3548TIP3   OH234838   2.941   0.835  10.649  0.1012 -0.0515  0.1215
 3548TIP3    H134839   2.923   0.775  10.722 -3.6327  0.2089 -0.3944
 3548TIP3    H234840   2.971   0.778  10.578 -0.6208 -0.9465  0.5140
 3549TIP3   OH234841   5.198   5.783  12.928  0.5241 -0.1693  0.2920
 3549TIP3    H134842   5.113   5.769  12.888  0.8702  0.1432 -0.5750
 3549TIP3    H234843   5.246   5.837  12.865  1.0378  0.4516  1.1870
 3550TIP3   OH234844   3.367   0.088  12.997 -0.1596  0.3045 -0.1626
 3550TIP3    H134845   3.420   0.035  12.938  0.6640  0.3933  0.4753
 3550TIP3    H234846   3.427   0.155  13.030 -0.5849  0.2412  0.7832
 3551TIP3   OH234847   0.726   3.803  11.043  0.0251  0.2558  0.0444
 3551TIP3    H134848   0.811   3.777  11.008 -0.0394  0.4183 -0.2349
 3551TIP3    H234849   0.725   3.898  11.037 -0.5128  0.2098 -0.7464
 3552TIP3   OH234850   1.602   0.875   9.197 -0.0601 -0.3878 -0.0707
 3552TIP3    H134851   1.515   0.843   9.173 -0.0795 -0.0961 -0.4022
 3552TIP3    H234852   1.604   0.966   9.165  1.0887 -0.9987 -1.8808
 3553TIP3   OH234853   1.496   2.804   9.951  0.3808  0.1118  0.2563
 3553TIP3    H134854   1.560   2.742   9.916  0.3750 -0.7523  1.7078
 3553TIP3    H234855   1.426   2.748   9.986  0.0572  0.9595  0.9830
 3554TIP3   OH234856   3.347   0.720  10.761  0.1849 -0.3600 -0.0235
 3554TIP3    H134857   3.300   0.673  10.830  1.1292 -0.4991  0.5348
 3554TIP3    H234858   3.345   0.661  10.685  1.4302 -1.3604  0.6933
 3555TIP3   OH234859   6.331   0.407  10.246  0.3106  0.1515  0.0397
 3555TIP3    H134860   6.317   0.321  10.207  3.2183 -0.1250 -0.6450
 3555TIP3    H234861   6.346   0.465  10.171  0.0703  0.9079  0.5664
 3556TIP3   OH234862   3.164   1.173  11.370  0.4115  0.3494 -0.2121
 3556TIP3    H134863   3.135   1.245  11.314 -0.7228  0.5843  0.6490
 3556TIP3    H234864   3.257   1.162  11.348  0.3501  1.3875 -1.0903
 3557TIP3   OH234865   0.120   3.443  11.984  0.3322  0.2922 -0.3014
 3557TIP3    H134866   0.060   3.513  11.962  0.1122  0.1777 -0.0756
 3557TIP3    H234867   0.078   3.397  12.057  0.8082  0.3601  0.0212
 3558TIP3   OH234868   1.395   3.921  10.527 -0.8724 -0.2952  0.6409
 3558TIP3    H134869   1.341   3.920  10.607 -0.3567 -0.2914  0.9897
 3558TIP3    H234870   1.364   3.845  10.477 -0.4794 -0.9254  1.3302
 3559TIP3   OH234871   2.060   0.442  10.582  0.4338 -0.1361  0.5387
 3559TIP3    H134872   2.083   0.427  10.673 -2.5482 -1.3382  1.1928
 3559TIP3    H234873   2.037   0.535  10.578  1.3102  0.1071  0.7664
 3560TIP3   OH234874   1.639   3.104  11.661  0.5489 -0.1541 -0.0274
 3560TIP3    H134875   1.614   3.022  11.617 -1.0647 -0.3920  1.1904
 3560TIP3    H234876   1.584   3.171  11.620  0.4137 -0.0490  0.3180
 3561TIP3   OH234877   6.358   2.473  11.028 -0.1950 -0.6044  0.1938
 3561TIP3    H134878   6.305   2.483  10.949 -0.7022 -0.7636  0.5129
 3561TIP3    H234879   6.343   2.383  11.056 -0.1145 -0.5110  0.5438
 3562TIP3   OH234880   3.389   4.140   9.792 -0.0890 -0.0550 -0.0768
 3562TIP3    H134881   3.304   4.151   9.835 -0.4774 -1.8825 -0.2846
 3562TIP3    H234882   3.370   4.088   9.714  1.2059 -0.4266 -0.1707
 3563TIP3   OH234883   4.358   1.378  10.467  0.0049 -0.1780  0.3067
 3563TIP3    H134884   4.350   1.371  10.372 -1.6084 -0.9270  0.4674
 3563TIP3    H234885   4.268   1.379  10.498  0.5062  0.7015  1.7974
 3564TIP3   OH234886   5.835   5.250  12.415 -0.1792  0.2387  0.1522
 3564TIP3    H134887   5.759   5.245  12.357 -1.1096  1.9462  1.1285
 3564TIP3    H234888   5.902   5.296  12.364  0.4020 -1.6220 -0.8541
 3565TIP3   OH234889   2.317   2.206  10.162 -0.2150  0.3196 -0.0970
 3565TIP3    H134890   2.292   2.271  10.096 -0.8503 -0.4100 -0.5817
 3565TIP3    H234891   2.333   2.126  10.112  1.2040  0.2535  0.4197
 3566TIP3   OH234892   3.230   0.812   9.794  0.1307  0.3178  0.3693
 3566TIP3    H134893   3.180   0.735   9.821  0.8287 -0.0810  0.5787
 3566TIP3    H234894   3.172   0.886   9.809 -0.9376 -0.2396 -0.7836
 3567TIP3   OH234895   1.012   0.988  12.989 -0.5250 -0.2976 -0.7455
 3567TIP3    H134896   1.045   0.903  13.019 -0.6426 -0.0358  0.1555
 3567TIP3    H234897   0.991   1.035  13.070 -0.3251  0.6458 -1.2363
 3568TIP3   OH234898   4.601   5.796  12.146  0.2289 -0.0847  0.4837
 3568TIP3    H134899   4.553   5.738  12.206  0.7564 -0.5940  0.4215
 3568TIP3    H234900   4.619   5.874  12.198  1.3560 -0.8335  1.2476
 3569TIP3   OH234901   3.526   3.613  12.782  0.4864 -0.5680 -0.4081
 3569TIP3    H134902   3.463   3.626  12.853  1.4830  1.1677  0.2073
 3569TIP3    H234903   3.612   3.628  12.822  1.1405 -0.5116 -1.7591
 3570TIP3   OH234904   5.685   6.771  13.073  0.5276  0.4401 -0.2992
 3570TIP3    H134905   5.599   6.730  13.066  0.2104  1.2928 -1.9910
 3570TIP3    H234906   5.686   6.811  13.160 -0.3289 -0.5402  0.1846
 3571TIP3   OH234907   6.099   4.735  12.259 -0.0684 -0.1304 -0.0031
 3571TIP3    H134908   6.049   4.746  12.178 -0.8214  1.1889  0.5948
 3571TIP3    H234909   6.153   4.814  12.264 -0.3474  0.0171  0.9660
 3572TIP3   OH234910   4.775   3.183  10.784  0.1406 -0.1416 -0.4862
 3572TIP3    H134911   4.683   3.184  10.811  0.1686  1.4830 -0.3342
 3572TIP3    H234912   4.817   3.121  10.844 -0.3752  1.1082  1.2381
 3573TIP3   OH234913   0.812   5.187  11.902 -0.3108 -0.1584 -0.0845
 3573TIP3    H134914   0.776   5.194  11.813 -0.0721  0.9080 -0.1111
 3573TIP3    H234915   0.875   5.115  11.896  0.1692  0.3074 -0.9569
 3574TIP3   OH234916   6.146   2.506  11.738  0.4554  0.0527 -0.1006
 3574TIP3    H134917   6.135   2.489  11.831  5.6937  1.0324  0.9984
 3574TIP3    H234918   6.114   2.596  11.726 -0.4614 -0.1638  0.6643
 3575TIP3   OH234919   6.853   4.638  10.624 -0.1715 -0.0363  1.0143
 3575TIP3    H134920   6.941   4.616  10.593  0.3662 -1.0918  3.0668
 3575TIP3    H234921   6.846   4.733  10.612  0.9979 -0.0315  0.2513
 3576TIP3   OH234922   6.417   2.228  10.221  0.0860 -0.4462  0.1895
 3576TIP3    H134923   6.361   2.304  10.238  0.1566 -1.0815  3.9146
 3576TIP3    H234924   6.471   2.255  10.147 -2.1222  1.8227 -0.7678
 3577TIP3   OH234925   3.067   3.185  11.695 -0.0570  0.3165 -0.6939
 3577TIP3    H134926   3.148   3.193  11.747 -0.1342  0.2507 -0.5619
 3577TIP3    H234927   3.003   3.238  11.743 -0.7554 -1.5216  0.5493
 3578TIP3   OH234928   4.470   4.787  10.701  0.0917 -0.0261 -0.4804
 3578TIP3    H134929   4.492   4.829  10.618  0.8685  0.3962 -0.0768
 3578TIP3    H234930   4.376   4.800  10.711  0.0711  0.3052 -1.0785
 3579TIP3   OH234931   2.424   3.075  10.503  0.3977 -0.2304 -0.4812
 3579TIP3    H134932   2.371   2.997  10.489  1.2732 -0.8506 -0.4045
 3579TIP3    H234933   2.500   3.044  10.553 -0.2583  1.0380  1.4233
 3580TIP3   OH234934   3.080   6.221  11.816 -0.5846  0.1007 -0.1191
 3580TIP3    H134935   3.165   6.263  11.804 -0.0920 -0.5857  0.8281
 3580TIP3    H234936   3.066   6.221  11.911 -2.8205  2.4178 -0.3496
 3581TIP3   OH234937   2.680   5.057  10.422 -0.5946 -0.3737 -0.0045
 3581TIP3    H134938   2.604   5.034  10.369  0.1308 -0.6692 -0.9604
 3581TIP3    H234939   2.679   5.153  10.425 -0.1579 -0.3117 -1.3244
 3582TIP3   OH234940   5.211   3.414  10.491  0.4125  0.3767  0.0493
 3582TIP3    H134941   5.272   3.432  10.563  0.2477  0.4146  0.1791
 3582TIP3    H234942   5.182   3.501  10.462 -2.7625  0.3738  2.6941
 3583TIP3   OH234943   6.109   6.351  10.488  0.2505 -0.1231  0.1148
 3583TIP3    H134944   6.110   6.275  10.546  0.0414 -0.5025 -0.3663
 3583TIP3    H234945   6.033   6.402  10.516  0.6968  0.1882  0.7819
 3584TIP3   OH234946   5.928   6.523  10.551 -0.0341  0.5850 -0.3744
 3584TIP3    H134947   5.848   6.571  10.573 -0.9301 -1.2206  0.5325
 3584TIP3    H234948   5.999   6.580  10.578 -1.0629  0.8997  1.8673
 3585TIP3   OH234949   2.625   3.322  12.091 -0.2181  0.0112 -0.1598
 3585TIP3    H134950   2.632   3.259  12.018  0.8660  1.1479 -1.0799
 3585TIP3    H234951   2.604   3.405  12.049 -1.0017  0.4111  0.9832
 3586TIP3   OH234952   6.376   0.493  11.085  0.0473  0.0983 -0.5460
 3586TIP3    H134953   6.400   0.429  11.019  1.7864  0.0350  0.1039
 3586TIP3    H234954   6.349   0.570  11.035 -0.5207 -0.5825 -1.3175
 3587TIP3   OH234955   5.495   5.483  10.790 -0.8894  0.0532 -0.1999
 3587TIP3    H134956   5.568   5.514  10.737  0.4193  0.5218  1.8057
 3587TIP3    H234957   5.418   5.496  10.734  0.5509 -0.8649 -2.5348
 3588TIP3   OH234958   3.716   0.596  12.749 -0.3937  0.2812  0.2271
 3588TIP3    H134959   3.665   0.611  12.670 -0.8585 -0.3609  0.3931
 3588TIP3    H234960   3.774   0.671  12.755  1.2901 -0.7101 -1.9904
 3589TIP3   OH234961   2.806   5.322  10.518  0.3419  0.1375 -0.0961
 3589TIP3    H134962   2.892   5.289  10.492  0.3716  0.6489 -0.6715
 3589TIP3    H234963   2.797   5.405  10.472 -0.7429 -0.2260 -0.5743
 3590TIP3   OH234964   5.646   4.520  11.455  0.9659  0.6354  0.1817
 3590TIP3    H134965   5.589   4.448  11.482  0.5526  1.3639  1.3214
 3590TIP3    H234966   5.734   4.483  11.456  0.7960  0.2396  1.1101
 3591TIP3   OH234967   2.378   4.066   9.870 -0.1282  0.1625 -0.7266
 3591TIP3    H134968   2.337   3.982   9.887  0.7101  0.0932  1.2165
 3591TIP3    H234969   2.322   4.130   9.914 -0.0542  0.4808 -1.0841
 3592TIP3   OH234970   5.662   3.304  13.348 -0.1524 -0.7108 -0.1217
 3592TIP3    H134971   5.730   3.370  13.340 -0.4922  0.3091  3.6672
 3592TIP3    H234972   5.582   3.348  13.320  0.1321 -0.6564 -0.8665
 3593TIP3   OH234973   2.844   6.194  11.653  0.4076  0.1269  0.1964
 3593TIP3    H134974   2.925   6.226  11.694 -0.0338 -0.8194  1.8656
 3593TIP3    H234975   2.779   6.261  11.674  0.1350 -0.4551  1.2529
 3594TIP3   OH234976   0.112   1.597  10.903  0.7457 -1.3592 -0.0290
 3594TIP3    H134977   0.187   1.653  10.923  2.3799 -3.4546  0.0885
 3594TIP3    H234978   0.104   1.540  10.979 -1.3006 -0.9124  0.1549
 3595TIP3   OH234979   1.693   3.901  10.538  0.1380 -0.2204  0.2436
 3595TIP3    H134980   1.602   3.892  10.512  0.1563 -0.0082  0.1030
 3595TIP3    H234981   1.722   3.982  10.495  0.5758 -0.6272 -0.2486
 3596TIP3   OH234982   1.472   5.241  12.159 -0.0128 -0.3713 -0.0877
 3596TIP3    H134983   1.518   5.311  12.112  0.2728 -0.3784  0.1705
 3596TIP3    H234984   1.528   5.164  12.147 -0.6367 -0.7074 -0.8809
 3597TIP3   OH234985   4.564   0.198  12.324 -0.2411  0.0516 -0.2214
 3597TIP3    H134986   4.639   0.245  12.288 -0.5349  1.1111  0.5010
 3597TIP3    H234987   4.518   0.164  12.248  1.7482 -1.8929 -0.6318
 3598TIP3   OH234988   0.324   4.515  12.677 -0.5211  0.1336  0.0797
 3598TIP3    H134989   0.363   4.493  12.762  0.0896  3.4063  0.7757
 3598TIP3    H234990   0.385   4.478  12.613  0.3735 -0.2225  1.0967
 3599TIP3   OH234991   3.968   6.206  11.129 -0.4123 -0.1401  0.0450
 3599TIP3    H134992   4.013   6.157  11.198 -0.6105 -0.8099 -0.2847
 3599TIP3    H234993   3.944   6.139  11.065 -1.2686  0.3069 -0.1109
 3600TIP3   OH234994   5.780   0.744  12.479 -0.1646 -0.2169 -0.0358
 3600TIP3    H134995   5.765   0.671  12.419 -1.8437 -0.8411  1.0752
 3600TIP3    H234996   5.867   0.726  12.516  0.8710  0.1416 -2.1316
 3601TIP3   OH234997   4.001   1.501  10.299  0.0321 -0.0408  0.0611
 3601TIP3    H134998   3.913   1.535  10.280  0.3470  1.0567  0.5367
 3601TIP3    H234999   4.013   1.431  10.234  0.1860  2.1157 -2.3984
 3602TIP3   OH235000   0.871   4.680  10.435  0.3402 -0.4546 -0.1173
 3602TIP3    H135001   0.861   4.750  10.370  1.3635 -0.9664 -0.8582
 3602TIP3    H235002   0.906   4.606  10.385  2.5205 -0.4246  1.2192
 3603TIP3   OH235003   1.159   2.612  12.525 -0.5784  0.1867  0.5962
 3603TIP3    H135004   1.154   2.671  12.449  3.6051 -1.4107 -1.2226
 3603TIP3    H235005   1.201   2.665  12.593 -0.2668  0.3955  0.2469
 3604TIP3   OH235006   0.344   3.536  10.418  0.5334 -0.6694 -0.1923
 3604TIP3    H135007   0.419   3.594  10.426 -0.7637  1.0923 -0.1049
 3604TIP3    H235008   0.303   3.538  10.505  0.9407 -2.5025  0.1059
 3605TIP3   OH235009   0.107   1.509  11.206 -0.7993  0.3026 -0.2468
 3605TIP3    H135010   0.034   1.448  11.217  0.4621 -1.3267 -0.5391
 3605TIP3    H235011   0.099   1.570  11.280 -0.3427 -2.1269  1.9665
 3606TIP3   OH235012   3.443   6.407  12.377  0.2103  0.6299 -0.3639
 3606TIP3    H135013   3.377   6.441  12.438 -0.0861  0.1488 -0.4059
 3606TIP3    H235014   3.411   6.320  12.354 -0.4231  1.3108 -2.2921
 3607TIP3   OH235015   0.840   4.777  11.323 -0.0623  0.1428  0.0966
 3607TIP3    H135016   0.850   4.707  11.259  2.0000  1.9443 -1.7588
 3607TIP3    H235017   0.906   4.757  11.391 -0.3458 -0.3449  0.2302
 3608TIP3   OH235018   0.272   2.894  12.715 -0.3410  0.0558 -0.1864
 3608TIP3    H135019   0.305   2.967  12.662 -0.6615  0.6308  0.3915
 3608TIP3    H235020   0.311   2.908  12.801  0.5857 -1.1603 -0.3863
 3609TIP3   OH235021   1.966   4.795  12.374 -0.2374 -0.1258 -0.1230
 3609TIP3    H135022   2.033   4.727  12.372  0.7478  0.8196 -0.0572
 3609TIP3    H235023   1.981   4.847  12.296 -0.2556  0.6823  0.3959
 3610TIP3   OH235024   0.780   3.669  11.743 -0.3600 -0.3044 -0.4483
 3610TIP3    H135025   0.787   3.762  11.721  1.0933  0.0176  1.1423
 3610TIP3    H235026   0.855   3.628  11.700  0.6402 -0.2086  1.1083
 3611TIP3   OH235027   4.854   4.380  12.098 -0.0591 -0.3056 -0.3435
 3611TIP3    H135028   4.887   4.466  12.074  0.6027 -0.5979 -0.4906
 3611TIP3    H235029   4.854   4.379  12.193  2.0341 -0.9229 -0.3140
 3612TIP3   OH235030   5.492   3.317  12.368  0.1298  0.1640 -0.8802
 3612TIP3    H135031   5.517   3.225  12.357  0.1469  0.2698 -1.7745
 3612TIP3    H235032   5.556   3.365  12.315  0.5435  0.7454  0.1308
 3613TIP3   OH235033   0.025   1.172  10.720 -0.3056 -0.0138 -1.0748
 3613TIP3    H135034   0.094   1.232  10.748  0.4584 -0.3416 -2.1700
 3613TIP3    H235035   0.071   1.090  10.700 -1.4925 -1.4862  1.7397
 3614TIP3   OH235036   3.757   2.437  10.983 -0.2818 -0.1982 -0.3052
 3614TIP3    H135037   3.758   2.352  11.025  0.8290 -1.0456 -1.9222
 3614TIP3    H235038   3.823   2.489  11.030  0.8823 -1.0944 -0.8969
 3615TIP3   OH235039   0.386   3.260  10.381  0.0908  0.2734  0.2441
 3615TIP3    H135040   0.403   3.353  10.397  0.9672  0.0149  0.8619
 3615TIP3    H235041   0.454   3.233  10.319  0.7883 -0.3045  1.2301
 3616TIP3   OH235042   3.535   2.584  10.874 -0.2413  0.0780  0.4304
 3616TIP3    H135043   3.475   2.607  10.944 -0.0667 -1.9554  1.3129
 3616TIP3    H235044   3.601   2.528  10.915  0.8870  0.2716 -1.0080
 3617TIP3   OH235045   0.769   3.294  10.716  0.0948  0.2453 -0.2538
 3617TIP3    H135046   0.695   3.326  10.767  0.2817  0.7666 -0.3046
 3617TIP3    H235047   0.834   3.364  10.720 -0.2685  0.7523 -2.0189
 3618TIP3   OH235048   6.244   6.035  11.715 -0.1126  0.0507  0.3419
 3618TIP3    H135049   6.321   5.982  11.736  0.4506 -0.4917 -2.6541
 3618TIP3    H235050   6.171   5.972  11.713 -0.9034  0.6558  3.7883
 3619TIP3   OH235051   1.334   1.688   9.806 -0.2278  0.2167 -1.0025
 3619TIP3    H135052   1.287   1.685   9.889  2.0010 -1.2142  0.3021
 3619TIP3    H235053   1.294   1.620   9.753 -1.0415  0.4907 -0.7480
 3620TIP3   OH235054   0.212   4.447  10.821 -0.0380  0.5121 -0.1032
 3620TIP3    H135055   0.120   4.425  10.809 -0.1641  0.8663  0.1950
 3620TIP3    H235056   0.212   4.540  10.845  0.4040  0.5450 -0.2151
 3621TIP3   OH235057   4.999   6.546   9.819 -0.3799  0.2592 -0.2824
 3621TIP3    H135058   5.089   6.553   9.850 -0.3726 -0.4163 -0.1307
 3621TIP3    H235059   4.993   6.458   9.784 -0.9384  0.3603 -0.4432
 3622TIP3   OH235060   5.524   3.042  12.730 -0.0004  0.0260 -0.3781
 3622TIP3    H135061   5.489   3.110  12.673  0.2233  1.1424  0.7717
 3622TIP3    H235062   5.619   3.056  12.728 -0.0229  0.4093  0.6401
 3623TIP3   OH235063   5.823   2.635  11.911 -0.0569  0.1789 -0.7658
 3623TIP3    H135064   5.753   2.573  11.930 -0.2108  0.6826  0.4430
 3623TIP3    H235065   5.903   2.589  11.936 -0.2344  0.7192  0.9401
 3624TIP3   OH235066   2.182   5.372  12.723 -0.3334 -0.3208 -0.0107
 3624TIP3    H135067   2.273   5.364  12.694  0.4451  2.1187  1.4665
 3624TIP3    H235068   2.162   5.287  12.762  1.9440 -0.3689  1.2196
 3625TIP3   OH235069   6.334   2.975  13.081 -0.0194  0.8141 -0.0176
 3625TIP3    H135070   6.331   3.031  13.158 -0.7900  1.7720 -0.7113
 3625TIP3    H235071   6.277   2.901  13.103  0.7643  0.4304  0.7892
 3626TIP3   OH235072   0.455   3.886  11.184 -0.4564  0.4925  0.5484
 3626TIP3    H135073   0.417   3.962  11.139 -0.1070  0.6795  0.5662
 3626TIP3    H235074   0.548   3.891  11.164 -0.6474 -0.8696 -0.8215
 3627TIP3   OH235075   0.244   5.759  12.477 -0.2919  0.0120  0.1049
 3627TIP3    H135076   0.249   5.664  12.488  0.0689 -0.2264 -1.8148
 3627TIP3    H235077   0.335   5.787  12.463 -0.4258  0.6113  0.3768
 3628TIP3   OH235078   1.050   3.940  12.877  0.1809  0.3424  1.1205
 3628TIP3    H135079   1.105   3.876  12.921 -0.6381  0.9895  3.2305
 3628TIP3    H235080   1.042   4.012  12.939 -0.4782  1.6605 -0.4059
 3629TIP3   OH235081   2.394   1.985  12.033 -0.4752  0.3647  0.0380
 3629TIP3    H135082   2.358   2.072  12.015  1.2442  0.7610 -1.6944
 3629TIP3    H235083   2.366   1.932  11.959  2.3349  0.6927 -1.3942
 3630TIP3   OH235084   6.512   1.712   9.688  0.4193  0.4357  0.2423
 3630TIP3    H135085   6.483   1.768   9.615 -0.2909  2.1227  1.7441
 3630TIP3    H235086   6.506   1.623   9.653 -0.2985  1.1566 -1.6279
 3631TIP3   OH235087   4.999   2.146  10.084 -0.1761  0.1843  0.0602
 3631TIP3    H135088   4.923   2.128  10.139 -0.7613 -0.7190 -0.9946
 3631TIP3    H235089   4.969   2.211  10.021  0.2367  0.5950  0.2837
 3632TIP3   OH235090   5.492   0.880  13.210  0.8073 -0.1074 -0.3817
 3632TIP3    H135091   5.509   0.916  13.297  0.0063  0.6333 -0.5202
 3632TIP3    H235092   5.575   0.888  13.163  0.4642  2.4121 -0.6959
 3633TIP3   OH235093   3.467   3.242  12.837  0.1864  0.3750 -0.0450
 3633TIP3    H135094   3.490   3.322  12.885 -0.9329  1.0522 -0.6118
 3633TIP3    H235095   3.372   3.238  12.841  0.0326  0.5862 -2.3705
 3634TIP3   OH235096   1.005   6.423  12.057  0.2881  0.4210  0.5230
 3634TIP3    H135097   0.964   6.353  12.108  1.8041 -1.3582 -0.5547
 3634TIP3    H235098   1.036   6.485  12.122 -1.1503  0.1492  1.5142
 3635TIP3   OH235099   0.965   2.098  11.373 -0.1157 -0.1746 -0.7488
 3635TIP3    H135100   0.970   2.172  11.433 -0.1226 -2.1023  1.7868
 3635TIP3    H235101   1.053   2.092  11.335 -0.5053  1.9389 -2.1486
 3636TIP3   OH235102   5.663   0.212  10.718 -0.2169  0.7583 -0.3250
 3636TIP3    H135103   5.584   0.162  10.698 -0.6105  1.6346 -1.0463
 3636TIP3    H235104   5.631   0.288  10.767  0.2790  0.7178  0.0709
 3637TIP3   OH235105   1.064   2.713  11.161 -0.1853  0.1351 -0.1771
 3637TIP3    H135106   1.029   2.633  11.199 -2.0550  1.1939  0.4594
 3637TIP3    H235107   1.097   2.686  11.075  0.6793 -1.5833  0.6504
 3638TIP3   OH235108   3.345   1.816  11.033 -0.0803  0.2041  0.2794
 3638TIP3    H135109   3.403   1.890  11.052  0.0927  0.2072 -0.2726
 3638TIP3    H235110   3.258   1.848  11.059 -0.4789  1.6272 -2.4355
 3639TIP3   OH235111   5.879   2.177  12.393  0.4251 -0.5245  0.6914
 3639TIP3    H135112   5.822   2.109  12.357  0.7865 -0.1523 -0.6616
 3639TIP3    H235113   5.825   2.256  12.395  0.3978 -0.5502  1.0049
 3640TIP3   OH235114   2.153   4.925  12.190 -0.2484 -0.2334 -0.0752
 3640TIP3    H135115   2.249   4.927  12.181 -0.1721 -1.9419  0.0322
 3640TIP3    H235116   2.123   4.872  12.116 -0.7572 -2.7562  1.8028
 3641TIP3   OH235117   5.700   3.799  12.724 -0.0754 -0.3506 -0.2897
 3641TIP3    H135118   5.676   3.859  12.654 -0.0643  0.8151  0.6783
 3641TIP3    H235119   5.677   3.712  12.690  0.3634  0.1399 -1.8952
 3642TIP3   OH235120   3.450   1.320  11.588  0.0805 -0.4400 -0.2668
 3642TIP3    H135121   3.427   1.412  11.588  1.3888 -0.0929 -0.5151
 3642TIP3    H235122   3.374   1.276  11.625 -0.8646  0.6539 -0.8568
 3643TIP3   OH235123   6.065   2.561  12.608  0.6369  0.2421  0.3438
 3643TIP3    H135124   6.017   2.608  12.539  2.0447  1.5267  0.1693
 3643TIP3    H235125   6.002   2.499  12.644 -1.0478  1.6158 -0.0952
 3644TIP3   OH235126   1.524   3.539  11.323  0.4471 -0.1553  0.3613
 3644TIP3    H135127   1.568   3.595  11.260 -0.4654  0.3215  0.1268
 3644TIP3    H235128   1.513   3.593  11.401  0.4895 -0.3440  0.4994
 3645TIP3   OH235129   1.410   0.802  10.077 -0.3879  0.1582 -1.2541
 3645TIP3    H135130   1.422   0.880  10.023  1.2088 -0.1200 -1.3445
 3645TIP3    H235131   1.462   0.734  10.034  0.7542 -0.1423  0.4765
 3646TIP3   OH235132   6.272   3.386  10.620 -0.5611 -0.0237 -0.1106
 3646TIP3    H135133   6.339   3.318  10.615  0.8089  1.3230 -0.9449
 3646TIP3    H235134   6.230   3.386  10.534 -0.1418  0.5645 -0.3234
 3647TIP3   OH235135   2.108   0.704  12.331 -0.0597 -0.2419  0.4518
 3647TIP3    H135136   2.063   0.696  12.415  1.2046 -0.5296  1.1225
 3647TIP3    H235137   2.055   0.765  12.281 -0.8400 -0.0779  1.4525
 3648TIP3   OH235138   3.921   0.313  11.622 -0.2202  0.7070  0.1696
 3648TIP3    H135139   3.962   0.378  11.679  0.1307  0.5251  0.1304
 3648TIP3    H235140   3.902   0.361  11.541 -0.1471  0.8123  0.2148
 3649TIP3   OH235141   0.939   0.535  11.447  0.2231  0.2135  0.6250
 3649TIP3    H135142   0.847   0.523  11.423  0.2761  0.3522  0.3552
 3649TIP3    H235143   0.938   0.608  11.509  0.0606 -0.2887  1.2195
 3650TIP3   OH235144   0.372   0.274  11.668  0.5113 -0.3576 -0.1726
 3650TIP3    H135145   0.431   0.349  11.661 -1.4460  1.4340  1.1185
 3650TIP3    H235146   0.374   0.232  11.582  2.6654  0.3414 -0.5180
 3651TIP3   OH235147   3.533   4.309  13.021 -0.6532 -0.2222 -0.0830
 3651TIP3    H135148   3.485   4.288  12.941  0.6306 -0.5797 -0.7925
 3651TIP3    H235149   3.623   4.282  13.003 -0.8381 -3.1510  2.5652
 3652TIP3   OH235150   3.827   6.383  12.222  0.4010  0.0296 -0.0586
 3652TIP3    H135151   3.750   6.406  12.170  0.7146  0.2513 -0.4326
 3652TIP3    H235152   3.836   6.456  12.284  1.9442  1.4733 -1.8585
 3653TIP3   OH235153   0.917   2.425   9.276  0.2455  0.1212  0.2905
 3653TIP3    H135154   0.939   2.514   9.304  0.8600  0.2343 -0.5274
 3653TIP3    H235155   0.822   2.427   9.265  0.4665  1.3823 -2.0258
 3654TIP3   OH235156   1.199   0.508  11.772 -0.0362 -0.3817 -0.3155
 3654TIP3    H135157   1.119   0.462  11.796 -0.7557  1.8760  1.9878
 3654TIP3    H235158   1.266   0.471  11.829 -0.3382  0.4411  0.6040
 3655TIP3   OH235159   3.513   0.772  12.276  0.2569  0.3076 -0.4303
 3655TIP3    H135160   3.516   0.852  12.327 -1.8683 -0.5251  1.1860
 3655TIP3    H235161   3.421   0.765  12.249 -0.1093 -2.4941  1.1608
 3656TIP3   OH235162   2.627   4.840  11.241  0.1426 -0.2752 -0.2118
 3656TIP3    H135163   2.537   4.816  11.218 -0.3136  1.1003  0.0451
 3656TIP3    H235164   2.663   4.876  11.160 -0.4838  1.7643  0.3475
 3657TIP3   OH235165   3.678   1.568  11.127  0.0983  0.4527  0.6667
 3657TIP3    H135166   3.678   1.477  11.158  0.8384 -0.6197 -2.2285
 3657TIP3    H235167   3.587   1.596  11.139 -1.1019 -1.9541 -1.6009
 3658TIP3   OH235168   1.680   3.684  10.898  0.2115  0.5145 -0.2956
 3658TIP3    H135169   1.660   3.720  10.984  1.9990 -0.2699  0.4860
 3658TIP3    H235170   1.736   3.750  10.857  1.2378 -0.1189  0.0615
 3659TIP3   OH235171   4.244   5.260  12.789 -0.1962 -0.1058 -0.2403
 3659TIP3    H135172   4.323   5.309  12.765 -0.1238  0.1784  0.5473
 3659TIP3    H235173   4.178   5.326  12.805 -0.3441 -0.3078 -0.0150
 3660TIP3   OH235174   1.921   4.670  11.692 -0.4719 -0.1625 -0.0614
 3660TIP3    H135175   1.892   4.761  11.690 -0.1858 -0.0855 -0.8977
 3660TIP3    H235176   2.007   4.672  11.732 -0.6101 -0.1106  0.2353
 3661TIP3   OH235177   3.446   4.139  11.415  0.0823 -0.3701  0.4375
 3661TIP3    H135178   3.478   4.104  11.332  1.1455 -0.3643  0.8265
 3661TIP3    H235179   3.366   4.090  11.434  0.3450 -1.0142 -0.1249
 3662TIP3   OH235180   3.974   4.046  12.064  0.5223 -0.4436 -0.1043
 3662TIP3    H135181   3.935   3.960  12.048  1.5499 -0.8335 -0.5850
 3662TIP3    H235182   3.915   4.107  12.019  1.1889 -1.1636 -2.0775
 3663TIP3   OH235183   0.624   0.173  12.848 -0.1120 -0.1148  0.2980
 3663TIP3    H135184   0.640   0.181  12.942 -2.9268  1.3080  0.7754
 3663TIP3    H235185   0.537   0.133  12.843 -0.1383  0.1311 -1.6713
 3664TIP3   OH235186   4.675   0.032   9.603  0.0645  0.1361  0.2973
 3664TIP3    H135187   4.675  -0.050   9.553  2.5451 -0.4209  1.0671
 3664TIP3    H235188   4.726   0.012   9.681  0.9810  2.4855  0.3773
 3665TIP3   OH235189   1.677   3.265   9.924 -0.0929  0.1757  0.0739
 3665TIP3    H135190   1.678   3.361   9.926  1.6834  0.2127  2.9247
 3665TIP3    H235191   1.607   3.241   9.985 -0.2552 -0.3647 -0.3145
 3666TIP3   OH235192   5.018   5.580  10.408 -0.1802 -0.7261 -0.5828
 3666TIP3    H135193   5.078   5.514  10.373 -1.5282 -1.6367 -1.2384
 3666TIP3    H235194   4.987   5.544  10.490 -0.1026 -0.4111 -0.4131
 3667TIP3   OH235195   5.902   3.393  10.765 -0.5717  0.0478 -0.0509
 3667TIP3    H135196   5.853   3.354  10.692 -0.7993 -0.1369  0.2010
 3667TIP3    H235197   5.888   3.487  10.755 -0.5127  0.0288 -0.3122
 3668TIP3   OH235198   5.859   1.991  12.666  0.6003  0.3270  0.3108
 3668TIP3    H135199   5.765   2.008  12.659  0.5646 -0.0137 -0.1144
 3668TIP3    H235200   5.865   1.920  12.730  0.5251  0.0246 -0.0116
 3669TIP3   OH235201   6.501   1.202   9.549  0.2640 -0.7361 -0.1613
 3669TIP3    H135202   6.463   1.115   9.563 -0.1808 -0.3722  1.0611
 3669TIP3    H235203   6.581   1.202   9.603 -0.2048 -0.1059  0.5543
 3670TIP3   OH235204   2.068   2.101  11.196  0.4805  0.1177 -0.1507
 3670TIP3    H135205   2.157   2.136  11.185  0.4592  0.0327 -0.5970
 3670TIP3    H235206   2.024   2.119  11.113  0.4473 -0.9000 -0.3748
 3671TIP3   OH235207   3.284   4.844  12.629  0.2051 -0.2796  0.2777
 3671TIP3    H135208   3.334   4.772  12.667  1.1955  0.7916  1.0463
 3671TIP3    H235209   3.345   4.888  12.570 -0.0310  0.6299  0.6947
 3672TIP3   OH235210   1.181   4.525  10.649  0.4561  0.2038 -0.1734
 3672TIP3    H135211   1.202   4.441  10.689 -2.5658 -0.4532  0.2301
 3672TIP3    H235212   1.152   4.503  10.560  0.2205  0.8853 -0.2737
 3673TIP3   OH235213   3.825   6.059  11.456 -0.4634  0.2196  0.0140
 3673TIP3    H135214   3.889   6.046  11.386 -0.6419 -0.8157  0.0321
 3673TIP3    H235215   3.872   6.035  11.536  0.0657  2.3593  0.4168
 3674TIP3   OH235216   5.178   1.252  12.710 -0.1083  0.1699 -0.0233
 3674TIP3    H135217   5.158   1.235  12.618  1.7688 -2.4526 -0.0589
 3674TIP3    H235218   5.142   1.177  12.757  0.7870  0.4115  1.1029
 3675TIP3   OH235219   5.584   1.088  12.408  0.4654  0.1840 -0.5668
 3675TIP3    H135220   5.633   1.170  12.410 -0.6901  0.9487 -1.7863
 3675TIP3    H235221   5.519   1.096  12.478  2.1845 -0.9587  1.2564
 3676TIP3   OH235222   5.531   0.776   9.751 -0.4613 -0.0771 -0.5060
 3676TIP3    H135223   5.456   0.744   9.702  0.3313 -0.6023 -1.4005
 3676TIP3    H235224   5.606   0.766   9.692  0.2547  0.8338  0.2044
 3677TIP3   OH235225   2.344   5.679  11.439  0.0245 -0.2276  0.4588
 3677TIP3    H135226   2.417   5.741  11.439 -1.2050  1.2838  0.3270
 3677TIP3    H235227   2.368   5.614  11.373  1.3042  0.1437  0.5311
 3678TIP3   OH235228   0.472   0.126  10.339 -0.8831 -0.4746 -0.2312
 3678TIP3    H135229   0.443   0.151  10.251 -0.4457 -0.8973 -0.4973
 3678TIP3    H235230   0.540   0.190  10.361 -1.6848  0.2595  0.2260
 3679TIP3   OH235231   4.100   0.467  10.819 -0.3156  0.5049  0.5588
 3679TIP3    H135232   4.187   0.474  10.857  0.1695 -1.7521  0.0015
 3679TIP3    H235233   4.111   0.410  10.743 -2.6308 -2.1074  1.9520
 3680TIP3   OH235234   3.313   0.304  12.643 -0.0118  0.8892  0.5295
 3680TIP3    H135235   3.259   0.284  12.719 -0.9985 -0.3411 -0.4540
 3680TIP3    H235236   3.274   0.254  12.572  1.8433  0.7518 -0.4542
 3681TIP3   OH235237   1.753   4.278  13.210 -0.1648 -0.5593  0.0666
 3681TIP3    H135238   1.726   4.228  13.287  1.4213 -0.0882  0.9627
 3681TIP3    H235239   1.773   4.212  13.144 -0.6088 -0.9974  0.3618
 3682TIP3   OH235240   1.466   3.210  10.085 -0.4211  0.5205  0.0786
 3682TIP3    H135241   1.429   3.284  10.134  1.0218  0.8197  0.7734
 3682TIP3    H235242   1.417   3.134  10.117 -0.5773  0.9266  0.8415
 3683TIP3   OH235243   3.578   4.799  12.208  0.5108 -0.3973  0.0974
 3683TIP3    H135244   3.543   4.753  12.131  3.3048 -0.3012 -1.3432
 3683TIP3    H235245   3.649   4.744  12.239  0.2329  0.1913  1.9108
 3684TIP3   OH235246   1.772   6.322  10.268 -0.1648  0.3358 -0.2076
 3684TIP3    H135247   1.864   6.316  10.294 -0.3272 -0.3485  0.2191
 3684TIP3    H235248   1.775   6.354  10.177  0.3804  3.8722  0.9063
 3685TIP3   OH235249   1.501   1.622  12.693  0.5054  0.5454  0.3501
 3685TIP3    H135250   1.504   1.674  12.612 -0.1312 -0.8280 -0.6027
 3685TIP3    H235251   1.434   1.556  12.676 -1.7365  1.8912  3.0521
 3686TIP3   OH235252   2.077   3.382  13.007 -0.5310 -0.0238  0.4438
 3686TIP3    H135253   2.014   3.426  13.063 -1.2524 -0.1014 -0.2953
 3686TIP3    H235254   2.028   3.311  12.966  0.1900 -0.4678  0.3200
 3687TIP3   OH235255   3.085   5.662  11.223 -0.7133  0.1796 -0.6991
 3687TIP3    H135256   3.138   5.719  11.278 -1.3831 -0.9126  1.1741
 3687TIP3    H235257   3.016   5.719  11.187 -0.4830  0.8458 -0.0963
 3688TIP3   OH235258   3.622   4.791  12.658 -0.6203  0.4147  0.0820
 3688TIP3    H135259   3.689   4.847  12.697 -0.1557 -0.3000  0.3380
 3688TIP3    H235260   3.579   4.846  12.593  0.6457  0.7073 -0.5352
 3689TIP3   OH235261   3.725   3.819  12.815 -0.3373 -0.6889  0.2606
 3689TIP3    H135262   3.739   3.838  12.723  0.9743 -1.2116  0.3291
 3689TIP3    H235263   3.687   3.899  12.851  1.1280  0.2929 -0.3011
 3690TIP3   OH235264   5.204   2.426   9.669  0.6655 -0.3794 -0.2326
 3690TIP3    H135265   5.267   2.404   9.599  2.4469  0.6341  0.9666
 3690TIP3    H235266   5.168   2.511   9.643  0.8107 -0.3246 -0.2541
 3691TIP3   OH235267   3.804   5.074  11.435  0.8855  0.0535 -0.2458
 3691TIP3    H135268   3.880   5.016  11.440  0.4897 -0.4596 -0.1549
 3691TIP3    H235269   3.787   5.082  11.342  1.1339  0.2846 -0.2741
 3692TIP3   OH235270   1.128   0.356  12.971  0.1050 -0.4039 -0.0673
 3692TIP3    H135271   1.127   0.262  12.956  1.3134 -0.4456  0.0758
 3692TIP3    H235272   1.213   0.374  13.011 -0.0953  0.7564 -0.1233
 3693TIP3   OH235273   2.630   0.514   9.895  0.3086 -0.1184  0.0757
 3693TIP3    H135274   2.661   0.527   9.985  1.8326  0.1506 -0.4748
 3693TIP3    H235275   2.637   0.419   9.881  1.2289 -0.0180 -0.1639
 3694TIP3   OH235276   6.017   4.088  11.031  0.8060 -0.4722 -0.2608
 3694TIP3    H135277   6.074   4.161  11.056 -0.3572 -0.3488  2.3503
 3694TIP3    H235278   6.076   4.023  10.994  2.5082  0.1341  1.2473
 3695TIP3   OH235279   2.115   1.503   9.767 -0.0002  0.2080 -0.2589
 3695TIP3    H135280   2.210   1.498   9.761  0.0565  0.7594  0.1304
 3695TIP3    H235281   2.085   1.417   9.738  0.6024  0.1212 -0.6467
 3696TIP3   OH235282   0.290   1.699  11.787  0.2141  0.1465 -0.5618
 3696TIP3    H135283   0.342   1.630  11.830 -0.7892  0.1357  0.6937
 3696TIP3    H235284   0.344   1.778  11.795 -1.0003  0.8477  3.4163
 3697TIP3   OH235285   6.396   5.593  10.447 -0.3153  0.0224  0.0711
 3697TIP3    H135286   6.388   5.504  10.483 -2.2595 -0.2385 -0.8808
 3697TIP3    H235287   6.306   5.624  10.440  0.3352  2.0926  0.3655
 3698TIP3   OH235288   2.316   0.203  12.807 -0.1218  0.6973  0.2202
 3698TIP3    H135289   2.409   0.182  12.806 -0.4169 -0.7404  1.0278
 3698TIP3    H235290   2.311   0.290  12.848  0.7760  0.2621  1.2987
 3699TIP3   OH235291   0.651   0.870  12.058  0.4103  0.8576  0.5211
 3699TIP3    H135292   0.650   0.848  12.151 -0.1147 -0.2417  0.2663
 3699TIP3    H235293   0.744   0.874  12.035  0.5496 -0.7414  0.6865
 3700TIP3   OH235294   5.722   2.395  11.242  0.0808  0.0716  0.6750
 3700TIP3    H135295   5.630   2.369  11.230  0.2537  0.2606 -1.3834
 3700TIP3    H235296   5.717   2.483  11.279 -0.5939  0.3986 -0.1611
 3701TIP3   OH235297   1.397   1.126  12.043  0.4433 -0.3510 -0.3929
 3701TIP3    H135298   1.326   1.144  12.105  1.1252  3.0447 -0.4261
 3701TIP3    H235299   1.357   1.138  11.957  0.5975 -0.5221 -0.4901
 3702TIP3   OH235300   5.519   1.203  12.951  0.1220  0.4967  0.5736
 3702TIP3    H135301   5.448   1.193  13.014  0.1996 -0.6203  0.5040
 3702TIP3    H235302   5.496   1.281  12.901  0.2889  1.6869  2.2584
 3703TIP3   OH235303   4.736   4.843  11.563 -0.1330  0.3582 -0.6476
 3703TIP3    H135304   4.668   4.833  11.629  0.8589 -1.7430  0.1425
 3703TIP3    H235305   4.695   4.896  11.494 -1.0691  3.0295  1.7482
 3704TIP3   OH235306   2.271   6.017  12.212 -0.1865 -0.2560  0.2653
 3704TIP3    H135307   2.200   6.018  12.148 -0.8945  0.2417  1.0444
 3704TIP3    H235308   2.248   5.946  12.272  0.0795 -0.2234  0.4065
 3705TIP3   OH235309   2.700   1.156  12.282  0.1197 -0.3749  0.0754
 3705TIP3    H135310   2.792   1.182  12.289  0.4575 -0.1995 -3.3364
 3705TIP3    H235311   2.702   1.077  12.229 -1.7442  0.1883 -0.9010
 3706TIP3   OH235312   5.980   5.887  11.777  0.0359  0.0990  0.3769
 3706TIP3    H135313   6.037   5.887  11.854  1.2809  0.2799 -0.5209
 3706TIP3    H235314   5.932   5.805  11.783  0.4190 -0.0810  1.1309
 3707TIP3   OH235315   3.323   1.668  12.482 -0.0421 -0.3561 -0.9125
 3707TIP3    H135316   3.338   1.598  12.418  1.0245  0.4281 -1.5496
 3707TIP3    H235317   3.410   1.701  12.501 -0.2404 -1.0575  1.5488
 3708TIP3   OH235318   2.787   1.827  12.884  0.5175 -0.2107 -0.0912
 3708TIP3    H135319   2.869   1.877  12.880  1.3198 -1.3813 -4.5575
 3708TIP3    H235320   2.813   1.740  12.914  0.0854  0.4139  2.3018
 3709TIP3   OH235321   2.308   6.446  10.587  0.7441  0.0274  0.2653
 3709TIP3    H135322   2.347   6.530  10.612  1.0395  0.1098 -0.4426
 3709TIP3    H235323   2.243   6.468  10.521  0.5373 -0.2608  0.3716
 3710TIP3   OH235324   3.450   1.832  12.795 -0.0288 -0.2419 -0.3903
 3710TIP3    H135325   3.383   1.770  12.766 -2.8601  1.6178  1.6489
 3710TIP3    H235326   3.484   1.870  12.714 -2.5078 -0.2486 -1.5365
 3711TIP3   OH235327   1.503   1.785   9.628 -0.0627 -0.6305 -0.5462
 3711TIP3    H135328   1.441   1.785   9.556 -1.8114 -0.2308  0.8691
 3711TIP3    H235329   1.455   1.747   9.702  0.5900  1.6776  1.1972
 3712TIP3   OH235330   0.845   5.716  12.593 -0.7803 -0.1584  0.4723
 3712TIP3    H135331   0.806   5.635  12.627 -0.9378  0.2774  1.3680
 3712TIP3    H235332   0.936   5.693  12.574 -1.0284 -0.7431  0.0006
 3713TIP3   OH235333   1.317   6.624  11.937 -0.3712  0.3465  0.2287
 3713TIP3    H135334   1.314   6.589  12.026  0.5259 -0.7065 -0.1399
 3713TIP3    H235335   1.339   6.717  11.949  0.4224  0.0685  1.0868
 3714TIP3   OH235336   3.272   5.039  12.940 -0.0421  0.2556 -0.3230
 3714TIP3    H135337   3.233   4.976  13.001  1.7361  0.5149  1.1437
 3714TIP3    H235338   3.197   5.073  12.891 -1.4543 -0.4827  1.2063
 3715TIP3   OH235339   6.621   3.334  11.758  0.1168  0.4073  0.1462
 3715TIP3    H135340   6.617   3.248  11.715 -1.8157 -0.9307  2.7350
 3715TIP3    H235341   6.537   3.375  11.737 -1.2863 -0.6594  3.1134
 3716TIP3   OH235342   0.310   1.920  12.578  0.1371 -0.0686  0.0666
 3716TIP3    H135343   0.383   1.878  12.533 -0.1768 -0.6219  0.0761
 3716TIP3    H235344   0.350   1.958  12.657  0.4709 -0.0827 -0.0927
 3717TIP3   OH235345   6.267   0.636  11.355 -0.4435 -0.1406  0.5582
 3717TIP3    H135346   6.335   0.586  11.400 -1.5602 -1.8053  0.4878
 3717TIP3    H235347   6.217   0.570  11.305 -0.8238  1.2947 -1.0760
 3718TIP3   OH235348   3.883   4.142  11.505 -0.0787 -0.5289  0.1915
 3718TIP3    H135349   3.858   4.152  11.414  0.9382 -0.9103 -0.1456
 3718TIP3    H235350   3.832   4.208  11.552 -0.6618 -0.3808 -0.6345
 3719TIP3   OH235351   4.310   6.762  11.460 -0.4742  0.4726 -0.7213
 3719TIP3    H135352   4.342   6.852  11.451 -0.0516  0.2686 -1.3441
 3719TIP3    H235353   4.240   6.755  11.395  0.6104 -0.1326 -1.8621
 3720TIP3   OH235354   3.132   0.298  11.449  0.0694 -0.2912 -0.2794
 3720TIP3    H135355   3.128   0.390  11.476 -0.5867 -0.9031  1.9014
 3720TIP3    H235356   3.226   0.278  11.447  0.2156  0.3980 -0.7225
 3721TIP3   OH235357   4.072   1.583  12.690 -0.0198  0.2168 -1.1212
 3721TIP3    H135358   4.028   1.589  12.774 -0.9846 -1.0000 -1.5226
 3721TIP3    H235359   4.042   1.501  12.652  2.8749 -0.8813 -1.2781
 3722TIP3   OH235360   5.156   5.704  12.054  0.3745 -0.9896  0.1681
 3722TIP3    H135361   5.195   5.678  12.138  0.4497  2.0663  1.1880
 3722TIP3    H235362   5.062   5.687  12.066  0.5936 -2.4112  0.0765
 3723TIP3   OH235363   1.645   1.758  11.965  0.0766 -0.0531 -0.2463
 3723TIP3    H135364   1.657   1.819  12.038  1.2868 -1.8763  1.2134
 3723TIP3    H235365   1.713   1.782  11.902 -0.2506  0.8479 -0.2619
 3724TIP3   OH235366   3.898   3.780  11.800 -0.3835 -0.6095 -0.1631
 3724TIP3    H135367   3.950   3.851  11.762  0.7110 -2.2782 -1.9633
 3724TIP3    H235368   3.840   3.752  11.729 -0.4485 -1.8313  0.3521
 3725TIP3   OH235369   4.455   3.304  10.005 -0.0244  0.1020 -0.2227
 3725TIP3    H135370   4.490   3.219  10.032  3.6893  1.4326 -0.2499
 3725TIP3    H235371   4.531   3.350   9.968 -2.1863  2.9442 -1.4722
 3726TIP3   OH235372   0.424   0.337  11.398 -0.3012  0.3559 -0.0659
 3726TIP3    H135373   0.355   0.305  11.339  0.5312  0.9772 -1.4258
 3726TIP3    H235374   0.405   0.431  11.408  0.5080  0.5949 -0.7017
 3727TIP3   OH235375   4.980   3.901  11.071  0.2543 -1.0306 -0.7725
 3727TIP3    H135376   5.031   3.967  11.117 -1.3159 -0.1950 -0.1418
 3727TIP3    H235377   5.033   3.822  11.076  0.1544 -1.0366  2.6276
 3728TIP3   OH235378   2.275   3.414  11.987 -0.5894  0.2631 -0.4773
 3728TIP3    H135379   2.186   3.390  12.012  0.1162 -2.5337 -0.2920
 3728TIP3    H235380   2.325   3.409  12.069  0.4071 -2.0688 -1.1408
 3729TIP3   OH235381   5.957   2.486  10.085 -0.2374  0.3440  0.1213
 3729TIP3    H135382   5.948   2.393  10.104 -0.2616  0.4783  0.7727
 3729TIP3    H235383   5.920   2.496   9.997  0.9175 -0.4777 -0.4953
 3730TIP3   OH235384   4.041   3.431  12.341 -0.6610 -0.3701 -0.1467
 3730TIP3    H135385   4.020   3.404  12.431  1.5929  2.0311  1.2334
 3730TIP3    H235386   4.108   3.368  12.313  0.8032  0.5928  1.0580
 3731TIP3   OH235387   4.450   5.248  10.093  0.0647 -0.4162  0.4690
 3731TIP3    H135388   4.388   5.304  10.046 -0.2734 -2.3135 -1.5168
 3731TIP3    H235389   4.526   5.304  10.108 -1.4264  1.4598  1.4371
 3732TIP3   OH235390   5.127   6.360  10.182 -0.4578  0.1749 -0.8238
 3732TIP3    H135391   5.120   6.267  10.160 -0.9176  0.3848 -1.6083
 3732TIP3    H235392   5.160   6.361  10.271 -1.2420 -0.7577 -0.5102
 3733TIP3   OH235393   4.125   5.911  10.268  0.2992 -0.0654 -0.5225
 3733TIP3    H135394   4.190   5.938  10.202  1.5534 -2.8053 -0.5801
 3733TIP3    H235395   4.106   5.990  10.318  1.9108  1.3510 -2.0271
 3734TIP3   OH235396   1.164   2.644  10.901 -0.3904 -0.0887  0.4675
 3734TIP3    H135397   1.247   2.627  10.855 -0.0784  0.6383  0.7486
 3734TIP3    H235398   1.107   2.572  10.875  0.4460 -0.7897  0.5364
 3735TIP3   OH235399   4.363   0.917  11.093  0.0805  0.4331  0.4969
 3735TIP3    H135400   4.328   0.882  11.175 -0.6032 -0.5726 -0.2000
 3735TIP3    H235401   4.452   0.945  11.115  0.0392 -0.1643  1.4892
 3736TIP3   OH235402   5.701   2.659  11.318 -0.1169  0.3186  0.1217
 3736TIP3    H135403   5.769   2.693  11.376 -1.3726  0.5308  1.5308
 3736TIP3    H235404   5.696   2.723  11.247  1.4235  0.0690 -0.2552
 3737TIP3   OH235405   4.862   3.403  10.991 -0.5471 -0.5296 -0.2040
 3737TIP3    H135406   4.839   3.369  10.905 -2.2163  0.7655 -0.3219
 3737TIP3    H235407   4.804   3.356  11.052  0.8286 -1.6532  0.2842
 3738TIP3   OH235408   4.902   6.198  11.262  0.7675  0.7645 -0.1853
 3738TIP3    H135409   4.893   6.128  11.327 -1.3534  2.3193  1.3183
 3738TIP3    H235410   4.816   6.205  11.221  0.7008  2.9158  0.2064
 3739TIP3   OH235411   4.049   2.475  12.006 -0.1390  0.6067 -0.6088
 3739TIP3    H135412   4.098   2.496  12.085  0.1019  0.9218 -0.8374
 3739TIP3    H235413   4.072   2.544  11.944 -1.5767  1.2829 -0.4277
 3740TIP3   OH235414   0.838   5.188  11.309  0.1355 -0.3612  0.0486
 3740TIP3    H135415   0.809   5.271  11.345 -2.2842  0.1300 -2.6163
 3740TIP3    H235416   0.811   5.123  11.374  0.3340  0.7671  1.3016
 3741TIP3   OH235417   0.010   3.002   9.775  0.1225 -0.1299  0.2206
 3741TIP3    H135418   0.089   3.053   9.760  1.0859 -2.1024 -2.0499
 3741TIP3    H235419  -0.061   3.060   9.750  1.1501  0.3427 -1.7825
 3742TIP3   OH235420   2.621   0.827  11.038 -0.5790 -0.3694 -0.2482
 3742TIP3    H135421   2.623   0.859  11.128 -1.4695  3.1129 -1.3296
 3742TIP3    H235422   2.710   0.837  11.006 -0.5580 -0.3228 -0.1728
 3743TIP3   OH235423   5.524   4.476  11.075 -0.0737 -1.0419 -0.2782
 3743TIP3    H135424   5.528   4.386  11.106  0.1726 -1.5196 -1.6226
 3743TIP3    H235425   5.466   4.473  10.999 -0.5369  0.0549  0.0062
 3744TIP3   OH235426   2.319   1.665  10.798  0.5645 -0.0816 -0.1339
 3744TIP3    H135427   2.275   1.712  10.727  0.5089 -0.0836 -0.1008
 3744TIP3    H235428   2.397   1.628  10.757  2.6786  3.1075  0.5571
 3745TIP3   OH235429   6.280   2.318  10.507 -0.2639  0.0920  0.3191
 3745TIP3    H135430   6.369   2.290  10.489  0.0130  0.2466  1.3605
 3745TIP3    H235431   6.260   2.382  10.439  0.2894 -0.1967 -0.1185
 3746TIP3   OH235432   6.387   4.350  10.699  0.6415 -0.0360 -0.4004
 3746TIP3    H135433   6.378   4.264  10.742 -0.4133  0.2700  0.0348
 3746TIP3    H235434   6.333   4.409  10.752  0.8293  0.7636 -1.0727
 3747TIP3   OH235435   6.461   0.982  10.128  0.1732  0.0496 -0.9251
 3747TIP3    H135436   6.418   0.974  10.213 -3.8041 -0.8237 -2.7542
 3747TIP3    H235437   6.460   1.076  10.110  1.0110  0.2356 -0.0442
 3748TIP3   OH235438   5.212   5.255  10.781  0.1208  0.5704  0.1900
 3748TIP3    H135439   5.192   5.162  10.794  0.0085  0.6660  0.7627
 3748TIP3    H235440   5.251   5.282  10.864 -0.9021  1.3104  0.4511
 3749TIP3   OH235441   0.506   4.868  12.895 -0.7688 -0.1156  0.2294
 3749TIP3    H135442   0.531   4.952  12.933  0.2606 -0.2904 -0.0513
 3749TIP3    H235443   0.415   4.881  12.868 -0.7513  0.7761  0.5514
 3750TIP3   OH235444   5.915   2.220  10.155 -0.1131 -0.1126  0.3443
 3750TIP3    H135445   5.841   2.216  10.215 -0.6843  1.1335 -0.2303
 3750TIP3    H235446   5.903   2.144  10.098 -0.0504 -0.8105  1.2410
 3751TIP3   OH235447   4.472   0.305   9.728  0.0663  0.5211 -0.4120
 3751TIP3    H135448   4.454   0.396   9.702  2.4320  0.6319 -1.8440
 3751TIP3    H235449   4.560   0.308   9.765 -0.9022 -0.7503  2.2349
 3752TIP3   OH235450   0.582   6.143  10.265  0.0600  0.3361 -0.5171
 3752TIP3    H135451   0.532   6.178  10.191 -0.6738 -0.4977 -0.4262
 3752TIP3    H235452   0.612   6.057  10.235 -0.7745 -0.2770  0.3630
 3753TIP3   OH235453   4.205   0.364  12.929  0.3482 -0.4812 -0.2712
 3753TIP3    H135454   4.242   0.428  12.869 -0.0454  0.2785  0.2843
 3753TIP3    H235455   4.127   0.406  12.965  1.2477 -0.3744  1.7067
 3754TIP3   OH235456   5.673   2.157   9.882 -0.1646 -0.4088 -0.0917
 3754TIP3    H135457   5.687   2.250   9.863 -0.1275 -0.2148  0.8344
 3754TIP3    H235458   5.761   2.121   9.894 -0.2152 -0.3314  0.5598
 3755TIP3   OH235459   1.871   5.754  11.937 -0.3434 -0.3316 -0.3420
 3755TIP3    H135460   1.919   5.684  11.982 -0.1980 -0.0049  0.0191
 3755TIP3    H235461   1.806   5.783  12.001 -0.1035  0.1721 -0.3230
 3756TIP3   OH235462   6.368   0.739  11.736 -0.2609  0.4197 -0.1256
 3756TIP3    H135463   6.409   0.657  11.709  0.5769  1.3689 -1.8762
 3756TIP3    H235464   6.421   0.768  11.811  1.5703  0.9560 -1.5270
 3757TIP3   OH235465   5.634   0.944  10.400  0.3950  0.3260 -0.2133
 3757TIP3    H135466   5.656   0.851  10.394  0.7805  0.3488  0.7163
 3757TIP3    H235467   5.571   0.958  10.329 -1.0927 -1.0691  0.7437
 3758TIP3   OH235468   6.260   0.452  10.694  0.3697  0.4529 -0.2376
 3758TIP3    H135469   6.343   0.496  10.673 -0.9751  2.2997 -2.0423
 3758TIP3    H235470   6.192   0.515  10.671 -1.6097 -1.4855 -0.0704
 3759TIP3   OH235471   5.388   0.072  12.925 -0.2773  0.0195 -0.3353
 3759TIP3    H135472   5.316   0.123  12.962  0.4464  0.3200  0.6972
 3759TIP3    H235473   5.372   0.073  12.831 -2.5322 -1.3437 -0.0112
 3760TIP3   OH235474   5.584   2.059  11.250 -0.0463  0.0681  0.8479
 3760TIP3    H135475   5.541   1.987  11.296  0.5143 -0.0943  1.1270
 3760TIP3    H235476   5.644   2.097  11.314 -0.4739  0.9163  0.7647
 3761TIP3   OH235477   5.355   6.826  12.006 -0.5186  0.3402 -0.1803
 3761TIP3    H135478   5.419   6.884  11.965  0.1728 -1.6511 -2.1400
 3761TIP3    H235479   5.280   6.828  11.946 -0.5426 -0.6287 -0.1983
 3762TIP3   OH235480   2.532   4.820  10.965 -0.2416 -0.0745  0.5585
 3762TIP3    H135481   2.454   4.875  10.973 -0.3009 -0.1315  0.3817
 3762TIP3    H235482   2.504   4.733  10.992 -1.2585 -0.9996 -2.9291
 3763TIP3   OH235483   3.639   3.430  10.342  0.3719  0.8943  0.0361
 3763TIP3    H135484   3.693   3.473  10.276  0.8363  0.9769  0.4656
 3763TIP3    H235485   3.552   3.468  10.331  0.6722  1.6096  0.1156
 3764TIP3   OH235486   2.692   3.040  10.558  0.2064 -0.0458  0.9861
 3764TIP3    H135487   2.716   3.120  10.606  0.6832  1.2916 -1.2976
 3764TIP3    H235488   2.749   3.041  10.481 -0.5793 -2.0213  0.3192
 3765TIP3   OH235489   4.717   0.362  12.547  0.0045 -0.1003 -0.4340
 3765TIP3    H135490   4.759   0.322  12.470  0.7800  1.4150 -0.8454
 3765TIP3    H235491   4.625   0.368  12.523  0.0087 -0.9114 -0.6784
 3766TIP3   OH235492   4.878   2.241  11.483 -0.4617  0.6187  0.0773
 3766TIP3    H135493   4.968   2.271  11.494 -0.2104 -0.4677  1.2844
 3766TIP3    H235494   4.836   2.260  11.567 -1.2743  0.8195 -0.3606
 3767TIP3   OH235495   6.234   4.058  10.417 -0.4118  0.1790  0.2370
 3767TIP3    H135496   6.279   4.071  10.500  0.6041 -0.0512 -0.2542
 3767TIP3    H235497   6.296   4.091  10.351 -1.5503  1.1710 -0.3782
 3768TIP3   OH235498   0.740   6.104  12.123 -0.1195  0.1373  0.1514
 3768TIP3    H135499   0.669   6.146  12.075 -0.0953  1.3046  1.0876
 3768TIP3    H235500   0.797   6.176  12.149  1.8580 -0.8349 -1.2507
 3769TIP3   OH235501   6.487   0.679  12.713 -0.3892  0.1236  0.5980
 3769TIP3    H135502   6.470   0.586  12.722 -2.0809  0.5443  2.3425
 3769TIP3    H235503   6.420   0.722  12.766 -1.0831  2.4528 -1.8817
 3770TIP3   OH235504   6.809   3.003  12.229 -0.8734 -0.1077  0.6319
 3770TIP3    H135505   6.784   3.080  12.177 -0.6976 -0.8376 -0.5830
 3770TIP3    H235506   6.895   3.024  12.264 -0.3082 -0.1787 -0.6484
 3771TIP3   OH235507   1.268   5.509  11.646 -0.0184  0.0093 -0.7254
 3771TIP3    H135508   1.211   5.472  11.714 -0.1341  0.1128 -0.7658
 3771TIP3    H235509   1.276   5.438  11.582 -0.8913  0.3206 -1.1951
 3772TIP3   OH235510   6.533   2.616  12.275 -0.1298  0.2359  0.2306
 3772TIP3    H135511   6.605   2.660  12.231  0.0600 -0.2034  0.0905
 3772TIP3    H235512   6.526   2.659  12.360 -1.6237  2.2647 -0.8486
 3773TIP3   OH235513   5.585   6.745  11.240 -0.3142  0.0633 -0.1313
 3773TIP3    H135514   5.551   6.655  11.236  2.2305 -1.1291  1.8652
 3773TIP3    H235515   5.507   6.800  11.246 -1.9388 -2.1459  0.3585
 3774TIP3   OH235516   5.024   6.613  10.244  0.6171 -0.0173  0.0776
 3774TIP3    H135517   5.041   6.611  10.338  1.4612  0.5977 -0.0526
 3774TIP3    H235518   5.045   6.525  10.213 -1.0241 -0.6613  0.6668
 3775TIP3   OH235519   4.617   0.526  10.043  0.3408  0.2725 -0.2895
 3775TIP3    H135520   4.660   0.486   9.968  0.3516  0.5975 -0.4584
 3775TIP3    H235521   4.524   0.530  10.019  0.5344  1.7116 -0.9028
 3776TIP3   OH235522   5.364   1.082  11.027  0.1934 -0.0709  0.1987
 3776TIP3    H135523   5.350   0.995  10.988 -1.1330 -0.1933  0.8851
 3776TIP3    H235524   5.413   1.064  11.107  0.4225 -0.1295  0.0449
 3777TIP3   OH235525   4.654   5.235  11.227 -0.3633  0.1037  0.3410
 3777TIP3    H135526   4.728   5.260  11.172  0.2410 -2.3602 -0.0902
 3777TIP3    H235527   4.602   5.315  11.236  1.1441  1.3252 -1.2332
 3778TIP3   OH235528   5.626   3.970  11.843 -0.0852 -0.7509 -0.1652
 3778TIP3    H135529   5.634   3.880  11.813  0.9171 -0.5477 -0.5568
 3778TIP3    H235530   5.589   4.017  11.768 -2.3983 -1.1383  0.6467
 3779TIP3   OH235531   3.120   1.416  12.697 -0.5037  0.3503  0.0925
 3779TIP3    H135532   3.072   1.333  12.706 -0.6040  0.2434 -1.2782
 3779TIP3    H235533   3.185   1.414  12.767  0.7431 -1.7522 -1.0295
 3780TIP3   OH235534   0.037   0.342  10.975  0.6903 -0.6021  0.5667
 3780TIP3    H135535   0.087   0.331  11.056  0.4490 -2.8534  0.4937
 3780TIP3    H235536  -0.055   0.345  11.004  0.5898 -1.6128  0.4117
 3781TIP3   OH235537   1.498   5.098  12.752 -0.0330 -0.1373 -0.4177
 3781TIP3    H135538   1.584   5.056  12.743  0.7966  1.5000 -0.3683
 3781TIP3    H235539   1.517   5.184  12.789 -1.7956 -0.0950  0.4645
 3782TIP3   OH235540   1.826   4.910  11.982 -0.2576  0.1637  0.5560
 3782TIP3    H135541   1.901   4.851  11.976  0.6591  1.3364 -0.0275
 3782TIP3    H235542   1.756   4.865  11.935 -0.2035 -1.3166  1.8101
 3783TIP3   OH235543   0.808   5.860   9.646 -0.0662  0.2940 -0.3510
 3783TIP3    H135544   0.741   5.831   9.584  0.3646 -0.2363 -0.5799
 3783TIP3    H235545   0.857   5.780   9.666  0.4354  0.6597 -0.1139
 3784TIP3   OH235546   4.315   5.560  10.762 -0.2468  0.1473  0.0125
 3784TIP3    H135547   4.251   5.617  10.805 -0.4923  0.5797 -0.9066
 3784TIP3    H235548   4.267   5.479  10.744  0.3309 -0.7299  2.0838
 3785TIP3   OH235549   1.962   3.821  13.030  0.4413 -0.2278 -0.8108
 3785TIP3    H135550   2.024   3.823  13.103  0.4300 -0.9285 -0.7687
 3785TIP3    H235551   2.014   3.789  12.956 -0.0181 -1.5050 -0.6085
 3786TIP3   OH235552   4.200   0.984  12.177  0.4219 -0.0441  0.5227
 3786TIP3    H135553   4.174   0.911  12.120  0.5681  0.4397 -0.1702
 3786TIP3    H235554   4.274   1.024  12.132 -0.1903  1.0621  0.4610
 3787TIP3   OH235555   6.349   1.325  11.637  0.0337  0.0124  0.1317
 3787TIP3    H135556   6.364   1.407  11.684  1.3373 -0.8100  1.2545
 3787TIP3    H235557   6.370   1.346  11.546  0.5366  0.8790  0.4300
 3788TIP3   OH235558   3.764   5.151  13.030  0.3824 -0.3101  0.3612
 3788TIP3    H135559   3.674   5.140  12.999  0.5109 -1.2193  0.2731
 3788TIP3    H235560   3.788   5.065  13.063  1.3852 -0.2004 -0.0520
 3789TIP3   OH235561   1.652   1.811  11.468  0.0071  0.1396  0.0789
 3789TIP3    H135562   1.736   1.765  11.476 -0.5669 -1.0936 -0.6680
 3789TIP3    H235563   1.644   1.829  11.374  0.4472  2.2549  0.4133
 3790TIP3   OH235564   0.883   5.115  10.851 -0.6939  0.1725 -0.0596
 3790TIP3    H135565   0.889   5.173  10.927 -0.2078  0.1391 -0.0674
 3790TIP3    H235566   0.856   5.031  10.889 -0.0957  0.0622  0.1248
 3791TIP3   OH235567   1.287   5.908  10.514 -0.1793  0.1710 -0.4534
 3791TIP3    H135568   1.353   5.901  10.584 -0.7008 -2.3549 -0.0995
 3791TIP3    H235569   1.222   5.969  10.548 -0.0259 -0.4146  0.9695
 3792TIP3   OH235570   3.665   4.574  13.261  0.0975  0.2873  0.3358
 3792TIP3    H135571   3.662   4.613  13.174 -3.1041 -0.9402 -0.2392
 3792TIP3    H235572   3.619   4.636  13.317 -0.4825 -0.2702  0.4884
 3793TIP3   OH235573   6.598   3.993  10.850  0.9566  0.1152  0.1135
 3793TIP3    H135574   6.546   4.053  10.903  0.9252  1.9592 -1.8907
 3793TIP3    H235575   6.682   4.037  10.838  1.5667 -1.0303  0.0069
 3794TIP3   OH235576   0.543   0.616  10.621 -0.1638  0.3787 -0.4306
 3794TIP3    H135577   0.460   0.605  10.669  0.1935  0.2861  0.1803
 3794TIP3    H235578   0.526   0.686  10.559 -0.3180  1.2742  0.5892
 3795TIP3   OH235579   1.918   4.694  11.360  0.0668  0.4816 -0.3487
 3795TIP3    H135580   1.868   4.744  11.423 -0.4551  0.3888 -0.6867
 3795TIP3    H235581   2.005   4.686  11.399 -0.5538 -0.5753  0.8969
 3796TIP3   OH235582   6.360   2.281  11.492  0.6207  0.0641 -0.3079
 3796TIP3    H135583   6.280   2.229  11.499  1.2961 -1.1130 -1.0029
 3796TIP3    H235584   6.402   2.273  11.577  1.2575 -1.4917 -0.7295
 3797TIP3   OH235585   2.520   2.453  12.339 -0.3650 -0.1445  0.3890
 3797TIP3    H135586   2.519   2.524  12.403  1.0361  0.4191 -0.1605
 3797TIP3    H235587   2.493   2.494  12.257  0.0047 -0.3356  0.1671
 3798TIP3   OH235588   2.663   2.219  12.385  0.0378  0.3928  0.2297
 3798TIP3    H135589   2.753   2.241  12.364 -0.2724  2.0814  0.5343
 3798TIP3    H235590   2.615   2.301  12.375 -1.3601 -0.3424  0.6330
 3799TIP3   OH235591   3.221   1.424  11.938  0.2359 -0.1515  0.0584
 3799TIP3    H135592   3.193   1.427  12.029  1.2842 -0.8625  0.4181
 3799TIP3    H235593   3.218   1.516  11.909 -2.5149 -0.1944  0.0120
 3800TIP3   OH235594   5.831   1.797  11.126 -0.0050 -0.1383 -0.1570
 3800TIP3    H135595   5.819   1.836  11.212  1.7926 -1.4928  0.7771
 3800TIP3    H235596   5.918   1.827  11.098  0.4220 -1.5777 -0.4357
 3801TIP3   OH235597   6.692   3.184  12.000 -0.0225  0.2208  0.4800
 3801TIP3    H135598   6.662   3.225  11.918  0.3956 -0.3143  0.0499
 3801TIP3    H235599   6.666   3.092  11.992  0.1340  0.1375  0.8945
 3802TIP3   OH235600   2.263   1.078  13.027 -0.0231 -0.0832 -0.0736
 3802TIP3    H135601   2.209   1.085  12.948  0.6425 -0.8188 -0.6160
 3802TIP3    H235602   2.352   1.070  12.994  0.2261 -0.8338  0.7389
 3803TIP3   OH235603   2.123   1.183  10.437  0.1423  0.1330 -0.0509
 3803TIP3    H135604   2.080   1.183  10.352 -0.7927 -2.8007  0.3051
 3803TIP3    H235605   2.088   1.260  10.482 -2.1384 -0.2410 -1.0360
 3804TIP3   OH235606   0.279   0.581  10.758 -0.3375 -0.2161  0.7175
 3804TIP3    H135607   0.219   0.597  10.686  0.2083  0.8177  0.4639
 3804TIP3    H235608   0.224   0.580  10.836 -1.2041 -3.2591  0.1642
 3805TIP3   OH235609   4.607   3.450  10.552 -0.1289 -0.2083 -0.3332
 3805TIP3    H135610   4.562   3.373  10.518 -0.7576  0.0155 -0.0149
 3805TIP3    H235611   4.577   3.459  10.642 -1.1529  1.2172 -0.7832
 3806TIP3   OH235612   4.435   2.877  12.303 -0.3674  0.7816 -0.6106
 3806TIP3    H135613   4.459   2.947  12.243 -0.0316  0.3419 -0.9982
 3806TIP3    H235614   4.512   2.865  12.359  1.1665 -1.8817 -3.0421
 3807TIP3   OH235615   0.243   4.155  12.100 -0.1231  0.2144 -0.1086
 3807TIP3    H135616   0.226   4.081  12.042  1.1612  0.8730 -1.3599
 3807TIP3    H235617   0.174   4.218  12.079 -1.6959 -0.8839  1.5095
 3808TIP3   OH235618   0.255   5.946  11.921 -0.4603  0.0552  0.5422
 3808TIP3    H135619   0.301   5.879  11.972 -0.6177 -0.6964 -0.2819
 3808TIP3    H235620   0.293   6.029  11.950  0.7340 -0.4855  0.5655
 3809TIP3   OH235621   0.678   4.083  10.966 -0.4625 -0.0137  0.0047
 3809TIP3    H135622   0.662   4.151  11.032 -0.1413  0.0829 -0.0127
 3809TIP3    H235623   0.603   4.088  10.907 -1.4419 -1.0097  1.1163
 3810TIP3   OH235624   3.422   3.866  12.595 -0.9266  0.7472  0.3751
 3810TIP3    H135625   3.457   3.855  12.507 -0.6668  1.7769  0.3413
 3810TIP3    H235626   3.466   3.799  12.647 -0.9798  0.2230 -0.2381
 3811TIP3   OH235627   3.561   4.025  12.877 -0.4705 -0.1583  0.3436
 3811TIP3    H135628   3.634   4.067  12.923 -0.9422 -1.1977  2.1318
 3811TIP3    H235629   3.528   4.093  12.818  1.0712  0.7665  0.4989
 3812TIP3   OH235630   1.046   0.570  11.185 -0.2190 -0.2133 -0.0491
 3812TIP3    H135631   1.012   0.565  11.275 -0.4196  0.3934 -0.0874
 3812TIP3    H235632   1.033   0.482  11.150 -1.8602  0.0293 -0.0998
 3813TIP3   OH235633   0.732   3.057  11.761  0.4019  0.0502 -0.5012
 3813TIP3    H135634   0.817   3.053  11.717  0.4504 -0.7814 -0.3415
 3813TIP3    H235635   0.669   3.032  11.694  0.3007  0.4490 -0.5576
 3814TIP3   OH235636   2.549   4.147  12.042 -0.1886  0.0645  0.4714
 3814TIP3    H135637   2.465   4.118  12.004  0.5315 -0.5113 -0.7505
 3814TIP3    H235638   2.555   4.100  12.125  0.2548 -2.2363 -0.7886
 3815TIP3   OH235639   5.679   0.349  11.576 -0.3203 -0.2719  0.0450
 3815TIP3    H135640   5.723   0.412  11.519 -0.1463 -2.0145 -1.8885
 3815TIP3    H235641   5.658   0.275  11.518 -1.0834 -1.7236  2.0487
 3816TIP3   OH235642   2.344   0.592  11.816  0.0232  0.0225 -0.4099
 3816TIP3    H135643   2.333   0.687  11.821  0.2384  0.0010  0.7353
 3816TIP3    H235644   2.280   0.557  11.878  0.0818 -0.5680 -0.6818
 3817TIP3   OH235645   0.167   4.064  12.689 -0.1625 -0.4160 -0.0255
 3817TIP3    H135646   0.135   3.975  12.704  0.7125 -0.8223 -0.4904
 3817TIP3    H235647   0.132   4.114  12.762 -0.0599 -1.3033  0.6557
 3818TIP3   OH235648   6.229   2.341  12.925  0.1462  0.3418  0.0940
 3818TIP3    H135649   6.245   2.300  12.840 -3.2971  0.7889 -0.9172
 3818TIP3    H235650   6.247   2.434  12.910  1.7911  0.1297  0.5788
 3819TIP3   OH235651   3.425   1.954  11.754  0.5153  0.3203 -0.4031
 3819TIP3    H135652   3.338   1.944  11.716  0.1293 -0.6513  0.6759
 3819TIP3    H235653   3.408   1.975  11.846  1.4136  2.8440 -0.7217
 3820TIP3   OH235654   0.747   2.152  12.970 -0.4214  0.7725  0.4376
 3820TIP3    H135655   0.733   2.072  12.920 -1.2485  0.4176  1.2022
 3820TIP3    H235656   0.841   2.155  12.986 -0.4064 -0.1648  0.5742
 3821TIP3   OH235657   5.195   0.274  13.029  0.7372 -0.4377  0.9356
 3821TIP3    H135658   5.237   0.323  12.959 -1.3692 -1.3421 -1.1094
 3821TIP3    H235659   5.154   0.341  13.084  0.1693  0.2209 -0.2578
 3822TIP3   OH235660   4.706   4.384  10.075 -0.0452  0.4099 -0.5599
 3822TIP3    H135661   4.678   4.370   9.985  0.3850 -1.3250 -0.4693
 3822TIP3    H235662   4.802   4.383  10.070  0.0291 -1.6450  0.1070
 3823TIP3   OH235663   1.428   3.938  12.977  0.0612 -0.0078 -0.2854
 3823TIP3    H135664   1.367   3.864  12.977 -2.0491  1.6055 -1.5610
 3823TIP3    H235665   1.390   3.999  13.040  0.2112  1.1199 -1.2619
 3824TIP3   OH235666   4.447   6.512  10.582 -0.0056 -1.0209 -0.1383
 3824TIP3    H135667   4.477   6.556  10.661 -0.4207 -1.5063  0.2970
 3824TIP3    H235668   4.527   6.478  10.542  0.1666 -1.1066  0.2744
 3825TIP3   OH235669   5.973   2.389  10.460 -0.1136  0.3425 -0.2356
 3825TIP3    H135670   6.043   2.453  10.468  0.3253  0.1804 -2.2493
 3825TIP3    H235671   5.904   2.435  10.413 -1.1611  0.3104  1.1954
 3826TIP3   OH235672   4.405   3.864  12.817 -0.2145  0.0536  0.1902
 3826TIP3    H135673   4.423   3.957  12.803  0.6765 -0.1897 -0.3978
 3826TIP3    H235674   4.443   3.821  12.740 -0.4701 -0.8064  0.5395
 3827TIP3   OH235675   0.499   5.855  10.221 -0.3674  0.1537  0.1838
 3827TIP3    H135676   0.498   5.918  10.149 -0.1817 -1.0530 -0.9194
 3827TIP3    H235677   0.407   5.828  10.231 -0.4292  0.4906  0.5759
 3828TIP3   OH235678   1.197   4.841  12.327  0.5175  0.0374  0.5016
 3828TIP3    H135679   1.230   4.930  12.335  1.6352 -0.4095  1.3326
 3828TIP3    H235680   1.276   4.788  12.315 -0.0959 -0.8769  0.4083
 3829TIP3   OH235681   5.998   0.863  12.609 -0.1437 -0.2247 -0.7172
 3829TIP3    H135682   6.014   0.772  12.584 -0.6443 -0.1853 -1.1968
 3829TIP3    H235683   6.086   0.900  12.619  0.0837 -1.0188  0.4992
 3830TIP3   OH235684   2.456   3.558  12.975 -0.3378  0.3443  0.4567
 3830TIP3    H135685   2.501   3.623  12.921  0.9606  0.6306  1.7867
 3830TIP3    H235686   2.384   3.526  12.921  0.3629  1.2509 -1.0736
 3831TIP3   OH235687   3.508   0.455  10.540 -0.2469 -0.7392 -0.3618
 3831TIP3    H135688   3.445   0.427  10.474  0.7112 -1.6926 -0.9064
 3831TIP3    H235689   3.537   0.541  10.512 -1.7333 -0.0074  0.2316
 3832TIP3   OH235690   2.881   0.799  12.636 -0.8259 -0.4036 -0.5471
 3832TIP3    H135691   2.900   0.752  12.554  1.0468 -1.8382  0.6207
 3832TIP3    H235692   2.902   0.890  12.616  0.2828 -0.8357 -1.4907
 3833TIP3   OH235693   5.649   1.283  11.009 -0.0098 -0.1690  0.6845
 3833TIP3    H135694   5.684   1.372  11.010 -0.8697  0.1730  1.1916
 3833TIP3    H235695   5.585   1.281  11.080  0.3608 -1.3490  1.0088
 3834TIP3   OH235696   2.239   6.465  10.303  0.1246 -0.2060  0.3299
 3834TIP3    H135697   2.318   6.446  10.252 -0.0936  1.2474 -0.6091
 3834TIP3    H235698   2.179   6.393  10.281  0.1477  0.2196 -1.2697
 3835TIP3   OH235699   6.707   0.299  12.883  0.4211 -0.1343 -0.2554
 3835TIP3    H135700   6.666   0.271  12.801 -1.8817  1.2437  0.3436
 3835TIP3    H235701   6.760   0.375  12.860  0.0886  0.0117 -0.5344
 3836TIP3   OH235702   1.642   2.171  10.740  0.0905  0.8299 -0.1779
 3836TIP3    H135703   1.602   2.097  10.694  0.5200 -0.2007  1.0556
 3836TIP3    H235704   1.661   2.138  10.828  2.3556  1.6780 -0.2724
 3837TIP3   OH235705   5.452   4.308  12.746 -0.3490  0.2111 -0.5849
 3837TIP3    H135706   5.485   4.398  12.745  0.2162  0.0130 -1.3922
 3837TIP3    H235707   5.487   4.270  12.666  0.1153 -0.9738  0.1617
 3838TIP3   OH235708   6.022   4.472  10.555  0.6116  0.1489 -0.3092
 3838TIP3    H135709   6.091   4.480  10.620  0.1532 -1.1321  0.3522
 3838TIP3    H235710   6.030   4.384  10.520 -1.4319 -0.5174  0.6947
 3839TIP3   OH235711   6.009   5.862  11.034  0.1757  0.5111 -0.3301
 3839TIP3    H135712   5.999   5.901  10.948  0.4962  0.1770 -0.5240
 3839TIP3    H235713   6.096   5.890  11.063  0.1471  0.4666 -0.2010
 3840TIP3   OH235714   1.916   4.746  12.656 -0.3264 -0.4065 -0.2130
 3840TIP3    H135715   1.855   4.672  12.662 -1.9291  0.7605 -1.2015
 3840TIP3    H235716   1.935   4.753  12.562 -0.8435  0.8853 -0.2463
 3841TIP3   OH235717   0.495   2.572   9.713 -0.1469  0.2311  0.0060
 3841TIP3    H135718   0.468   2.542   9.626  1.3638  1.5004 -0.9514
 3841TIP3    H235719   0.548   2.500   9.747 -0.0968  0.0395 -0.4595
 3842TIP3   OH235720   4.718   6.036  12.278 -0.4291  0.1008 -0.3221
 3842TIP3    H135721   4.782   6.108  12.273  0.1020 -0.2437  1.1010
 3842TIP3    H235722   4.633   6.080  12.281 -0.1471  0.6505 -0.1744
 3843TIP3   OH235723   5.432   1.286  11.800 -0.1374 -0.1174 -0.7528
 3843TIP3    H135724   5.340   1.261  11.789 -0.2139  0.4646 -1.5327
 3843TIP3    H235725   5.471   1.214  11.848 -1.0630 -0.2561 -0.1943
 3844TIP3   OH235726   6.035   1.311  10.716  0.0755  0.3161  0.9354
 3844TIP3    H135727   6.004   1.399  10.696  1.9209  0.7021 -0.5053
 3844TIP3    H235728   5.955   1.257  10.717 -1.0317  1.8985  1.4567
 3845TIP3   OH235729   5.054   3.907  11.501  0.3978  0.2948  0.8118
 3845TIP3    H135730   4.997   3.836  11.531  0.1172  0.5381  0.8635
 3845TIP3    H235731   5.123   3.912  11.566 -0.3752  1.0286  1.6068
 3846TIP3   OH235732   1.670   0.569  12.376  0.2742  0.6708 -0.0850
 3846TIP3    H135733   1.751   0.535  12.339  1.3147  2.0872  0.7821
 3846TIP3    H235734   1.624   0.492  12.410  1.4280 -0.1201 -0.2803
 3847TIP3   OH235735   5.091   1.177  10.774 -0.3278  0.0764  0.4061
 3847TIP3    H135736   5.142   1.142  10.847 -0.5150  1.7667  1.4129
 3847TIP3    H235737   5.084   1.271  10.793 -1.3562  0.3634 -1.2088
 3848TIP3   OH235738   3.645   1.103  11.539 -0.1455 -0.1042  0.2903
 3848TIP3    H135739   3.719   1.117  11.598  0.3207  0.1443 -0.3487
 3848TIP3    H235740   3.595   1.185  11.543  0.6223  0.4300 -0.6826
 3849TIP3   OH235741   1.517   1.418  12.352  0.7230  0.3083 -0.1147
 3849TIP3    H135742   1.546   1.334  12.316  0.7703  0.1769  0.2250
 3849TIP3    H235743   1.586   1.480  12.328 -0.0120  0.5717 -1.6443
 3850TIP3   OH235744   0.647   2.168  10.644 -0.0960  0.1520 -0.1898
 3850TIP3    H135745   0.592   2.094  10.620  0.1807 -0.4486  0.9418
 3850TIP3    H235746   0.715   2.171  10.577 -1.9539  1.4738 -2.1469
 3851TIP3   OH235747   4.669   3.288  11.156  0.6986  0.4227 -0.3530
 3851TIP3    H135748   4.621   3.236  11.092  1.2581 -0.1159 -0.3445
 3851TIP3    H235749   4.608   3.298  11.229  0.5366 -0.1047 -0.4122
 3852TIP3   OH235750   3.746   3.725  11.246  0.5498  0.5541 -0.0090
 3852TIP3    H135751   3.725   3.775  11.325  1.8375  0.9486  0.0988
 3852TIP3    H235752   3.831   3.685  11.264 -0.3275 -1.5451 -0.1712
 3853TIP3   OH235753   0.251   4.833  12.792  0.0006  0.3364 -0.3342
 3853TIP3    H135754   0.291   4.748  12.777  2.1846  1.1534  0.3872
 3853TIP3    H235755   0.159   4.814  12.810  0.2962 -1.7889 -0.8230
 3854TIP3   OH235756   0.965   4.462  11.384  0.1376 -0.7377 -0.1679
 3854TIP3    H135757   0.917   4.463  11.302  0.6554 -1.8783 -0.5106
 3854TIP3    H235758   1.057   4.450  11.359  0.4903  0.3754  0.5187
 3855TIP3   OH235759   2.995   6.788   9.673  0.0072  0.2094 -0.3730
 3855TIP3    H135760   2.933   6.854   9.704 -0.8128 -0.6665 -0.1064
 3855TIP3    H235761   3.075   6.837   9.656 -0.8366  1.4386 -1.0382
 3856TIP3   OH235762   0.040   2.985  11.714 -0.3648 -0.3041  0.1677
 3856TIP3    H135763   0.095   2.977  11.637  0.0577 -0.9265  0.5264
 3856TIP3    H235764   0.101   3.013  11.784 -0.2523 -2.1193  0.8398
 3857TIP3   OH235765   3.364   3.280   9.527  0.3026  0.8331 -0.3804
 3857TIP3    H135766   3.438   3.339   9.523  1.8284 -0.9089  0.5741
 3857TIP3    H235767   3.393   3.201   9.481 -0.1944 -0.6113  1.6289
 3858TIP3   OH235768   6.126   4.218  11.504 -0.3185  0.1402  0.0954
 3858TIP3    H135769   6.176   4.255  11.432 -2.6417  1.2459 -1.0791
 3858TIP3    H235770   6.191   4.194  11.569  1.8926 -1.1342 -2.4289
 3859TIP3   OH235771   6.145   0.915  12.331 -0.6274  0.7609  0.1319
 3859TIP3    H135772   6.056   0.947  12.314 -2.0203 -3.1635 -0.9567
 3859TIP3    H235773   6.160   0.848  12.265  3.2791  1.2981  0.2184
 3860TIP3   OH235774   5.545   1.456   9.638 -0.5383 -0.0699 -0.3189
 3860TIP3    H135775   5.518   1.370   9.668 -1.0670 -0.6048 -2.2034
 3860TIP3    H235776   5.588   1.440   9.554  3.5635  1.0107  1.3316
 3861TIP3   OH235777   4.674   0.812  10.454  0.0009 -0.0982 -0.4162
 3861TIP3    H135778   4.700   0.735  10.505  1.0731  0.0549 -0.7108
 3861TIP3    H235779   4.717   0.801  10.370  1.0384  1.3247 -0.1117
 3862TIP3   OH235780   4.053   0.258  12.352 -0.3523 -0.4819  0.3127
 3862TIP3    H135781   3.996   0.181  12.345  0.8525 -1.4856  1.1420
 3862TIP3    H235782   4.012   0.322  12.294 -1.3274 -1.7814 -0.5229
 3863TIP3   OH235783   2.173   5.086  12.414  0.4531 -0.1309 -0.1361
 3863TIP3    H135784   2.205   5.056  12.499  0.3541  0.7614  0.2275
 3863TIP3    H235785   2.160   5.006  12.363 -0.4810 -0.7610  1.0419
 3864TIP3   OH235786   4.738   3.305  10.187 -0.1608  0.0879 -0.2131
 3864TIP3    H135787   4.684   3.346  10.120  0.0862  0.9874  0.1225
 3864TIP3    H235788   4.680   3.243  10.231 -0.6789  0.4269 -0.4174
 3865TIP3   OH235789   5.751   3.389  11.642  0.4162 -0.3273 -0.3071
 3865TIP3    H135790   5.769   3.393  11.736  0.7190 -0.5759 -0.3534
 3865TIP3    H235791   5.660   3.419  11.633  1.0200  1.7119 -0.1493
 3866TIP3   OH235792   2.933   3.959  10.454 -0.2983  0.1992  0.1808
 3866TIP3    H135793   2.870   3.889  10.473 -1.3989  1.2382  0.4309
 3866TIP3    H235794   2.987   3.923  10.383 -1.6402 -0.4307 -0.5543
 3867TIP3   OH235795   1.304   2.104  12.890 -0.0812  0.5876  0.0263
 3867TIP3    H135796   1.309   2.145  12.976  0.0536  1.0920 -0.2166
 3867TIP3    H235797   1.213   2.117  12.862  0.2741  1.9416 -0.6235
 3868TIP3   OH235798   6.258   4.517  12.483  0.1855 -0.1830 -0.1592
 3868TIP3    H135799   6.248   4.444  12.422  0.8005 -0.3978 -0.0146
 3868TIP3    H235800   6.338   4.496  12.531 -0.9708 -0.7013  1.6413
 3869TIP3   OH235801   2.149   5.470  12.091  0.0137  0.5195 -0.8078
 3869TIP3    H135802   2.226   5.526  12.098  0.9421 -0.9373  1.7781
 3869TIP3    H235803   2.108   5.496  12.008  3.6733  0.8663 -2.7297
 3870TIP3   OH235804   6.006   3.066  13.133 -0.1923 -0.5229 -0.0280
 3870TIP3    H135805   6.071   3.001  13.159 -2.1875 -2.1595  1.2175
 3870TIP3    H235806   5.940   3.063  13.203 -1.4438  1.2861 -1.0516
 3871TIP3   OH235807   5.616   4.238  10.901 -0.0456  0.2710  0.6426
 3871TIP3    H135808   5.543   4.285  10.860  2.7180  2.9545 -1.6601
 3871TIP3    H235809   5.578   4.155  10.929 -3.2776  0.0179 -3.5186
 3872TIP3   OH235810   1.697   3.972  10.802  0.6602  0.1695  0.1098
 3872TIP3    H135811   1.659   4.059  10.795  0.3212 -0.0716 -1.3972
 3872TIP3    H235812   1.692   3.936  10.714  0.8666 -1.3557  0.6818
 3873TIP3   OH235813   0.097   0.076  11.377  0.1823 -0.3282 -0.1416
 3873TIP3    H135814   0.046   0.018  11.433 -1.2858 -1.0738 -2.1023
 3873TIP3    H235815   0.185   0.074  11.413 -0.5664 -1.1365  1.7963
 3874TIP3   OH235816   3.049   5.127  11.806  0.4079  0.1880  0.3848
 3874TIP3    H135817   3.007   5.084  11.880 -0.9287 -0.4138 -0.6783
 3874TIP3    H235818   3.093   5.056  11.759 -0.2417  0.2716 -0.3620
 3875TIP3   OH235819   5.815   6.819  10.349 -0.1081  0.7075  0.0642
 3875TIP3    H135820   5.812   6.786  10.439 -1.2717  1.7295  0.4191
 3875TIP3    H235821   5.727   6.802  10.315  0.0054  1.2806 -0.5241
 3876TIP3   OH235822   5.858   5.607  13.055  0.1229 -0.6725  0.5027
 3876TIP3    H135823   5.762   5.608  13.058  0.0052  1.0196 -1.7431
 3876TIP3    H235824   5.880   5.524  13.013 -0.2908 -1.3035  1.4886
 3877TIP3   OH235825   0.935   2.144  12.274  0.2027 -0.1226 -0.0625
 3877TIP3    H135826   0.942   2.239  12.268  0.9523 -0.2688 -2.6138
 3877TIP3    H235827   0.844   2.128  12.298 -0.3447  1.2198 -1.1402
 3878TIP3   OH235828   5.167   1.421  10.557 -0.0114 -0.4362 -0.0635
 3878TIP3    H135829   5.094   1.413  10.618  0.4155 -1.1858  0.3698
 3878TIP3    H235830   5.232   1.474  10.605 -0.6029  1.0047 -0.7896
 3879TIP3   OH235831   4.291   3.512  11.030 -0.1300 -0.2573 -0.4480
 3879TIP3    H135832   4.203   3.484  11.004  0.4663 -1.9118 -0.8082
 3879TIP3    H235833   4.303   3.475  11.117  0.2134 -0.0860 -0.4218
 3880TIP3   OH235834   4.901   6.475  12.322 -0.6484 -0.0546 -0.1066
 3880TIP3    H135835   4.956   6.512  12.253 -2.4470  0.3903 -1.3815
 3880TIP3    H235836   4.871   6.550  12.372  1.7502 -0.4617  2.1534
 3881TIP3   OH235837   4.388   0.151  11.399  0.2386  0.6204 -0.2875
 3881TIP3    H135838   4.390   0.200  11.481  0.8873  3.1463 -1.7255
 3881TIP3    H235839   4.480   0.139  11.375  0.0493  0.2543 -0.8596
 3882TIP3   OH235840   4.769   2.036  10.665 -0.1253  0.0757  0.0242
 3882TIP3    H135841   4.852   2.051  10.711 -0.0749 -1.0253  0.3359
 3882TIP3    H235842   4.746   1.946  10.688 -0.1635 -0.4716 -2.0249
 3883TIP3   OH235843   2.542   3.867  11.044 -0.2247 -0.6001 -0.3180
 3883TIP3    H135844   2.450   3.892  11.054 -0.0034  0.6284 -1.1170
 3883TIP3    H235845   2.577   3.868  11.133 -0.9842 -1.1355  0.0012
 3884TIP3   OH235846   2.607   3.880  11.577 -0.2733  0.3054 -0.4852
 3884TIP3    H135847   2.703   3.880  11.577 -0.2599 -0.7624 -1.1247
 3884TIP3    H235848   2.583   3.790  11.602 -1.0921  0.2384 -1.4655
 3885TIP3   OH235849   3.406   6.635  11.981 -0.4240  0.3251  0.3144
 3885TIP3    H135850   3.332   6.584  11.949  0.1595 -0.8020  0.6932
 3885TIP3    H235851   3.368   6.716  12.013 -1.1255  1.2524 -2.5705
 3886TIP3   OH235852   5.251   6.393  11.946 -0.6132  0.1786 -0.2305
 3886TIP3    H135853   5.334   6.430  11.976 -0.7699  0.3823 -0.0419
 3886TIP3    H235854   5.276   6.326  11.882 -0.2554 -0.4160  0.5107
 3887TIP3   OH235855   2.490   1.363  12.754  0.0084 -0.2363 -0.6143
 3887TIP3    H135856   2.420   1.375  12.690  0.7301  1.1466 -1.1729
 3887TIP3    H235857   2.479   1.434  12.816  0.5916 -0.3291 -0.3952
 3888TIP3   OH235858   0.170   1.455  10.053 -0.3398 -0.0367  0.0788
 3888TIP3    H135859   0.244   1.514  10.039 -0.5341 -0.0949 -1.2921
 3888TIP3    H235860   0.106   1.480   9.987 -1.8997  0.5205  1.6986
 3889TIP3   OH235861   0.517   1.824  12.451 -0.3167  0.2894  0.0691
 3889TIP3    H135862   0.521   1.767  12.528  0.0506 -2.7388 -2.0224
 3889TIP3    H235863   0.608   1.852  12.438  0.1969 -1.6620 -0.8895
 3890TIP3   OH235864   1.271   6.735  12.631 -0.5701 -0.4300 -0.2412
 3890TIP3    H135865   1.303   6.646  12.617 -0.4960 -0.2769 -1.1122
 3890TIP3    H235866   1.183   6.735  12.594 -0.9697 -0.4092  0.6845
 3891TIP3   OH235867   1.963   1.028  10.942  0.0617 -0.1322 -0.5910
 3891TIP3    H135868   1.964   0.977  11.023 -1.1325  0.7476  0.0130
 3891TIP3    H235869   2.054   1.050  10.926  0.3619 -0.7318  0.2417
 3892TIP3   OH235870   3.586   3.841  10.252 -0.0573  0.3227  0.5709
 3892TIP3    H135871   3.561   3.776  10.187 -3.4737 -1.0843  2.9894
 3892TIP3    H235872   3.679   3.826  10.268 -0.0108 -1.7194 -1.3099
 3893TIP3   OH235873   5.289   4.593  12.915  0.4660  0.0663  0.1333
 3893TIP3    H135874   5.296   4.682  12.879  1.1755 -1.1876 -3.2601
 3893TIP3    H235875   5.372   4.551  12.889 -0.5288 -2.0335  0.1636
 3894TIP3   OH235876   4.245   0.408  11.126 -0.4837  0.4825 -0.3045
 3894TIP3    H135877   4.292   0.329  11.101  0.0602  0.8139 -0.3627
 3894TIP3    H235878   4.165   0.377  11.167  0.6627 -0.1541  1.5720
 3895TIP3   OH235879   1.592   0.945  12.121 -0.2590 -0.2195 -1.0203
 3895TIP3    H135880   1.601   0.955  12.216 -0.1114 -3.1109 -0.6555
 3895TIP3    H235881   1.544   1.023  12.094 -1.0224  0.3074  1.5420
 3896TIP3   OH235882   6.381   2.966  12.240  0.2539 -0.2155 -0.4599
 3896TIP3    H135883   6.414   3.056  12.240  0.3634 -0.2473  0.6344
 3896TIP3    H235884   6.337   2.957  12.324 -0.6565 -0.8690 -0.9881
 3897TIP3   OH235885   5.594   5.362  11.001  0.1398 -0.1131  0.4420
 3897TIP3    H135886   5.561   5.401  10.920  1.3026 -0.9551 -0.4809
 3897TIP3    H235887   5.677   5.408  11.017  0.1640 -0.2996  0.8733
 3898TIP3   OH235888   3.072   4.708  11.158 -0.1461 -0.8577 -0.9405
 3898TIP3    H135889   3.094   4.668  11.074  0.4823  0.6672 -1.5391
 3898TIP3    H235890   3.152   4.701  11.210  1.2546  2.6913 -2.3258
 3899TIP3   OH235891   2.973   5.560  12.398 -0.3141  0.0455 -0.6388
 3899TIP3    H135892   2.890   5.594  12.432 -0.0217 -0.4540  0.6274
 3899TIP3    H235893   3.028   5.638  12.389  0.0605  0.0754  1.4082
 3900TIP3   OH235894   0.924   6.569  12.874  0.2288  0.2999  0.2730
 3900TIP3    H135895   1.019   6.571  12.883  0.3928 -1.6816 -0.4783
 3900TIP3    H235896   0.907   6.597  12.784  0.4122 -2.3657 -0.6849
 3901TIP3   OH235897   3.917   1.371  11.982 -0.0574  0.0812 -0.4436
 3901TIP3    H135898   3.993   1.331  11.940  1.4270  2.2508  0.0102
 3901TIP3    H235899   3.882   1.431  11.916 -0.3916  0.2970 -0.0767
 3902TIP3   OH235900   0.963   4.334  11.036 -0.2498  0.0915 -0.0343
 3902TIP3    H135901   0.942   4.322  10.943  2.1718 -1.4584 -0.4734
 3902TIP3    H235902   0.910   4.408  11.063 -0.9648  0.6611 -2.6792
 3903TIP3   OH235903   6.677   1.153  12.975 -0.2479  0.1607 -0.7952
 3903TIP3    H135904   6.724   1.092  12.918 -0.4356 -0.0856 -0.6833
 3903TIP3    H235905   6.739   1.226  12.987  0.6223 -0.7360  0.3887
 3904TIP3   OH235906   0.790   4.169  13.103  0.8108  0.7500 -0.1728
 3904TIP3    H135907   0.709   4.171  13.154  2.2867  1.6645  2.3472
 3904TIP3    H235908   0.801   4.077  13.078 -0.4436  0.4184  0.4116
 3905TIP3   OH235909   1.518   0.675  11.369 -0.4348  0.4132 -0.6168
 3905TIP3    H135910   1.509   0.598  11.425 -1.3006  0.9499  0.0082
 3905TIP3    H235911   1.496   0.749  11.426 -2.1458  0.9220 -1.8386
 3906TIP3   OH235912   3.275   1.089  12.020 -0.1700 -0.4028  0.3439
 3906TIP3    H135913   3.244   1.007  11.981  0.4003 -0.4235 -0.0750
 3906TIP3    H235914   3.370   1.085  12.013 -0.1776  0.9176 -0.9673
 3907TIP3   OH235915   2.232   5.869  10.781  0.1708 -0.0300  0.2243
 3907TIP3    H135916   2.144   5.849  10.812  0.8778 -0.3826  2.1472
 3907TIP3    H235917   2.290   5.819  10.840  1.6217 -1.2699 -2.1002
 3908TIP3   OH235918   6.692   5.380  10.414  0.7929 -0.7992  0.0353
 3908TIP3    H135919   6.728   5.292  10.414  1.7652 -0.4319 -1.1668
 3908TIP3    H235920   6.714   5.415  10.328  0.1387  0.5030  0.3709
 3909TIP3   OH235921   4.025   3.798  11.479 -0.4812 -0.5657 -0.0271
 3909TIP3    H135922   3.933   3.819  11.493 -0.7354 -0.4985 -1.5978
 3909TIP3    H235923   4.023   3.714  11.433  0.2625 -0.8232  0.4028
 3910TIP3   OH235924   3.498   4.920  12.458 -0.6008  0.3229  0.4252
 3910TIP3    H135925   3.482   5.013  12.446  0.2978  0.3479 -0.7361
 3910TIP3    H235926   3.517   4.887  12.370  0.5188 -0.6719  1.0096
 3911TIP3   OH235927   6.399   0.065  12.791 -0.5781 -0.9407 -0.1467
 3911TIP3    H135928   6.355   0.134  12.840  0.1417  0.1332 -0.9760
 3911TIP3    H235929   6.490   0.068  12.822 -0.8015 -2.4300  0.7776
 3912TIP3   OH235930   2.393   1.089  11.976 -0.3335  0.1110 -0.6745
 3912TIP3    H135931   2.420   1.177  12.005  0.3569  0.2042 -1.5413
 3912TIP3    H235932   2.356   1.049  12.054 -0.6261  1.1624 -0.2502
 3913TIP3   OH235933   3.933   4.559  13.188  0.4412  0.5919 -0.3691
 3913TIP3    H135934   3.841   4.564  13.216  0.1969  1.4413 -1.2428
 3913TIP3    H235935   3.953   4.648  13.158  2.1495  0.9343  1.6051
 3914TIP3   OH235936   0.115   1.706  12.574  0.4408  0.0598  0.0715
 3914TIP3    H135937   0.166   1.787  12.582 -0.3319  0.4065  2.0426
 3914TIP3    H235938   0.026   1.731  12.599  0.2190 -1.4382  0.8849
 3915TIP3   OH235939   2.633   6.142  12.432  0.1377 -0.1845 -0.4293
 3915TIP3    H135940   2.607   6.156  12.341 -1.7949  1.4055  0.2930
 3915TIP3    H235941   2.577   6.070  12.462 -1.4026  1.2326  0.2690
 3916TIP3   OH235942   0.670   5.352  10.366  0.0416  0.8543  0.1496
 3916TIP3    H135943   0.651   5.329  10.457  1.3394 -0.1717  0.1903
 3916TIP3    H235944   0.757   5.391  10.368  1.1786 -1.4380 -0.9056
 3917TIP3   OH235945   4.538   6.676  11.336  0.0929 -0.6563  0.4942
 3917TIP3    H135946   4.608   6.684  11.400 -0.6802  1.1123  1.1942
 3917TIP3    H235947   4.459   6.699  11.385 -0.8046 -1.3715 -0.5783
 3918TIP3   OH235948   2.390   1.708  13.345 -0.2269 -0.4889 -0.2573
 3918TIP3    H135949   2.360   1.621  13.370 -0.8843 -0.1369  0.2249
 3918TIP3    H235950   2.328   1.737  13.277 -1.0205  0.2417  0.7435
 3919TIP3   OH235951   3.350   5.922   9.737  0.4798 -0.0906 -0.5482
 3919TIP3    H135952   3.399   5.931   9.656  0.1349  0.7833 -0.6663
 3919TIP3    H235953   3.411   5.882   9.798  0.6276 -1.1446 -1.3391
 3920TIP3   OH235954   3.866   6.606  12.411 -0.9110  0.3240  0.0728
 3920TIP3    H135955   3.861   6.678  12.474  0.2144  0.1259  0.4133
 3920TIP3    H235956   3.825   6.533  12.456 -1.1089  0.4796  0.1447
 3921TIP3   OH235957   1.752   0.638  12.746  1.1135 -0.4754  0.0970
 3921TIP3    H135958   1.729   0.642  12.839  0.3024 -1.0547 -0.0711
 3921TIP3    H235959   1.750   0.545  12.724  1.9574 -0.3917 -0.3429
 3922TIP3   OH235960   5.891   4.739  12.434 -0.3500  0.1939  0.0582
 3922TIP3    H135961   5.973   4.732  12.384 -0.7272 -0.3455 -0.4905
 3922TIP3    H235962   5.894   4.667  12.496 -0.7752 -0.3105 -0.5040
 3923TIP3   OH235963   4.885   2.341  12.206  0.3053 -0.1171  0.5715
 3923TIP3    H135964   4.909   2.400  12.134 -0.2218  0.1576  0.6159
 3923TIP3    H235965   4.794   2.364  12.227 -0.2361 -1.6228 -0.0599
 3924TIP3   OH235966   1.108   2.222   9.712  0.0003 -0.1655  0.6308
 3924TIP3    H135967   1.106   2.137   9.670  0.3448  0.1628 -0.0589
 3924TIP3    H235968   1.017   2.252   9.709  0.0921  0.0441 -0.2790
 3925TIP3   OH235969   5.990   4.465  12.269  0.0044  0.0605  0.5134
 3925TIP3    H135970   6.043   4.544  12.264  1.3157 -0.7224  1.5592
 3925TIP3    H235971   5.919   4.487  12.330  1.0148  0.0939  1.7050
 3926TIP3   OH235972   5.356   4.400  11.853  0.0188 -0.3709 -0.1258
 3926TIP3    H135973   5.307   4.342  11.794 -1.1797  0.5009 -0.0398
 3926TIP3    H235974   5.303   4.401  11.933 -0.3092  1.2736 -0.3328
 3927TIP3   OH235975   4.040   5.423  11.536 -0.3154 -0.3792  0.4691
 3927TIP3    H135976   3.960   5.406  11.487  0.1272 -0.6748 -0.1584
 3927TIP3    H235977   4.033   5.514  11.564 -0.6723 -0.2749  0.0416
 3928TIP3   OH235978   1.143   2.098  11.719 -0.0291  0.2413  0.4008
 3928TIP3    H135979   1.216   2.074  11.662  0.0615  2.3732 -0.4808
 3928TIP3    H235980   1.185   2.127  11.800  0.0361  0.3029  0.3450
 3929TIP3   OH235981   4.161   2.296   9.949  0.0837 -0.4007  0.6630
 3929TIP3    H135982   4.073   2.301   9.914 -0.1169  0.1708  1.2301
 3929TIP3    H235983   4.204   2.227   9.897 -0.8009 -0.9468  0.6357
 3930TIP3   OH235984   6.628   2.462  11.705 -0.7563  0.3689  0.1489
 3930TIP3    H135985   6.681   2.468  11.785  0.4500 -0.1939 -0.5886
 3930TIP3    H235986   6.690   2.479  11.634 -1.6090 -0.1152 -0.7233
 3931TIP3   OH235987   0.116   0.859  12.490  0.2389  0.1542 -0.0767
 3931TIP3    H135988   0.131   0.775  12.446  0.4064  0.2795 -0.2628
 3931TIP3    H235989   0.058   0.907  12.431  1.1738  0.6709 -0.6004
 3932TIP3   OH235990   0.761   0.792   9.832  0.0230 -0.4364  0.1215
 3932TIP3    H135991   0.780   0.780   9.926 -0.8542  0.5009  0.4404
 3932TIP3    H235992   0.785   0.883   9.814 -0.3221 -0.4494 -0.4309
 3933TIP3   OH235993   2.745   6.407  10.361  0.8973  0.2202 -0.6961
 3933TIP3    H135994   2.800   6.328  10.364  2.4557  1.2530 -0.9460
 3933TIP3    H235995   2.807   6.479  10.366 -0.5012  1.4513 -0.4868
 3934TIP3   OH235996   4.164   2.062  12.571 -0.0046  0.2772  0.1240
 3934TIP3    H135997   4.093   2.000  12.590  0.1115  0.5290  1.4459
 3934TIP3    H235998   4.238   2.030  12.622  0.0156  1.5626  0.9439
 3935TIP3   OH235999   0.724   6.745  12.982  0.4656  0.0629  0.0833
 3935TIP3    H136000   0.790   6.682  12.952  0.6382  0.3414 -0.1275
 3935TIP3    H236001   0.642   6.696  12.982  0.2409  0.3448 -1.9581
 3936TIP3   OH236002   1.851   0.179  11.655 -0.0914 -0.3069 -0.1750
 3936TIP3    H136003   1.923   0.212  11.601 -0.8807  2.2911  0.2291
 3936TIP3    H236004   1.812   0.109  11.603  2.3972 -1.5251 -0.5863
 3937TIP3   OH236005   2.431   2.838  11.840  0.0093 -0.0025 -0.3840
 3937TIP3    H136006   2.485   2.805  11.768  1.8718 -1.8816  1.7400
 3937TIP3    H236007   2.493   2.876  11.902 -1.4567  0.7658  0.6859
 3938TIP3   OH236008   3.234   0.571  12.587  0.0124 -0.0452  0.5042
 3938TIP3    H136009   3.245   0.550  12.494 -0.4295  1.1270  0.1638
 3938TIP3    H236010   3.249   0.488  12.632 -0.3650 -0.7767 -0.6522
 3939TIP3   OH236011   0.065   2.336   9.800  0.2194 -0.2219 -0.1219
 3939TIP3    H136012   0.116   2.285   9.737  0.2432 -0.7212  0.2968
 3939TIP3    H236013   0.119   2.412   9.820  0.5716 -0.4885 -0.0664
 3940TIP3   OH236014   6.607   0.405  10.287  0.2412  0.0043 -0.4072
 3940TIP3    H136015   6.515   0.382  10.299  0.3048 -0.1237 -0.1686
 3940TIP3    H236016   6.649   0.324  10.259  0.1550  0.2230 -1.2053
 3941TIP3   OH236017   6.637   1.323  10.784  0.2893 -0.1154  0.4899
 3941TIP3    H136018   6.715   1.282  10.748 -0.0305 -1.3011  1.0705
 3941TIP3    H236019   6.648   1.317  10.879 -0.2491  0.2106  0.5784
 3942TIP3   OH236020   0.970   4.270  11.739 -0.1964 -0.0665  1.4699
 3942TIP3    H136021   0.959   4.293  11.831 -0.5782 -1.1955  1.7308
 3942TIP3    H236022   0.932   4.182  11.732  1.1046 -0.5888  0.5415
 3943TIP3   OH236023   0.121   1.769  11.346  0.2413 -0.0333 -0.3384
 3943TIP3    H136024   0.155   1.831  11.410 -0.9874  0.2659  0.0350
 3943TIP3    H236025   0.117   1.819  11.264 -0.2334  0.2206 -0.1603
 3944TIP3   OH236026   1.616   5.824  12.055  0.1041 -0.4029 -0.1323
 3944TIP3    H136027   1.582   5.872  11.980 -0.0173 -0.6816 -0.2556
 3944TIP3    H236028   1.566   5.742  12.056 -0.0597 -0.2991  0.3891
 3945TIP3   OH236029   6.469   1.487  11.051  0.1500  0.3082  0.9444
 3945TIP3    H136030   6.456   1.421  11.119 -0.1299 -1.2837 -0.5722
 3945TIP3    H236031   6.415   1.456  10.978  1.9679  0.8859 -0.7054
 3946TIP3   OH236032   0.127   5.982  13.243  0.2027  0.1993 -0.0248
 3946TIP3    H136033   0.096   5.934  13.320 -0.5955  1.1640  0.2771
 3946TIP3    H236034   0.054   5.977  13.180 -0.4521  2.0701  0.5066
 3947TIP3   OH236035   0.233   2.650  11.954 -0.5750  0.1155  0.3771
 3947TIP3    H136036   0.290   2.702  11.898 -0.9214  1.9931  1.6896
 3947TIP3    H236037   0.291   2.583  11.992  0.1070  0.1883 -0.5157
 3948TIP3   OH236038   1.314   2.959  12.024 -0.3793 -0.4891 -0.5116
 3948TIP3    H136039   1.249   3.020  12.060 -0.6112 -0.9517 -0.1368
 3948TIP3    H236040   1.391   3.013  12.009 -0.1680 -0.3287  0.9723
 3949TIP3   OH236041   4.684   1.434  12.607 -0.2234  0.1231 -0.2185
 3949TIP3    H136042   4.639   1.484  12.539  0.3317  0.4229 -0.3741
 3949TIP3    H236043   4.625   1.361  12.626 -0.5258  0.2067 -0.8019
 3950TIP3   OH236044   1.186   3.724  11.906 -0.3507  0.2432 -0.4630
 3950TIP3    H136045   1.110   3.758  11.952  0.8269  1.3521  0.7516
 3950TIP3    H236046   1.261   3.752  11.959  0.8149 -2.7655 -0.3218
 3951TIP3   OH236047   5.953   4.530  12.636 -0.4194 -0.2242  0.1404
 3951TIP3    H136048   5.943   4.584  12.714 -1.1821 -1.5025  0.9510
 3951TIP3    H236049   6.047   4.528  12.621 -0.3890  2.0576 -0.4777
 3952TIP3   OH236050   4.012   6.210  12.576  0.0921 -0.1814 -0.0259
 3952TIP3    H136051   4.100   6.214  12.612  0.1046 -0.6885  0.0066
 3952TIP3    H236052   3.998   6.297  12.537 -0.3793  0.8496  2.2531
 3953TIP3   OH236053   2.492   2.631  11.331  0.4889  0.4191 -0.2929
 3953TIP3    H136054   2.463   2.569  11.264  1.8585  1.1418 -1.6114
 3953TIP3    H236055   2.447   2.603  11.411 -0.5687 -0.9559 -1.3260
 3954TIP3   OH236056   6.192   6.482  11.677 -0.2651  0.1516  0.5807
 3954TIP3    H136057   6.112   6.437  11.704 -0.9432  0.7342 -0.3643
 3954TIP3    H236058   6.238   6.501  11.758 -0.4776 -1.2944  1.0493
 3955TIP3   OH236059   0.725   3.023  10.332 -0.3685  0.2176  0.6344
 3955TIP3    H136060   0.781   3.070  10.393 -1.5462 -0.3873  2.2553
 3955TIP3    H236061   0.683   3.091  10.280 -0.1453  0.8236  1.2384
 3956TIP3   OH236062   4.121   4.053  11.328  0.1024 -0.5277 -0.1669
 3956TIP3    H136063   4.192   4.018  11.382  0.4868  1.0566  0.4082
 3956TIP3    H236064   4.042   4.013  11.364  0.5335 -0.8698  0.4159
 3957TIP3   OH236065   1.442   1.271  10.521  0.0114  0.5360  0.0979
 3957TIP3    H136066   1.506   1.208  10.487  0.4336  0.2838  1.2920
 3957TIP3    H236067   1.357   1.232  10.503  0.2349  0.2688 -0.3819
 3958TIP3   OH236068   3.409   3.715  12.328  0.2360 -0.0160  0.0779
 3958TIP3    H136069   3.461   3.710  12.248  1.1754  1.2025  0.5678
 3958TIP3    H236070   3.361   3.633  12.331  0.9745 -0.5262 -1.2013
 3959TIP3   OH236071   0.008   1.918  10.598 -0.5684 -0.1905 -0.5879
 3959TIP3    H136072   0.053   1.834  10.607  0.6008  0.5538  0.9546
 3959TIP3    H236073  -0.079   1.895  10.564  0.0155 -1.9258 -1.0185
 3960TIP3   OH236074   6.114   3.015  11.027  0.3626 -0.3978  0.3333
 3960TIP3    H136075   6.040   2.955  11.038 -0.0311 -0.3133 -1.4442
 3960TIP3    H236076   6.076   3.092  10.985  1.4556 -0.3872 -0.6937
 3961TIP3   OH236077   6.599   4.066  11.921 -0.5308 -0.6776  0.4467
 3961TIP3    H136078   6.607   4.109  12.007  0.0727 -0.1133  0.1184
 3961TIP3    H236079   6.596   4.137  11.858  0.1159 -1.0977 -0.0829
 3962TIP3   OH236080   1.761   0.263   9.964  0.1463  0.2661 -0.0239
 3962TIP3    H136081   1.706   0.289  10.038 -1.7854 -1.3975 -0.8102
 3962TIP3    H236082   1.732   0.319   9.892 -0.6904 -0.7387 -0.4861
 3963TIP3   OH236083   3.889   3.085  10.325 -0.2178  0.3101  0.0300
 3963TIP3    H136084   3.855   3.160  10.275  1.2838  0.4180 -0.8933
 3963TIP3    H236085   3.819   3.065  10.387 -1.4137  1.3225 -0.9108
 3964TIP3   OH236086   0.697   4.544  12.604  0.2948 -0.1490 -0.2099
 3964TIP3    H136087   0.707   4.499  12.687  0.8513 -2.0408 -1.2570
 3964TIP3    H236088   0.780   4.590  12.591  1.5574 -2.5143 -1.1816
 3965TIP3   OH236089   0.999   0.315  11.135 -0.2237  0.1552 -0.5472
 3965TIP3    H136090   1.054   0.264  11.195 -1.6043 -1.0519 -0.2397
 3965TIP3    H236091   0.913   0.315  11.176 -0.7756  0.8530 -1.6612
 3966TIP3   OH236092   0.209   2.853  11.490 -0.0705  0.6388  0.2061
 3966TIP3    H136093   0.159   2.929  11.459 -0.8830  0.4534  1.0139
 3966TIP3    H236094   0.282   2.890  11.538  1.5429  0.9491 -2.3159
 3967TIP3   OH236095   2.799   3.344  11.053  0.0619 -0.3133 -0.7218
 3967TIP3    H136096   2.889   3.321  11.027  0.4547  0.5209 -0.1504
 3967TIP3    H236097   2.792   3.437  11.033 -1.2088 -0.6797 -2.1969
 3968TIP3   OH236098   0.512   5.809  11.609 -0.2000 -0.2082  0.4206
 3968TIP3    H136099   0.417   5.822  11.619 -0.5645 -0.4481 -2.0963
 3968TIP3    H236100   0.541   5.887  11.561  0.4326 -1.1954 -0.8505
 3969TIP3   OH236101   3.910   3.049  11.256  0.4982 -0.0343 -0.0016
 3969TIP3    H136102   3.955   2.986  11.312  0.0517 -2.7020 -2.3741
 3969TIP3    H236103   3.977   3.079  11.195  0.2309  0.1267 -0.2162
 3970TIP3   OH236104   3.725   3.242  10.556  0.0792 -0.3483 -0.2142
 3970TIP3    H136105   3.657   3.178  10.534  0.9862 -1.0605 -1.0684
 3970TIP3    H236106   3.719   3.309  10.488 -1.3808  0.9471  1.1088
 3971TIP3   OH236107   0.265   2.159  12.422 -0.7357  0.1067  0.0196
 3971TIP3    H136108   0.288   2.082  12.474  2.5877  1.9324  1.5881
 3971TIP3    H236109   0.292   2.137  12.333 -0.2086 -0.6751  0.3617
 3972TIP3   OH236110   3.006   3.520  10.047 -0.0980 -0.0650  0.4711
 3972TIP3    H136111   3.078   3.583  10.046 -0.0975 -0.0087 -1.8072
 3972TIP3    H236112   2.932   3.569  10.083  0.8356  0.0079  2.4351
 3973TIP3   OH236113   3.672   5.558   9.880  0.0489 -0.0159  0.4767
 3973TIP3    H136114   3.675   5.638   9.828  0.5403 -0.1625  0.2732
 3973TIP3    H236115   3.586   5.559   9.921  0.0005  0.5473  0.3638
 3974TIP3   OH236116   1.133   2.936  12.666  0.8840  0.0414  0.5417
 3974TIP3    H136117   1.199   2.868  12.680  1.4439  0.1743 -1.2181
 3974TIP3    H236118   1.051   2.888  12.653  1.4584 -0.4242 -1.7651
 3975TIP3   OH236119   1.093   2.951  10.636 -0.2273  0.6061 -0.2873
 3975TIP3    H136120   1.150   2.898  10.581  0.9568  1.0854  0.4149
 3975TIP3    H236121   1.143   3.031  10.651 -1.3254  1.2723 -0.0701
 3976TIP3   OH236122   2.174   2.459  12.166  0.3955 -0.4135  0.4034
 3976TIP3    H136123   2.195   2.527  12.102  0.4469 -1.8800 -1.2253
 3976TIP3    H236124   2.143   2.506  12.243 -1.3478  1.4150 -1.3184
 3977TIP3   OH236125   0.679   3.094   9.596 -0.1531  0.3042  0.0576
 3977TIP3    H136126   0.718   3.058   9.516 -1.3027 -0.5948 -0.1247
 3977TIP3    H236127   0.659   3.185   9.574 -0.8210 -0.0419 -0.8303
 3978TIP3   OH236128   3.494   2.893  10.800  0.5920 -0.3520 -0.4419
 3978TIP3    H136129   3.474   2.904  10.707  0.6258 -0.2267 -0.4346
 3978TIP3    H236130   3.516   2.800  10.809  0.8743 -0.3037 -0.6142
 3979TIP3   OH236131   0.768   3.572  10.578 -0.4070 -0.4358  0.1790
 3979TIP3    H136132   0.785   3.648  10.634 -0.9902 -0.4252  0.3562
 3979TIP3    H236133   0.702   3.522  10.626 -1.4027 -0.0933 -0.7709
 3980TIP3   OH236134   2.670   4.387  11.445 -0.2598 -0.1995 -0.8585
 3980TIP3    H136135   2.720   4.457  11.402 -0.5595  0.1057 -0.7165
 3980TIP3    H236136   2.728   4.355  11.513  0.7050 -1.4990 -2.2180
 3981TIP3   OH236137   4.512   0.444  10.395 -0.4773 -0.1317  0.2993
 3981TIP3    H136138   4.463   0.508  10.343 -1.4774 -0.6029  0.6372
 3981TIP3    H236139   4.499   0.361  10.350 -1.6843 -0.6128  1.4997
 3982TIP3   OH236140   0.304   5.919  10.599 -0.1032 -0.5886  0.2265
 3982TIP3    H136141   0.340   5.837  10.566 -0.5496 -0.8510  0.3871
 3982TIP3    H236142   0.314   5.981  10.526  0.1285 -0.8165  0.0666
 3983TIP3   OH236143   4.936   5.900  12.377 -0.4186 -0.3644 -0.2221
 3983TIP3    H136144   4.870   5.851  12.427 -1.2000 -0.5097 -1.3677
 3983TIP3    H236145   4.887   5.970  12.335  0.3495  0.1773 -0.2330
 3984TIP3   OH236146   5.846   4.704  10.452 -0.5435 -0.2779 -0.3066
 3984TIP3    H136147   5.907   4.633  10.472 -0.6698 -0.4233 -0.4385
 3984TIP3    H236148   5.764   4.677  10.494 -1.0659 -1.0018 -1.7351
 3985TIP3   OH236149   0.080   0.534  13.220 -0.7551  0.0764 -0.8038
 3985TIP3    H136150   0.112   0.477  13.289 -1.3813  0.1981 -0.4021
 3985TIP3    H236151   0.100   0.488  13.139 -1.5689 -0.8841 -0.4713
 3986TIP3   OH236152   0.546   1.829  11.788  0.3834  0.3850  0.6730
 3986TIP3    H136153   0.638   1.815  11.765  0.0010 -1.6204  0.1467
 3986TIP3    H236154   0.538   1.792  11.875  0.4481  2.3032  1.5437
 3987TIP3   OH236155   4.082   1.683  12.107  0.2962  0.4193  0.4788
 3987TIP3    H136156   4.129   1.603  12.086 -2.1611 -1.2151  0.8870
 3987TIP3    H236157   4.033   1.704  12.027 -1.5774 -0.3832  1.3521
 3988TIP3   OH236158   3.101   3.205  11.396 -0.4028 -0.3429  0.2376
 3988TIP3    H136159   3.022   3.155  11.380  0.8667 -2.2289 -0.4465
 3988TIP3    H236160   3.098   3.225  11.490 -2.1487  0.5318  0.0355
 3989TIP3   OH236161   5.814   3.944  12.041  0.0297 -0.4866 -0.8355
 3989TIP3    H136162   5.815   4.027  12.089  0.1684 -1.8766  1.7368
 3989TIP3    H236163   5.743   3.954  11.977  1.6773  2.5021 -2.4703
 3990TIP3   OH236164   6.279   1.315  12.360  0.1698  0.7404  0.0236
 3990TIP3    H136165   6.323   1.304  12.444 -0.6355 -0.1223  0.3546
 3990TIP3    H236166   6.340   1.277  12.296  0.6785  1.1779  0.2437
 3991TIP3   OH236167   5.141   0.829  11.352 -0.4233 -0.1360 -1.0619
 3991TIP3    H136168   5.174   0.830  11.262  0.0128  0.8362 -0.9083
 3991TIP3    H236169   5.129   0.737  11.372 -0.3909 -0.3722 -2.0707
 3992TIP3   OH236170   2.712   4.877  12.143  0.1220  0.0917 -0.5115
 3992TIP3    H136171   2.673   4.893  12.229 -1.4162  1.2028 -1.3796
 3992TIP3    H236172   2.651   4.818  12.100 -0.3655  1.3986 -1.6817
 3993TIP3   OH236173   2.285   2.257  12.422 -0.3077 -0.7245  0.6109
 3993TIP3    H136174   2.365   2.253  12.476 -0.6584 -0.6282  1.1454
 3993TIP3    H236175   2.293   2.341  12.376 -0.2759 -0.5397  0.9450
 3994TIP3   OH236176   4.111   5.482  12.017  0.4342  0.1742  0.1786
 3994TIP3    H136177   4.113   5.412  12.083  0.8772  0.6037  0.6234
 3994TIP3    H236178   4.078   5.439  11.938 -1.4751 -0.0568  1.0220
 3995TIP3   OH236179   6.718   0.126  11.252  0.2901 -0.0379 -0.0366
 3995TIP3    H136180   6.739   0.085  11.168 -0.5276 -1.8752  0.6002
 3995TIP3    H236181   6.798   0.114  11.305  0.7321  0.9391 -0.4531
 3996TIP3   OH236182   4.879   0.733  12.044  0.4068 -0.0966  0.1106
 3996TIP3    H136183   4.806   0.736  12.107 -0.4764  0.7315 -0.9088
 3996TIP3    H236184   4.957   0.738  12.099 -0.2882 -1.0389  1.2417
 3997TIP3   OH236185   6.606   3.534  12.272 -0.1251  0.1963 -0.3502
 3997TIP3    H136186   6.517   3.518  12.302  0.5751 -0.3932  1.5959
 3997TIP3    H236187   6.626   3.623  12.300  0.0240  0.1925 -0.4387
 3998TIP3   OH236188   1.417   3.558  10.825  0.3419  0.1729  0.6642
 3998TIP3    H136189   1.505   3.587  10.848  1.0965 -0.6055 -1.0151
 3998TIP3    H236190   1.430   3.471  10.786 -1.3622 -0.6463  1.8046
 3999TIP3   OH236191   4.542   4.187  12.317  0.4049 -0.2830 -0.3729
 3999TIP3    H136192   4.478   4.214  12.252  0.3197 -0.7778 -0.5007
 3999TIP3    H236193   4.506   4.106  12.353 -0.1074  0.5498  1.0799
 4000TIP3   OH236194   1.540   4.787  12.840  0.3800  0.8281 -0.1174
 4000TIP3    H136195   1.460   4.816  12.797  0.3792 -0.7764 -1.2717
 4000TIP3    H236196   1.610   4.831  12.792  0.2768  0.8347 -0.2604
 4001TIP3   OH236197   4.917   0.189  10.770 -0.1073 -0.2656 -0.3409
 4001TIP3    H136198   4.910   0.256  10.838  1.4529 -1.3767  0.9769
 4001TIP3    H236199   4.933   0.238  10.689 -2.3876  1.1061 -0.0469
 4002TIP3   OH236200   4.604   6.357  11.041 -0.0341 -0.3398  0.2162
 4002TIP3    H136201   4.674   6.317  10.989  0.5020  0.0723  0.6010
 4002TIP3    H236202   4.620   6.451  11.034 -0.1278 -0.2657  0.8724
 4003TIP3   OH236203   5.577   4.568  12.732  0.2539  0.3555  0.1556
 4003TIP3    H136204   5.538   4.599  12.651  0.7029  0.7150  0.0721
 4003TIP3    H236205   5.587   4.647  12.786  2.0451  0.5025 -0.3213
 4004TIP3   OH236206   4.835   2.879   9.350  0.2936  0.5271 -0.6284
 4004TIP3    H136207   4.891   2.956   9.336 -0.1752  1.0384  0.2071
 4004TIP3    H236208   4.834   2.867   9.445 -0.1825 -0.1099 -0.7061
 4005TIP3   OH236209   2.097   5.337  11.248 -0.1754 -0.2847  0.1345
 4005TIP3    H136210   2.148   5.298  11.177 -0.7589 -0.1276 -0.3727
 4005TIP3    H236211   2.157   5.337  11.323  1.8033  2.9085 -1.2200
 4006TIP3   OH236212   5.460   5.929  10.729  0.2564  0.1215 -0.5901
 4006TIP3    H136213   5.467   5.907  10.637  0.4412 -1.9906 -0.1177
 4006TIP3    H236214   5.540   5.895  10.768  0.4784  1.5473  0.2792
 4007TIP3   OH236215   1.803   6.217  12.970 -0.1057  0.4009 -0.2824
 4007TIP3    H136216   1.871   6.171  12.922 -0.4001 -0.2307 -0.1039
 4007TIP3    H236217   1.772   6.284  12.910  0.0107  0.0690 -0.7150
 4008TIP3   OH236218   4.831   1.962  12.344 -0.1127  0.3441 -0.5220
 4008TIP3    H136219   4.762   2.028  12.338 -0.5096  0.4426  2.9337
 4008TIP3    H236220   4.913   2.012  12.343 -0.2369  0.5485 -1.0514
 4009TIP3   OH236221   1.238   2.052  11.369 -0.3450 -0.2562 -0.1292
 4009TIP3    H136222   1.289   1.986  11.323 -1.5548 -0.4899 -1.1732
 4009TIP3    H236223   1.290   2.132  11.361 -0.9195 -0.0548 -2.7638
 4010TIP3   OH236224   0.523   5.504  12.150  0.4735  0.7130  0.4190
 4010TIP3    H136225   0.468   5.438  12.107  2.1162  0.2265 -1.0574
 4010TIP3    H236226   0.613   5.475  12.132  1.2259  1.8816  2.1140
 4011TIP3   OH236227   4.819   3.667  11.209 -0.6939 -0.1108 -0.0409
 4011TIP3    H136228   4.744   3.641  11.263  0.1535 -0.7110  0.8786
 4011TIP3    H236229   4.895   3.645  11.262  0.1351  1.4221 -0.5302
 4012TIP3   OH236230   2.553   2.438  12.035  0.0185 -0.0074  0.3586
 4012TIP3    H136231   2.605   2.518  12.047  0.4622 -0.4506  1.5451
 4012TIP3    H236232   2.618   2.367  12.038 -0.3807 -0.4172 -0.6138
 4013TIP3   OH236233   2.418   5.394  11.802 -0.2829 -0.5026  0.0734
 4013TIP3    H136234   2.470   5.371  11.725 -0.2760  0.4088 -0.2155
 4013TIP3    H236235   2.482   5.406  11.872  0.1394  2.0940 -0.6302
 4014TIP3   OH236236   3.037   5.632  10.514 -0.3574 -0.7227  0.2596
 4014TIP3    H136237   2.964   5.609  10.455 -0.3115 -0.0866 -0.0587
 4014TIP3    H236238   3.113   5.636  10.456 -0.6163  1.6615  0.0066
 4015TIP3   OH236239   2.593   2.079  12.988  0.1817 -0.2059  0.6744
 4015TIP3    H136240   2.585   2.150  13.052 -0.7608  1.1095 -0.8043
 4015TIP3    H236241   2.614   2.001  13.040 -0.9729  0.7002  2.6168
 4016TIP3   OH236242   4.130   6.023  11.942 -0.1895  0.3900 -0.1183
 4016TIP3    H136243   4.056   6.082  11.954  1.2018  2.3474 -0.6366
 4016TIP3    H236244   4.091   5.936  11.935 -2.3942  1.3233 -0.0988
 4017TIP3   OH236245   0.770   4.751  11.597  0.5216  0.1658 -0.4745
 4017TIP3    H136246   0.748   4.735  11.689  0.2214  0.6814 -0.4527
 4017TIP3    H236247   0.713   4.690  11.549  1.1085 -0.5339 -0.3032
 4018TIP3   OH236248   0.962   3.268  11.789  0.3723 -0.1052 -0.6051
 4018TIP3    H136249   1.020   3.318  11.847  1.6764 -0.7551 -1.2903
 4018TIP3    H236250   0.942   3.328  11.718  0.8576 -0.1181 -0.7580
 4019TIP3   OH236251   1.231   4.542  13.081  0.0236 -0.0268 -0.3350
 4019TIP3    H136252   1.301   4.488  13.118  1.2012  1.6322 -0.0213
 4019TIP3    H236253   1.258   4.632  13.099 -2.9462  0.6904  1.2100
 4020TIP3   OH236254   1.848   0.498  12.192 -0.4372  0.0711  0.2702
 4020TIP3    H136255   1.814   0.558  12.126 -0.8410 -2.2627 -1.7564
 4020TIP3    H236256   1.941   0.519  12.198 -0.5814  0.9328 -0.3292
 4021TIP3   OH236257   5.407   2.544  10.327  0.2964 -0.2944 -0.6807
 4021TIP3    H136258   5.454   2.497  10.259  3.1092 -2.1351  2.2306
 4021TIP3    H236259   5.469   2.612  10.356 -0.2814 -0.3827  0.8520
 4022TIP3   OH236260   5.688   2.970  11.597  0.1877  0.5354  0.3819
 4022TIP3    H136261   5.771   3.001  11.563 -0.2182  0.6873 -0.5113
 4022TIP3    H236262   5.623   3.001  11.534 -0.4906 -0.0096  0.7915
 4023TIP3   OH236263   1.177   3.782  10.422  0.1204 -0.0942 -0.5113
 4023TIP3    H136264   1.129   3.772  10.340 -2.2954  0.5181  0.7186
 4023TIP3    H236265   1.115   3.827  10.480  1.1944 -1.7175  2.0767
 4024TIP3   OH236266   0.962   1.830  11.237 -0.3111 -0.1023  0.2758
 4024TIP3    H136267   0.958   1.908  11.292  0.5163 -0.0746  0.3117
 4024TIP3    H236268   0.870   1.810  11.217 -0.5112  1.2027 -0.2010
 4025TIP3   OH236269   5.766   1.297   9.804 -0.3310  0.1068  0.2440
 4025TIP3    H136270   5.808   1.280   9.720 -1.4443 -0.5583 -0.2044
 4025TIP3    H236271   5.810   1.374   9.838  2.9726 -1.9298  0.9781
 4026TIP3   OH236272   5.939   1.784  10.386  0.0413 -0.1385 -0.0450
 4026TIP3    H136273   6.002   1.826  10.327 -0.6818  0.4948 -0.3887
 4026TIP3    H236274   5.957   1.822  10.472  0.1251  0.0529 -0.1462
 4027TIP3   OH236275   2.196   4.047  10.445 -0.3475  0.4066 -0.7767
 4027TIP3    H136276   2.173   3.957  10.466 -2.7687  1.2237  0.5016
 4027TIP3    H236277   2.151   4.065  10.362  0.1651  0.4511 -1.0517
 4028TIP3   OH236278   1.263   4.021  11.565 -0.1266 -0.1542 -0.1908
 4028TIP3    H136279   1.195   4.081  11.534  0.5771  0.5395 -0.4187
 4028TIP3    H236280   1.344   4.071  11.558  0.4326 -1.0255 -0.0732
 4029TIP3   OH236281   4.714   6.725  11.529  0.3351  0.0461 -0.5383
 4029TIP3    H136282   4.701   6.708  11.622  0.1547  0.5647 -0.4658
 4029TIP3    H236283   4.804   6.699  11.512  0.3171 -0.1974 -0.2511
 4030TIP3   OH236284   4.581   1.844  10.336  0.0280  0.4293  0.1844
 4030TIP3    H136285   4.604   1.936  10.327 -0.8227  0.4757 -1.9535
 4030TIP3    H236286   4.612   1.803  10.256 -1.7077 -0.6737  0.0195
 4031TIP3   OH236287   5.605   4.381  10.079  0.6190  0.1110  0.1684
 4031TIP3    H136288   5.668   4.310  10.089  0.6652  0.2755  1.1918
 4031TIP3    H236289   5.605   4.401   9.985  0.9363 -0.9256 -0.0624
 4032TIP3   OH236290   6.170   6.333  11.072  0.6644 -0.1247  0.4390
 4032TIP3    H136291   6.188   6.399  11.139  1.0518 -0.1544  0.3672
 4032TIP3    H236292   6.211   6.368  10.993 -1.6783  1.0170 -0.3806
 4033TIP3   OH236293   3.000   4.290  11.333 -0.4176 -0.2052  0.4585
 4033TIP3    H136294   2.954   4.374  11.337 -0.1492  0.2224 -2.9153
 4033TIP3    H236295   3.083   4.310  11.290  0.5946 -1.8890  1.5176
 4034TIP3   OH236296   2.059   6.438  12.644  0.0784  0.1173 -0.2265
 4034TIP3    H136297   2.026   6.468  12.559  2.8156  0.0176 -1.4429
 4034TIP3    H236298   2.105   6.357  12.624 -0.9426 -1.0157  1.7714
 4035TIP3   OH236299   5.079   5.688  10.923 -0.0019  0.7011  0.0326
 4035TIP3    H136300   5.171   5.704  10.902  0.8987 -0.3727  2.7178
 4035TIP3    H236301   5.075   5.693  11.018 -2.8054  0.9419 -0.0259
 4036TIP3   OH236302   6.682   4.025  12.526  0.3858  0.7469  0.5097
 4036TIP3    H136303   6.726   4.052  12.445 -0.2801  0.0442 -0.0924
 4036TIP3    H236304   6.612   4.089  12.538  0.1703  0.5572  0.2593
 4037TIP3   OH236305   3.523   1.267  12.938 -0.6551  0.0650 -0.5044
 4037TIP3    H136306   3.440   1.253  12.891 -2.1865  0.3307  1.9226
 4037TIP3    H236307   3.545   1.359  12.922 -1.4321  0.2928 -0.3056
 4038TIP3   OH236308   4.793   4.416  12.363  0.2990  0.6241 -0.0510
 4038TIP3    H136309   4.784   4.510  12.348 -1.2697  0.5753  0.3605
 4038TIP3    H236310   4.795   4.408  12.459  0.6279  0.2513 -0.0884
 4039TIP3   OH236311   1.023   6.801  11.335 -0.5333  0.1651  0.7093
 4039TIP3    H136312   1.069   6.717  11.334 -1.7068 -0.4921 -0.0034
 4039TIP3    H236313   1.013   6.824  11.242  0.1077  1.2976  0.8945
 4040TIP3   OH236314   5.263   3.384  11.895 -0.4662 -0.1164  0.1042
 4040TIP3    H136315   5.243   3.476  11.914 -2.1191 -0.4270 -0.0322
 4040TIP3    H236316   5.325   3.358  11.963  0.8763  1.3891 -0.4883
 4041TIP3   OH236317   0.032   3.338  10.868  0.4374 -0.1660  0.3652
 4041TIP3    H136318   0.097   3.273  10.841  0.5641 -0.7047  1.8699
 4041TIP3    H236319  -0.052   3.298  10.844  0.5957  0.1216 -0.7352
 4042TIP3   OH236320   0.714   6.823  12.397 -0.3575 -0.5184 -0.3988
 4042TIP3    H136321   0.788   6.793  12.450 -0.2827 -0.2302 -0.3415
 4042TIP3    H236322   0.637   6.810  12.453 -0.3256 -0.6065 -0.3744
 4043TIP3   OH236323   1.097   1.152  12.088  0.1318  0.4964 -0.0025
 4043TIP3    H136324   1.119   1.109  12.005  0.5996  0.2733  0.2339
 4043TIP3    H236325   1.004   1.174  12.080 -0.1004 -0.5113 -0.1461
 4044TIP3   OH236326   3.964   0.291  10.990 -0.6399  0.0980  0.1878
 4044TIP3    H136327   4.008   0.350  10.929 -1.3276  0.6428  0.2102
 4044TIP3    H236328   3.892   0.343  11.025 -0.3515 -0.2672  1.3389
 4045TIP3   OH236329   6.789   1.393  13.005 -0.4504 -0.1590  0.5821
 4045TIP3    H136330   6.822   1.447  13.077 -0.7453  0.7142  0.0768
 4045TIP3    H236331   6.785   1.453  12.930 -2.1961 -0.4931  0.3655
 4046TIP3   OH236332   6.234   5.389  11.824 -0.6252 -0.1300 -0.1617
 4046TIP3    H136333   6.231   5.436  11.741 -0.4058  1.0321  0.4673
 4046TIP3    H236334   6.320   5.410  11.861 -1.5815  1.3156  1.4162
 4047TIP3   OH236335   5.017   4.445  11.642 -0.0003  0.1088 -0.2167
 4047TIP3    H136336   5.044   4.366  11.688  0.1482 -0.0031 -0.4933
 4047TIP3    H236337   4.923   4.435  11.629 -0.1089  0.3131  0.3907
 4048TIP3   OH236338   4.494   6.580  11.932  0.4272  0.5306 -0.2245
 4048TIP3    H136339   4.534   6.500  11.968  1.7293  0.8897 -0.7960
 4048TIP3    H236340   4.415   6.593  11.985  0.9817 -0.3034  0.8683
 4049TIP3   OH236341   6.451   6.134  12.036 -1.0253  0.1740  0.2350
 4049TIP3    H136342   6.363   6.134  12.000 -0.0921 -0.3560 -2.2356
 4049TIP3    H236343   6.475   6.042  12.042 -0.5713  0.3153  0.7495
 4050TIP3   OH236344   2.872   4.293  10.829  0.5883  0.0472  0.7279
 4050TIP3    H136345   2.812   4.258  10.763 -0.6030  1.4837  0.9890
 4050TIP3    H236346   2.947   4.235  10.826  0.0254 -0.6634 -1.0129
 4051TIP3   OH236347   2.287   0.871  11.755 -0.1826  0.1120  0.0644
 4051TIP3    H136348   2.220   0.932  11.725  0.1730  1.2107  1.4341
 4051TIP3    H236349   2.369   0.908  11.723 -0.1824 -1.5894 -2.2098
 4052TIP3   OH236350   3.857   2.915   9.983  0.1986 -0.1016 -0.0963
 4052TIP3    H136351   3.816   2.993   9.946  0.1667 -0.0376  0.0747
 4052TIP3    H236352   3.784   2.863  10.016  0.2953  0.2989  0.7671
 4053TIP3   OH236353   6.627   2.242  10.031  0.3173  0.1866 -0.3218
 4053TIP3    H136354   6.618   2.290   9.949 -0.0368  0.5216 -0.0892
 4053TIP3    H236355   6.712   2.197  10.024  0.6038  0.7655 -0.5828
 4054TIP3   OH236356   0.650   3.440  11.666  0.3660 -0.4359  0.2861
 4054TIP3    H136357   0.669   3.392  11.747 -1.4634  0.2247  1.1663
 4054TIP3    H236358   0.661   3.532  11.690 -2.4861 -0.0740  0.5347
 4055TIP3   OH236359   2.508   3.790  12.229  0.0457  0.0113  0.2771
 4055TIP3    H136360   2.592   3.746  12.236 -0.0792 -1.0028 -2.8479
 4055TIP3    H236361   2.470   3.785  12.316  2.0591 -1.8904  1.1286
 4056TIP3   OH236362   3.367   3.753  11.678  0.0227 -0.5619  0.0106
 4056TIP3    H136363   3.451   3.711  11.657 -0.8765 -2.6923  0.3382
 4056TIP3    H236364   3.302   3.690  11.646 -1.4794  1.3866 -0.9222
 4057TIP3   OH236365   1.942   4.459  10.339  0.4448  0.3207  0.7648
 4057TIP3    H136366   1.865   4.490  10.291  0.3292  0.3719  0.9795
 4057TIP3    H236367   2.012   4.517  10.313  1.0623 -1.2794 -1.4395
 4058TIP3   OH236368   3.974   0.485  12.727  0.0849  0.5846 -0.3852
 4058TIP3    H136369   3.947   0.547  12.794  4.1883  2.0572  0.2044
 4058TIP3    H236370   3.930   0.514  12.647 -0.9604  1.9205  0.6511
 4059TIP3   OH236371   1.663   2.971  13.039  1.4779 -0.1703 -0.0683
 4059TIP3    H136372   1.633   2.893  13.086  1.8353 -0.7276 -0.7542
 4059TIP3    H236373   1.714   2.937  12.966  2.7741  0.7308  0.3869
 4060TIP3   OH236374   2.116   1.147  12.225  0.9673  0.6423 -0.0489
 4060TIP3    H136375   2.084   1.146  12.315  1.1018  1.5576  0.0245
 4060TIP3    H236376   2.111   1.056  12.196 -1.3704  0.6905  0.0548
 4061TIP3   OH236377   0.526   3.248   9.164  0.3152 -0.0509  0.5380
 4061TIP3    H136378   0.559   3.170   9.208  1.1867  0.5706  1.0144
 4061TIP3    H236379   0.604   3.290   9.127 -0.1582  0.4990  0.1455
 4062TIP3   OH236380   6.058   0.509  11.209  0.1551 -0.7385  0.1913
 4062TIP3    H136381   6.012   0.539  11.131  1.2710 -0.2057 -0.2825
 4062TIP3    H236382   6.017   0.425  11.230  0.9245 -1.7150 -1.9584
 4063TIP3   OH236383   5.400   1.856  12.545  0.1296  0.4583 -0.2911
 4063TIP3    H136384   5.432   1.834  12.458 -1.3307 -0.8430 -0.5247
 4063TIP3    H236385   5.308   1.880  12.532 -0.2825 -0.3386  0.9507
 4064TIP3   OH236386   0.003   2.435  11.525  0.4475  0.4060 -0.1980
 4064TIP3    H136387   0.040   2.398  11.606  0.1120  1.6791  0.5736
 4064TIP3    H236388  -0.031   2.359  11.478  1.1060 -0.4279  0.6133
 4065TIP3   OH236389   4.504   4.445  12.763 -0.4049 -0.1107  0.0181
 4065TIP3    H136390   4.468   4.414  12.846  1.1228 -2.4140 -0.0711
 4065TIP3    H236391   4.581   4.390  12.749  0.0258  0.9785 -2.3930
 4066TIP3   OH236392   5.835   1.239  12.916  0.2134  0.5723  0.1819
 4066TIP3    H136393   5.829   1.184  12.837  0.8868 -0.6704  0.9589
 4066TIP3    H236394   5.756   1.218  12.966  1.7054 -1.8102  1.7400
 4067TIP3   OH236395   1.567   4.555  11.634  0.0785  0.2400  0.4024
 4067TIP3    H136396   1.539   4.495  11.565  0.0760  1.5548 -0.7844
 4067TIP3    H236397   1.503   4.544  11.703 -1.7263  1.0803 -1.0544
 4068TIP3   OH236398   4.273   0.339  13.299  0.1278  0.7586 -0.1239
 4068TIP3    H136399   4.205   0.406  13.287  0.6639  1.2861 -0.2830
 4068TIP3    H236400   4.268   0.285  13.220 -0.8417  0.1101  0.3641
 4069TIP3   OH236401   6.372   3.812  10.876  0.3295  0.0313  0.3421
 4069TIP3    H136402   6.339   3.722  10.875 -1.1293  0.4176  3.4632
 4069TIP3    H236403   6.466   3.803  10.886  0.4401 -1.0794 -1.2085
 4070TIP3   OH236404   0.598   3.010   9.267 -0.0613 -0.6391 -0.2181
 4070TIP3    H136405   0.689   3.022   9.293 -0.2222  0.4828 -0.1429
 4070TIP3    H236406   0.599   2.930   9.214  0.7396 -1.3491  0.8181
 4071TIP3   OH236407   6.561   5.538  12.926 -0.6275 -0.5352  0.0735
 4071TIP3    H136408   6.527   5.454  12.898 -0.7126 -0.2779 -0.6027
 4071TIP3    H236409   6.653   5.521  12.948 -0.3718 -0.6017 -1.0165
 4072TIP3   OH236410   0.869   1.267  12.303 -0.9127 -0.1223 -1.2811
 4072TIP3    H136411   0.959   1.234  12.297 -1.1030 -1.0333  0.1995
 4072TIP3    H236412   0.862   1.300  12.393 -2.9118 -2.9242 -0.2604
 4073TIP3   OH236413   5.330   0.458   9.747  0.0429  0.2927 -0.1290
 4073TIP3    H136414   5.293   0.543   9.721  1.2607  0.7539 -0.4091
 4073TIP3    H236415   5.377   0.427   9.670  0.7223 -0.0022  0.3872
 4074TIP3   OH236416   4.948   5.520  12.370  0.0657  0.5482 -0.4040
 4074TIP3    H136417   4.929   5.438  12.414  1.1100  0.3143 -0.3531
 4074TIP3    H236418   5.019   5.559  12.421  1.1583  0.3664 -1.7277
 4075TIP3   OH236419   5.912   6.132  11.462  0.1735  0.4635  0.0816
 4075TIP3    H136420   5.964   6.181  11.526 -0.7639  0.4327  0.8887
 4075TIP3    H236421   5.905   6.191  11.387  0.2888  0.9902  0.4744
 4076TIP3   OH236422   3.914   0.876  11.239 -0.4801 -0.0254 -0.0757
 4076TIP3    H136423   3.938   0.966  11.215 -2.7493  0.5123 -0.6155
 4076TIP3    H236424   3.934   0.825  11.161  0.8976 -0.0349  0.2594
 4077TIP3   OH236425   3.371   6.077  10.347 -0.4315  0.4195 -0.1132
 4077TIP3    H136426   3.278   6.066  10.370 -0.6122  0.9121 -0.5690
 4077TIP3    H236427   3.385   6.017  10.275 -1.0551  2.0708 -1.6787
 4078TIP3   OH236428   0.804   0.193  12.289  0.2585 -0.6903 -0.3666
 4078TIP3    H136429   0.755   0.130  12.341 -0.1330 -0.0719  0.0298
 4078TIP3    H236430   0.827   0.263  12.350  1.7985 -1.0338 -0.5029
 4079TIP3   OH236431   0.224   6.395  10.266 -0.1371 -0.9013 -0.1229
 4079TIP3    H136432   0.145   6.363  10.223  0.0804  0.0369 -1.2801
 4079TIP3    H236433   0.279   6.428  10.195  0.9659 -0.8192  0.7264
 4080TIP3   OH236434   4.694   6.431  10.497  0.5213 -0.2701  0.1761
 4080TIP3    H136435   4.735   6.511  10.531  1.8864 -0.8988  0.0538
 4080TIP3    H236436   4.765   6.367  10.492 -0.0699 -0.8441 -1.8305
 4081TIP3   OH236437   6.336   5.398  11.329  0.3174 -0.2900 -0.3669
 4081TIP3    H136438   6.304   5.448  11.405  2.4159 -0.3112  0.5838
 4081TIP3    H236439   6.376   5.464  11.272 -2.7291  0.0023 -2.4204
 4082TIP3   OH236440   4.102   2.683  11.486  0.1207 -0.3864  0.8506
 4082TIP3    H136441   4.180   2.663  11.537  1.4125  1.4082 -0.3078
 4082TIP3    H236442   4.101   2.778  11.480  0.6614 -0.4632 -3.2722
 4083TIP3   OH236443   0.144   0.291  11.852  0.0967 -0.3995 -0.3549
 4083TIP3    H136444   0.223   0.318  11.807 -0.5816  0.0640 -1.3060
 4083TIP3    H236445   0.102   0.373  11.878 -0.8508 -0.5815 -1.2573
 4084TIP3   OH236446   4.962   1.866   9.926  0.3704  0.2436  0.1081
 4084TIP3    H136447   5.025   1.796   9.942 -0.5587 -0.8930 -1.0455
 4084TIP3    H236448   5.009   1.946   9.952  1.8481 -0.6754  0.4018
 4085TIP3   OH236449   4.279   1.678  11.119  0.7110 -0.5628  0.6409
 4085TIP3    H136450   4.237   1.612  11.176 -1.8595  1.2345  1.0123
 4085TIP3    H236451   4.240   1.663  11.033  2.1293 -1.1738  0.0816
 4086TIP3   OH236452   3.970   6.395  10.554  0.0056 -0.0803  0.2936
 4086TIP3    H136453   4.031   6.460  10.519 -0.6036  0.0619 -0.5488
 4086TIP3    H236454   4.007   6.370  10.639  1.4408 -0.2862 -0.3556
 4087TIP3   OH236455   6.695   5.148   9.536  0.2220 -0.1743  0.3992
 4087TIP3    H136456   6.639   5.200   9.594  0.5970  0.8314 -0.1225
 4087TIP3    H236457   6.727   5.210   9.471 -1.9293 -1.6218 -2.2886
 4088TIP3   OH236458   4.533   1.568  12.416  0.1040  0.1659  0.3698
 4088TIP3    H136459   4.579   1.624  12.354 -0.2727 -2.6618 -2.7648
 4088TIP3    H236460   4.456   1.619  12.442  2.3876  3.0680  1.9649
 4089TIP3   OH236461   3.711   0.943   9.725 -0.5668  0.2072 -0.1755
 4089TIP3    H136462   3.668   0.870   9.769 -1.2231 -0.0541 -1.1958
 4089TIP3    H236463   3.705   0.921   9.632  1.4729  0.3464 -0.3816
 4090TIP3   OH236464   4.009   6.227  10.794 -0.5772  0.6243 -0.3364
 4090TIP3    H136465   4.101   6.255  10.794 -0.1739 -0.6601 -0.6324
 4090TIP3    H236466   4.013   6.132  10.797 -1.8933  0.5143 -1.4034
 4091TIP3   OH236467   4.349   0.538   9.980 -0.0545 -0.3438  0.5942
 4091TIP3    H136468   4.362   0.611   9.920  0.5158 -1.0339 -0.1500
 4091TIP3    H236469   4.317   0.578  10.060 -0.3801  0.6536 -0.0118
 4092TIP3   OH236470   3.965   5.848  11.104 -0.0779 -0.1361 -0.7693
 4092TIP3    H136471   4.007   5.907  11.167 -0.5117 -0.2146 -0.3950
 4092TIP3    H236472   3.906   5.795  11.158 -0.6440 -0.0349 -1.2813
 4093TIP3   OH236473   6.524   4.203  11.348  0.5235 -0.2438 -0.1078
 4093TIP3    H136474   6.575   4.170  11.274  2.2699  0.7452  0.6019
 4093TIP3    H236475   6.551   4.148  11.422 -0.5592 -0.6543  0.0048
 4094TIP3   OH236476   3.826   0.223  11.336  0.0472  0.0651  0.2252
 4094TIP3    H136477   3.807   0.300  11.390 -2.2456 -1.4229  1.7283
 4094TIP3    H236478   3.922   0.216  11.337  0.2774  2.4822  0.5918
 4095TIP3   OH236479   2.819   1.320  11.703  0.2054  0.0468  0.5443
 4095TIP3    H136480   2.849   1.230  11.706 -0.6457 -0.2390  0.6541
 4095TIP3    H236481   2.873   1.361  11.635  0.7092 -0.4947  0.6089
 4096TIP3   OH236482   4.874   3.611  10.055 -0.2279  0.0449 -0.0740
 4096TIP3    H136483   4.851   3.681  10.116  0.3059  1.3110 -1.2637
 4096TIP3    H236484   4.948   3.646  10.006  3.7577 -3.4303  2.8487
 4097TIP3   OH236485   4.932   4.157  10.339 -0.1630 -1.0186  0.4527
 4097TIP3    H136486   4.960   4.201  10.259 -2.3018  0.2603  0.3400
 4097TIP3    H236487   4.901   4.071  10.310 -1.5542 -0.3099 -0.2403
 4098TIP3   OH236488   5.523   3.152  11.456  0.0350 -0.1658  0.4398
 4098TIP3    H136489   5.480   3.104  11.385 -2.2159  2.2801 -0.0273
 4098TIP3    H236490   5.581   3.214  11.411 -1.5165  1.5010  0.6239
 4099TIP3   OH236491   2.675   3.279  12.371 -0.0738  0.6948  0.3953
 4099TIP3    H136492   2.655   3.188  12.393  0.5053  0.2521 -0.8667
 4099TIP3    H236493   2.660   3.286  12.277  2.3157  1.2275 -0.0084
 4100TIP3   OH236494   2.791   1.105  11.256  0.2389  0.2131 -0.3196
 4100TIP3    H136495   2.870   1.107  11.202  0.2001  0.5560 -0.3620
 4100TIP3    H236496   2.820   1.063  11.337  0.4937  0.4354 -0.2926
 4101TIP3   OH236497   6.388   0.516  13.068 -0.8405  0.6597 -0.6626
 4101TIP3    H136498   6.371   0.606  13.041  1.2190  1.1166 -0.6068
 4101TIP3    H236499   6.472   0.520  13.114 -1.8249 -0.9179  1.4342
 4102TIP3   OH236500   0.580   1.841  11.026  0.2688  0.2878  0.0919
 4102TIP3    H136501   0.610   1.784  11.097  0.3939  0.0101 -0.1811
 4102TIP3    H236502   0.565   1.925  11.067  1.6964  0.5114  0.1908
 4103TIP3   OH236503   5.843   3.708  11.560 -1.0817 -0.3250  0.1445
 4103TIP3    H136504   5.831   3.745  11.472 -1.2103  0.5636  0.5319
 4103TIP3    H236505   5.926   3.661  11.554 -0.0420  1.4479  0.1026
 4104TIP3   OH236506   2.477   2.001  10.543 -0.1902  0.2108  0.3650
 4104TIP3    H136507   2.439   2.059  10.609  1.4885 -0.1307  1.6967
 4104TIP3    H236508   2.547   1.955  10.589  1.2325  0.1530 -1.7391
 4105TIP3   OH236509   2.801   6.070  12.721  0.0002 -0.1781 -0.1793
 4105TIP3    H136510   2.891   6.044  12.739 -0.2823 -0.4144  1.0026
 4105TIP3    H236511   2.807   6.161  12.691  0.6098 -0.0713  0.2489
 4106TIP3   OH236512   6.573   4.641  11.856 -0.5285  0.6173  0.3357
 4106TIP3    H136513   6.572   4.655  11.761  0.8889  1.7171  0.4491
 4106TIP3    H236514   6.535   4.554  11.868  0.7597 -0.2475 -1.3760
 4107TIP3   OH236515   2.972   4.401  10.064 -0.3046  0.2667 -0.1536
 4107TIP3    H136516   2.953   4.432   9.976 -0.2887  0.4389 -0.0975
 4107TIP3    H236517   2.975   4.306  10.056 -1.1508  0.2346 -0.1693
 4108TIP3   OH236518   3.790   1.978  11.049  0.0132 -0.3240  0.2734
 4108TIP3    H136519   3.764   1.895  11.009 -1.5290  0.3250 -0.1558
 4108TIP3    H236520   3.711   2.008  11.095  1.1755 -0.1072  2.2223
 4109TIP3   OH236521   2.032   2.329  10.331 -0.2376  0.5246 -0.1856
 4109TIP3    H136522   2.047   2.252  10.275  0.0682  0.2067  0.3237
 4109TIP3    H236523   2.075   2.307  10.414  1.8879  2.1833 -0.7522
 4110TIP3   OH236524   1.214   3.169  10.877 -0.0427  0.6530  0.1640
 4110TIP3    H136525   1.246   3.249  10.918  3.1484 -1.2068  1.7281
 4110TIP3    H236526   1.260   3.165  10.794  0.9798 -0.2037  0.7446
 4111TIP3   OH236527   1.108   2.040  12.488  0.4963  0.4289 -0.3925
 4111TIP3    H136528   1.174   1.999  12.433  0.6607  0.2562 -0.0661
 4111TIP3    H236529   1.052   2.088  12.427  1.1163  0.8485 -0.6373
 4112TIP3   OH236530   3.670   6.782  11.284  0.3286 -0.4113 -0.1658
 4112TIP3    H136531   3.715   6.698  11.283  1.2910  0.0748 -1.5850
 4112TIP3    H236532   3.616   6.780  11.363  1.1323 -1.9271  0.3800
 4113TIP3   OH236533   5.183   1.043  12.152 -0.2346 -0.5767 -0.4476
 4113TIP3    H136534   5.218   0.960  12.183  1.3639  0.5306  0.8746
 4113TIP3    H236535   5.123   1.072  12.221 -0.9080 -0.6757 -0.9753
 4114TIP3   OH236536   5.905   1.401  11.574 -0.4310 -0.2855  0.0748
 4114TIP3    H136537   5.811   1.383  11.577 -1.0768  2.4737 -0.4389
 4114TIP3    H236538   5.930   1.383  11.483 -0.6505 -0.2381  0.0041
 4115TIP3   OH236539   4.195   3.620  13.007  0.0815 -1.0679  0.2526
 4115TIP3    H136540   4.162   3.682  12.942  1.6733 -0.8487 -0.3723
 4115TIP3    H236541   4.116   3.585  13.048 -0.8849  0.4300 -0.2528
 4116TIP3   OH236542   4.369   1.168  11.384 -0.0682  0.3346 -0.0703
 4116TIP3    H136543   4.349   1.251  11.427  1.8471  1.8336 -1.8624
 4116TIP3    H236544   4.465   1.168  11.374 -0.0061 -2.1064 -0.1341
 4117TIP3   OH236545   2.694   6.350  12.576  0.4352 -0.0314 -0.1694
 4117TIP3    H136546   2.611   6.387  12.607  0.6103 -1.9653  3.0897
 4117TIP3    H236547   2.668   6.273  12.524  0.2039  1.1644 -1.9005
 4118TIP3   OH236548   1.884   1.740  10.307  0.0425 -0.2449 -0.5843
 4118TIP3    H136549   1.867   1.792  10.228  0.9680  1.1303  0.0811
 4118TIP3    H236550   1.877   1.649  10.278  0.5671  0.2255 -2.2975
 4119TIP3   OH236551   5.001   6.419  12.585  0.1496  0.0877  0.0561
 4119TIP3    H136552   4.959   6.359  12.647  0.7966 -2.9971 -2.2460
 4119TIP3    H236553   4.930   6.450  12.530 -0.0663  0.8435  0.7360
 4120TIP3   OH236554   4.230   3.232  12.674 -0.0023 -0.6027  0.7289
 4120TIP3    H136555   4.227   3.319  12.716  1.1203 -0.2398  0.0765
 4120TIP3    H236556   4.217   3.171  12.746 -1.9895  0.1114  1.0498
 4121TIP3   OH236557   3.219   0.547  10.567 -0.3202 -0.2560 -0.2516
 4121TIP3    H136558   3.187   0.628  10.527  1.9259  0.3690 -0.9385
 4121TIP3    H236559   3.246   0.493  10.493  1.4783 -0.1444  0.2642
 4122TIP3   OH236560   3.897   2.122  11.518 -1.2474 -0.4181  0.4938
 4122TIP3    H136561   3.918   2.185  11.586  1.1333 -0.1408 -0.3834
 4122TIP3    H236562   3.915   2.037  11.558 -1.2523 -0.3376  0.6668
 4123TIP3   OH236563   1.456   2.323  11.937  0.2487  0.6010 -0.3164
 4123TIP3    H136564   1.545   2.306  11.905  0.2954 -1.5653  0.7998
 4123TIP3    H236565   1.437   2.412  11.908  2.6845  1.0346 -0.8043
 4124TIP3   OH236566   6.117   2.590   9.878 -0.0340 -0.6959 -0.3175
 4124TIP3    H136567   6.154   2.576   9.791  1.0465  1.1667 -0.1994
 4124TIP3    H236568   6.024   2.610   9.862  0.4415  0.9680 -1.1997
 4125TIP3   OH236569   1.589   6.536  10.354 -0.4504  0.1349  0.3427
 4125TIP3    H136570   1.662   6.506  10.301 -0.3845  1.2693 -0.2503
 4125TIP3    H236571   1.511   6.503  10.309 -0.3552  0.2167  0.1182
 4126TIP3   OH236572   4.710   3.885  11.800  0.2488 -0.5574  0.0593
 4126TIP3    H136573   4.695   3.934  11.880  1.5624 -0.1879  0.1048
 4126TIP3    H236574   4.692   3.947  11.729  3.0925  0.4802  0.1141
 4127TIP3   OH236575   5.967   1.122  10.409 -0.3304 -0.3518 -0.1902
 4127TIP3    H136576   5.910   1.112  10.486 -0.0855  3.3920  0.6434
 4127TIP3    H236577   6.055   1.104  10.442 -0.5135 -1.7365 -0.3971
 4128TIP3   OH236578   4.490   2.928  11.762 -0.8187  0.5732  0.4358
 4128TIP3    H136579   4.574   2.934  11.717 -0.6450 -1.1086  0.4726
 4128TIP3    H236580   4.481   3.012  11.806  1.9603  0.0069  2.3583
 4129TIP3   OH236581   3.862   0.624  10.773  0.0507  0.4940  0.5772
 4129TIP3    H136582   3.779   0.590  10.807 -0.5635  0.9883 -0.3865
 4129TIP3    H236583   3.921   0.549  10.775 -0.8688 -0.2748 -0.1499
 4130TIP3   OH236584   0.683   2.945  12.785 -0.3416  0.8183  0.2985
 4130TIP3    H136585   0.764   2.902  12.815 -0.2741 -0.0596 -1.0801
 4130TIP3    H236586   0.667   3.013  12.850  0.5800 -0.0920  1.5200
 4131TIP3   OH236587   6.541   6.050  12.529 -0.0446 -0.0556 -0.2891
 4131TIP3    H136588   6.534   6.145  12.514  1.1078 -0.1092 -1.2894
 4131TIP3    H236589   6.517   6.039  12.621 -2.7107  0.8840 -0.7730
 4132TIP3   OH236590   2.098   5.669  12.560  0.0034 -0.1310 -0.5937
 4132TIP3    H136591   2.169   5.651  12.622 -0.4444  1.6348  0.5154
 4132TIP3    H236592   2.142   5.707  12.484  0.4481 -1.1705 -0.8641
 4133TIP3   OH236593   5.861   6.170  12.359 -0.5913 -0.1176  0.0292
 4133TIP3    H136594   5.791   6.219  12.316 -1.2561 -0.9234  0.1655
 4133TIP3    H236595   5.931   6.167  12.294 -1.2450 -0.5534 -0.6811
 4134TIP3   OH236596   6.285   5.937  12.518 -0.0015 -0.0805 -0.6101
 4134TIP3    H136597   6.245   6.007  12.569 -0.9453 -1.1593  0.2020
 4134TIP3    H236598   6.377   5.963  12.510  0.2801  0.0256  1.9329
 4135TIP3   OH236599   1.381   0.821  11.930  0.3598  0.0240  0.1048
 4135TIP3    H136600   1.335   0.760  11.988 -0.6026  0.2831 -0.3671
 4135TIP3    H236601   1.453   0.856  11.983  0.4699 -0.9545  0.6145
 4136TIP3   OH236602   0.745   5.056  11.645  0.4398  0.5169 -0.1326
 4136TIP3    H136603   0.686   5.100  11.584  1.3147  2.9302  0.6595
 4136TIP3    H236604   0.692   4.984  11.680 -0.3376 -0.5153 -3.0789
 4137TIP3   OH236605   5.297   2.158  11.045 -0.2200  0.5584 -0.1763
 4137TIP3    H136606   5.315   2.065  11.058  0.7593  0.6720 -0.5922
 4137TIP3    H236607   5.317   2.173  10.952  1.1187  1.4837  0.2313
 4138TIP3   OH236608   1.553   3.121  12.288  0.4798  0.4841 -0.5165
 4138TIP3    H136609   1.492   3.047  12.291  0.2766  0.6774  1.1171
 4138TIP3    H236610   1.497   3.198  12.282  0.4717  0.6949  1.4891
 4139TIP3   OH236611   5.302   6.069  12.433  0.2044  0.6105 -0.3991
 4139TIP3    H136612   5.227   6.094  12.487  0.2353  0.4480 -0.2811
 4139TIP3    H236613   5.349   6.150  12.418 -0.6210  0.9217 -1.4286
 4140TIP3   OH236614   0.250   6.196  12.638 -0.1151 -0.2222  0.0579
 4140TIP3    H136615   0.191   6.270  12.619 -0.6303 -0.1958  1.6313
 4140TIP3    H236616   0.193   6.119  12.636  0.5092 -0.6985 -2.0721
 4141TIP3   OH236617   4.314   2.301  10.723 -0.1734  0.3817 -0.2249
 4141TIP3    H136618   4.352   2.388  10.732 -0.5562  0.4787  0.5554
 4141TIP3    H236619   4.388   2.241  10.729  0.0507  0.6404 -0.4080
 4142TIP3   OH236620   6.073   2.577  11.231 -0.0204  0.1712  0.1134
 4142TIP3    H136621   6.041   2.495  11.192  1.1155 -0.9648  1.4607
 4142TIP3    H236622   6.089   2.634  11.156 -2.3799 -0.2035 -0.7833
 4143TIP3   OH236623   0.006   0.745  10.268  0.0273  0.7288 -0.4998
 4143TIP3    H136624  -0.086   0.735  10.293  0.1659  0.8731  0.1115
 4143TIP3    H236625   0.024   0.672  10.210 -0.2127  0.1242  0.1659
 4144TIP3   OH236626   1.302   3.395  10.187 -0.4327  0.1139 -0.4116
 4144TIP3    H136627   1.316   3.464  10.121 -0.4130 -1.8224 -2.5546
 4144TIP3    H236628   1.208   3.395  10.202 -0.4685  0.3978 -0.6164
 4145TIP3   OH236629   2.183   6.050  10.567  0.1425 -0.5364  0.2533
 4145TIP3    H136630   2.207   5.992  10.640 -2.2710 -2.0540 -0.0395
 4145TIP3    H236631   2.126   6.115  10.607  0.7484  0.0881  0.1127
 4146TIP3   OH236632   1.918   1.485  10.149  0.2071  0.0794 -0.1586
 4146TIP3    H136633   1.998   1.523  10.113 -0.2989  0.1647 -1.2137
 4146TIP3    H236634   1.945   1.399  10.181  0.8584  0.3823  0.1328
 4147TIP3   OH236635   0.741   6.584  12.128  0.9288 -0.5992  0.2963
 4147TIP3    H136636   0.743   6.660  12.070  0.1668  0.3018  1.4067
 4147TIP3    H236637   0.822   6.591  12.179 -0.8426  1.7877  3.1477
 4148TIP3   OH236638   1.276   3.038  11.225 -0.1123 -0.7271 -0.2086
 4148TIP3    H136639   1.358   3.008  11.187 -0.9467 -0.1879 -2.6043
 4148TIP3    H236640   1.292   3.129  11.248  0.4165 -1.0736  0.8656
 4149TIP3   OH236641   2.294   1.300  13.161 -0.2034  0.2216  0.2675
 4149TIP3    H136642   2.313   1.214  13.124  1.7286  1.1801 -1.1411
 4149TIP3    H236643   2.226   1.336  13.104  1.2059  0.8191 -1.0918
 4150TIP3   OH236644   2.836   1.091  10.649  0.1752 -0.5317  0.2756
 4150TIP3    H136645   2.869   1.002  10.659  0.0417 -0.4651  1.4490
 4150TIP3    H236646   2.769   1.100  10.716 -1.1847 -0.1604 -1.0814
 4151TIP3   OH236647   6.206   6.723  11.050  0.1294 -0.2375 -0.1398
 4151TIP3    H136648   6.222   6.635  11.084 -1.1824 -0.2427  0.4999
 4151TIP3    H236649   6.258   6.727  10.970  0.3748 -1.5168 -0.0659
 4152TIP3   OH236650   1.734   3.407  10.862  0.7999  0.3301 -0.3373
 4152TIP3    H136651   1.745   3.408  10.767  0.3390  0.1041 -0.3952
 4152TIP3    H236652   1.721   3.499  10.885 -2.8358  0.1322 -0.9701
 4153TIP3   OH236653   2.059   3.386  10.782 -0.3345 -0.3022 -0.1484
 4153TIP3    H136654   2.129   3.421  10.838  0.4234 -2.5207  0.4371
 4153TIP3    H236655   2.097   3.386  10.694  0.6725 -1.9466  0.2363
 4154TIP3   OH236656   4.153   6.375  12.963 -0.5351  0.4245 -0.1318
 4154TIP3    H136657   4.210   6.452  12.956 -0.2565  0.2114 -0.2666
 4154TIP3    H236658   4.120   6.378  13.053  2.5193 -1.3670  1.2418
 4155TIP3   OH236659   5.142   1.967  12.550 -0.3459  0.0596  0.4954
 4155TIP3    H136660   5.100   2.043  12.510 -0.4685 -0.3613 -0.1989
 4155TIP3    H236661   5.186   2.002  12.627  1.4092  1.2707 -0.9427
 4156TIP3   OH236662   6.490   5.725   9.932  0.3944  0.2483  0.3914
 4156TIP3    H136663   6.454   5.718  10.021  2.3039  1.5297  1.3434
 4156TIP3    H236664   6.542   5.646   9.920  1.1535  0.6475  0.9489
 4157TIP3   OH236665   3.036   3.415   9.807 -0.2294  0.0037  0.0982
 4157TIP3    H136666   3.025   3.488   9.746  0.5740  1.4414  1.5797
 4157TIP3    H236667   3.012   3.452   9.892  2.2051 -0.8033  1.2238
 4158TIP3   OH236668   4.540   5.926  10.988  0.2492 -0.6274  0.2558
 4158TIP3    H136669   4.577   5.993  11.045 -1.9565 -0.3984  1.5362
 4158TIP3    H236670   4.582   5.940  10.903  1.2140  1.1423  0.9835
 4159TIP3   OH236671   4.133   2.760  11.084 -0.2492  0.0322 -0.0646
 4159TIP3    H136672   4.194   2.794  11.018 -0.7888  0.9227 -0.1221
 4159TIP3    H236673   4.049   2.756  11.038 -0.3650 -0.5813  0.1978
 4160TIP3   OH236674   2.003   2.080  10.677 -0.1343  0.1468  0.4304
 4160TIP3    H136675   1.930   2.051  10.622  0.0512 -0.1293  0.3283
 4160TIP3    H236676   2.036   2.158  10.632 -0.0517 -0.0151  0.2092
 4161TIP3   OH236677   1.535   4.441  11.157 -0.4078 -0.0117 -0.0262
 4161TIP3    H136678   1.623   4.477  11.158 -1.1000  1.8076 -0.5022
 4161TIP3    H236679   1.499   4.468  11.073 -1.3281 -0.9581  0.0495
 4162TIP3   OH236680   0.339   3.983  12.278 -0.0753 -0.4148 -0.4728
 4162TIP3    H136681   0.326   4.055  12.215 -0.3221 -0.6536 -0.6987
 4162TIP3    H236682   0.346   3.905  12.223  0.0635 -0.5801 -0.2185
 4163TIP3   OH236683   0.858   3.352  12.170 -1.0109  0.1320  0.2106
 4163TIP3    H136684   0.828   3.350  12.079  0.4368 -0.9183 -0.2823
 4163TIP3    H236685   0.908   3.433  12.177 -0.5982 -0.0879 -0.1249
 4164TIP3   OH236686   1.182   1.777  12.033 -0.2924  0.2216  0.1358
 4164TIP3    H136687   1.151   1.868  12.028  0.3095  0.3700 -1.4056
 4164TIP3    H236688   1.262   1.782  12.085 -0.3317  0.5554  0.1688
 4165TIP3   OH236689   1.549   3.286  11.452  0.4946  0.2135  0.1218
 4165TIP3    H136690   1.593   3.237  11.382 -0.7644  0.3336 -0.7826
 4165TIP3    H236691   1.495   3.351  11.406  0.0454  0.6479  1.2258
 4166TIP3   OH236692   5.059   6.717  10.499 -0.5657  0.4234 -0.0288
 4166TIP3    H136693   5.132   6.774  10.478  0.0668  0.1378  1.3128
 4166TIP3    H236694   5.079   6.681  10.585 -0.9690 -1.7725 -0.7638
 4167TIP3   OH236695   3.203   3.535  11.550 -0.1228  0.6035  0.3887
 4167TIP3    H136696   3.262   3.487  11.491 -0.5541 -1.3817  1.4810
 4167TIP3    H236697   3.130   3.560  11.494 -0.2966 -0.8154 -0.0618
 4168TIP3   OH236698   0.092   1.451  11.912  0.2708 -0.4269 -0.0817
 4168TIP3    H136699  -0.004   1.453  11.914  0.2651 -0.4302 -0.3018
 4168TIP3    H236700   0.115   1.512  11.842  0.5118  1.4260  1.5257
 4169TIP3   OH236701   1.060   6.147  10.342 -0.1814  0.0095 -0.0534
 4169TIP3    H136702   1.055   6.098  10.424 -2.7953 -0.7439 -0.5809
 4169TIP3    H236703   1.135   6.110  10.296 -0.0549 -1.1313  1.0211
 4170TIP3   OH236704   6.336   6.266  11.551 -0.5445 -0.3639 -0.3839
 4170TIP3    H136705   6.296   6.340  11.597 -0.0502  0.3877 -1.1414
 4170TIP3    H236706   6.317   6.191  11.607 -0.2722  0.4639  0.8842
 4171TIP3   OH236707   6.595   3.410  11.045 -0.7347 -0.0439  0.1919
 4171TIP3    H136708   6.600   3.362  10.963  5.2695 -2.7835  1.5741
 4171TIP3    H236709   6.619   3.500  11.022 -0.5181 -0.4348 -1.2055
 4172TIP3   OH236710   4.915   5.907  10.957  0.4458  0.1805 -0.2203
 4172TIP3    H136711   4.845   5.903  10.892  0.0978  1.7253  0.0127
 4172TIP3    H236712   4.963   5.825  10.946  0.8786  0.7193 -2.9494
 4173TIP3   OH236713   4.717   3.358  11.761  0.2937 -0.4624  0.3092
 4173TIP3    H136714   4.798   3.317  11.793  1.3612  0.6210 -0.8852
 4173TIP3    H236715   4.713   3.442  11.808  0.5493  0.0317 -0.5219
 4174TIP3   OH236716   3.036   2.939  11.138 -0.6378 -0.0611 -0.7163
 4174TIP3    H136717   2.989   2.856  11.139 -4.3963  1.8515 -1.3859
 4174TIP3    H236718   3.086   2.937  11.056  0.2819 -2.0064 -0.1804
 4175TIP3   OH236719   3.058   3.975  12.766 -0.7533 -0.1318  0.4655
 4175TIP3    H136720   3.100   4.029  12.699  0.3366  1.0180  1.9836
 4175TIP3    H236721   3.098   3.889  12.756  0.0359  0.2567  0.1773
 4176TIP3   OH236722   1.201   6.705  10.748 -0.1890  0.3625 -0.0823
 4176TIP3    H136723   1.197   6.683  10.655  0.9651  1.1823 -0.3495
 4176TIP3    H236724   1.132   6.771  10.759  1.2126  2.0437 -0.9178
 4177TIP3   OH236725   1.041   5.517  12.771 -0.1629 -0.0509  0.5948
 4177TIP3    H136726   0.952   5.509  12.738  0.2491 -0.0692 -0.5598
 4177TIP3    H236727   1.087   5.440  12.738  0.8030  0.9849 -0.6060
 4178TIP3   OH236728   1.729   3.159  11.294 -1.0148  0.3126  0.3315
 4178TIP3    H136729   1.715   3.202  11.209 -0.2607  0.6740  0.3842
 4178TIP3    H236730   1.706   3.068  11.278 -0.3804  0.2680 -0.4164
 4179TIP3   OH236731   5.450   6.575  12.016  0.0907  0.1959 -0.0667
 4179TIP3    H136732   5.390   6.650  12.022 -0.0063  0.2197 -1.0593
 4179TIP3    H236733   5.531   6.613  11.981  0.5677  0.0971  0.9049
 4180TIP3   OH236734   1.707   0.814  11.224 -0.3270  0.3769  0.1496
 4180TIP3    H136735   1.740   0.761  11.151 -1.8384  0.4072 -0.5978
 4180TIP3    H236736   1.663   0.751  11.281 -0.3141  0.5471  0.3491
 4181TIP3   OH236737   2.892   2.999  10.069  0.6571  0.2133 -0.0736
 4181TIP3    H136738   2.891   3.083  10.023  0.2809  0.8286  1.0507
 4181TIP3    H236739   2.936   2.940  10.007  1.6537  1.4093 -0.5629
 4182TIP3   OH236740   6.445   6.362  12.974  0.0656 -0.0962  0.1457
 4182TIP3    H136741   6.462   6.456  12.983  0.0711 -0.1258  0.4548
 4182TIP3    H236742   6.522   6.320  13.014  0.8476 -0.2379 -1.4493
 4183TIP3   OH236743   0.307   5.149  10.412  0.4386  0.2156  0.8111
 4183TIP3    H136744   0.380   5.136  10.351  0.5890  0.3020  0.9724
 4183TIP3    H236745   0.349   5.171  10.495  0.2272  0.3108  0.8927
 4184TIP3   OH236746   6.822   0.941  10.927  0.2381 -0.3892 -0.0086
 4184TIP3    H136747   6.888   0.894  10.977 -0.1980 -0.1491  0.8146
 4184TIP3    H236748   6.871   0.987  10.860  0.8380 -0.7014  0.2049
 4185TIP3   OH236749   0.869   2.120  10.872  0.4968  0.0616 -0.1782
 4185TIP3    H136750   0.790   2.157  10.833  1.3155  1.8004 -0.2872
 4185TIP3    H236751   0.880   2.167  10.955  0.3854 -1.5230  0.7647
 4186TIP3   OH236752   2.706   4.673  10.363 -0.0998 -0.3723 -0.2372
 4186TIP3    H136753   2.636   4.611  10.383 -2.1497  2.4493  2.1257
 4186TIP3    H236754   2.674   4.723  10.288  0.4145 -0.4689 -0.5316
 4187TIP3   OH236755   6.604   1.865  10.515  0.3190 -0.0097 -0.3999
 4187TIP3    H136756   6.585   1.917  10.437 -0.9509 -1.1948 -0.9252
 4187TIP3    H236757   6.578   1.776  10.491 -0.4896 -0.3265  1.5152
 4188TIP3   OH236758   1.008   2.151   9.298  0.3189  0.0482  0.2545
 4188TIP3    H136759   0.977   2.241   9.304  0.2694 -0.0264  1.2400
 4188TIP3    H236760   0.979   2.121   9.212  0.8059  1.1382 -0.3116
 4189TIP3   OH236761   2.782   1.357  12.050  0.8206  0.1981 -0.1393
 4189TIP3    H136762   2.829   1.416  11.991  0.9300  0.7655  0.5161
 4189TIP3    H236763   2.790   1.397  12.136  1.0484 -0.8670  0.3456
 4190TIP3   OH236764   5.233   2.229  10.247  0.3157 -0.0258 -0.4028
 4190TIP3    H136765   5.157   2.205  10.195  0.0356 -1.3043  0.5408
 4190TIP3    H236766   5.308   2.194  10.198  0.1780 -0.0087 -0.6249
 4191TIP3   OH236767   1.168   2.481   9.470  0.0306 -0.8611 -0.1557
 4191TIP3    H136768   1.109   2.428   9.416  1.0711 -1.2525 -0.9508
 4191TIP3    H236769   1.250   2.432   9.471  1.3140  1.1172 -1.6199
 4192TIP3   OH236770   1.366   4.745  10.507  0.1448 -0.4812  0.6712
 4192TIP3    H136771   1.401   4.835  10.510  0.6505 -0.5975 -1.0915
 4192TIP3    H236772   1.336   4.729  10.597  1.6887  0.8014  1.4738
 4193TIP3   OH236773   1.174   5.794  11.323  0.1009 -0.5398 -0.1895
 4193TIP3    H136774   1.147   5.790  11.415 -2.0951 -3.4131 -0.8366
 4193TIP3    H236775   1.247   5.733  11.316 -0.1258 -0.7862 -0.4445
 4194TIP3   OH236776   0.693   2.777   9.843  0.3001 -0.0115 -0.0231
 4194TIP3    H136777   0.624   2.842   9.858 -1.6014 -1.6118 -1.2686
 4194TIP3    H236778   0.775   2.824   9.858 -0.9922  2.5411 -0.4870
 4195TIP3   OH236779   3.286   4.133  10.877  0.2070  0.0114  0.0801
 4195TIP3    H136780   3.276   4.095  10.790 -1.8934  2.4231 -0.8840
 4195TIP3    H236781   3.255   4.066  10.937 -1.3601 -0.6236 -1.3459
 4196TIP3   OH236782   0.973   4.102  10.222 -0.2238 -0.2819  0.3017
 4196TIP3    H136783   0.909   4.115  10.292 -1.4270 -0.6719 -0.6873
 4196TIP3    H236784   0.943   4.159  10.151 -0.2421 -1.4584 -0.6590
 4197TIP3   OH236785   4.833   1.836  12.939  0.7245 -0.1530  0.4128
 4197TIP3    H136786   4.829   1.758  12.883 -1.0968  0.6550 -0.6821
 4197TIP3    H236787   4.915   1.880  12.915  2.5122 -2.3463  2.0312
 4198TIP3   OH236788   0.404   2.424  11.905  0.4093 -1.0848 -0.1586
 4198TIP3    H136789   0.472   2.452  11.966 -0.7108  0.3598  0.4875
 4198TIP3    H236790   0.340   2.377  11.959 -1.1055  1.0862  0.0705
 4199TIP3   OH236791   5.336   2.828  10.688 -0.7991  0.0595  0.0496
 4199TIP3    H136792   5.291   2.870  10.762  0.4202  0.0195  0.8424
 4199TIP3    H236793   5.427   2.855  10.698 -0.3875 -1.0142 -0.6929
 4200TIP3   OH236794   3.588   2.449  10.461 -0.3068 -0.4978 -0.3539
 4200TIP3    H136795   3.599   2.437  10.367 -2.0952  0.6386 -0.7515
 4200TIP3    H236796   3.499   2.418  10.479 -0.3759  0.2780  0.7601
 4201TIP3   OH236797   4.028   4.817  11.974  0.2471 -0.1413 -1.0192
 4201TIP3    H136798   4.108   4.852  12.013 -0.0776  1.2636 -1.5734
 4201TIP3    H236799   3.962   4.826  12.042  0.3981 -0.7224 -0.7834
 4202TIP3   OH236800   6.599   5.143  12.156  0.2569  0.4584  0.6692
 4202TIP3    H136801   6.668   5.188  12.109 -0.3126  1.0008  0.3355
 4202TIP3    H236802   6.604   5.052  12.125  1.1201  0.3815  1.0141
 4203TIP3   OH236803   1.239   4.376  10.141  0.1392  0.0229  0.0414
 4203TIP3    H136804   1.205   4.327  10.067  0.0616 -0.7026  0.5404
 4203TIP3    H236805   1.227   4.468  10.117 -1.0785 -0.2029 -0.2968
 4204TIP3   OH236806   4.086   2.226  10.256 -0.1058  0.1824 -0.6924
 4204TIP3    H136807   4.007   2.210  10.204 -1.6076  1.1362  1.1278
 4204TIP3    H236808   4.066   2.186  10.341  1.2537  0.7178 -0.0942
 4205TIP3   OH236809   6.312   5.614  13.083 -0.1862 -0.3232  0.2462
 4205TIP3    H136810   6.404   5.639  13.072 -0.2399 -0.3302 -0.2270
 4205TIP3    H236811   6.264   5.673  13.025 -0.5834  0.3299  1.2072
 4206TIP3   OH236812   6.656   5.535  11.488 -0.3648 -0.0140  0.0220
 4206TIP3    H136813   6.600   5.566  11.417  1.7657  0.7344 -1.4117
 4206TIP3    H236814   6.715   5.472  11.447  1.1516  0.6933  1.0123
 4207TIP3   OH236815   1.486   3.312  10.723  0.5023  0.1330 -0.1348
 4207TIP3    H136816   1.435   3.291  10.645 -0.8054 -0.3181  0.8133
 4207TIP3    H236817   1.547   3.239  10.732 -1.1013 -1.1563  0.6993
 4208TIP3   OH236818   0.268   3.865  10.863 -0.1409 -0.7989 -0.1000
 4208TIP3    H136819   0.313   3.934  10.815 -0.7590 -0.1150  0.2936
 4208TIP3    H236820   0.242   3.905  10.946 -1.5911 -1.1269 -0.3592
 4209TIP3   OH236821   6.828   4.004  11.749 -0.3324  0.2866  0.1830
 4209TIP3    H136822   6.782   4.026  11.830 -1.2642 -0.7305 -0.0438
 4209TIP3    H236823   6.869   3.919  11.767 -0.7731 -0.0773 -0.4914
 4210TIP3   OH236824   4.627   0.622  12.563  0.0196 -0.3588  0.0194
 4210TIP3    H136825   4.602   0.529  12.560 -0.4108 -0.2816  0.9059
 4210TIP3    H236826   4.659   0.636  12.652  1.6067 -0.0195 -0.5790
 4211TIP3   OH236827   2.195   0.706  11.203 -0.1772  0.1156  0.5457
 4211TIP3    H136828   2.226   0.772  11.265  0.5409 -0.6474  1.0292
 4211TIP3    H236829   2.208   0.623  11.249  1.9407 -0.6294 -1.2193
 4212TIP3   OH236830   0.650   0.553  11.490  0.1037  0.0812  0.2674
 4212TIP3    H136831   0.650   0.641  11.529 -0.8914  0.5753 -0.8040
 4212TIP3    H236832   0.558   0.530  11.485  0.0322  0.6771 -3.1482
 4213TIP3   OH236833   4.629   6.080  10.374 -0.6410 -0.5791  0.1603
 4213TIP3    H136834   4.588   6.095  10.459  0.1607  0.4201  0.3815
 4213TIP3    H236835   4.557   6.083  10.311 -1.2082 -1.1087  0.7730
 4214TIP3   OH236836   2.362   5.670  12.070  0.4159  0.4068  0.3486
 4214TIP3    H136837   2.453   5.670  12.039  1.4228  3.4372  2.7110
 4214TIP3    H236838   2.313   5.714  12.000  0.7071 -1.2452 -0.9483
 4215TIP3   OH236839   3.843   2.317  12.272 -0.3238 -0.0465  0.2943
 4215TIP3    H136840   3.769   2.271  12.312  0.1042 -1.6792 -0.7076
 4215TIP3    H236841   3.810   2.347  12.187  0.1249 -0.7577 -0.1455
 4216TIP3   OH236842   0.957   3.239  11.335 -0.4276 -0.1039 -0.1984
 4216TIP3    H136843   0.886   3.264  11.395  0.9798  1.2558  0.9756
 4216TIP3    H236844   1.027   3.208  11.393 -0.1963 -1.9210 -1.3632
 4217TIP3   OH236845   2.482   0.627  10.181  0.3257 -0.2947  0.0577
 4217TIP3    H136846   2.562   0.575  10.168 -0.6261 -2.0242  0.7641
 4217TIP3    H236847   2.439   0.585  10.255 -0.5122  1.5585  0.6686
 4218TIP3   OH236848   4.457   1.260  10.833  0.2485 -0.0413  0.2522
 4218TIP3    H136849   4.458   1.349  10.869  0.9756 -0.8501  2.4079
 4218TIP3    H236850   4.368   1.228  10.850  0.3501 -0.1392  0.6091
 4219TIP3   OH236851   3.515   0.292  10.753  0.2828 -0.8920  0.5001
 4219TIP3    H136852   3.431   0.316  10.791  0.3942 -0.3140  0.4062
 4219TIP3    H236853   3.527   0.354  10.681 -0.1534 -2.2757 -0.8080
 4220TIP3   OH236854   2.095   4.635  10.720 -0.6364  0.5196  0.4006
 4220TIP3    H136855   2.090   4.596  10.807 -1.9741  2.3355  1.1851
 4220TIP3    H236856   2.027   4.590  10.670 -1.7336  1.3434  1.1096
 4221TIP3   OH236857   6.349   0.036  10.274 -0.0561 -0.2146  0.0244
 4221TIP3    H136858   6.264   0.068  10.242 -0.4544  0.2955  1.5174
 4221TIP3    H236859   6.412   0.066  10.209 -0.9157  0.1105 -0.6830
 4222TIP3   OH236860   2.057   5.581  10.732  0.4792 -0.5371 -0.2172
 4222TIP3    H136861   2.027   5.647  10.795  0.9184 -0.5429  0.0029
 4222TIP3    H236862   2.009   5.501  10.756 -1.4501  0.1369 -1.6394
 4223TIP3   OH236863   1.313   4.808  13.072  0.0545  0.3174  0.0193
 4223TIP3    H136864   1.321   4.829  12.978 -0.6352 -1.9151 -0.5983
 4223TIP3    H236865   1.399   4.830  13.108  0.0580  2.0822 -0.9064
 4224TIP3   OH236866   0.661   3.952  12.080 -0.3630  0.0492 -0.0971
 4224TIP3    H136867   0.581   3.949  12.027 -0.6795  0.1589  0.3677
 4224TIP3    H236868   0.675   4.045  12.098 -1.0969 -0.0599  1.2386
 4225TIP3   OH236869   5.943   4.616  11.653 -0.3724  0.1506  0.1447
 4225TIP3    H136870   5.874   4.683  11.650 -1.7064 -0.9972  2.3452
 4225TIP3    H236871   5.917   4.553  11.586 -1.1475  0.0219  0.5572
 4226TIP3   OH236872   5.857   6.251  12.617  0.3647  0.4099 -0.1046
 4226TIP3    H136873   5.905   6.325  12.655 -1.2624  1.2013  0.4903
 4226TIP3    H236874   5.900   6.235  12.533  1.4542  1.2891  0.2693
 4227TIP3   OH236875   2.280   3.009  10.813 -0.0556 -0.4558 -0.4196
 4227TIP3    H136876   2.303   3.019  10.905  0.7502 -0.2951 -0.6347
 4227TIP3    H236877   2.272   2.915  10.800 -1.4638 -0.4277  0.1179
 4228TIP3   OH236878   5.701   0.579  10.623  0.4606 -0.3161 -0.0359
 4228TIP3    H136879   5.782   0.534  10.645 -0.1887 -0.5036  2.2455
 4228TIP3    H236880   5.689   0.564  10.530  0.6089 -4.4361  0.4289
 4229TIP3   OH236881   2.157   3.953  10.842 -0.2043  0.0822 -0.4329
 4229TIP3    H136882   2.132   3.897  10.916  0.3030 -0.1550 -0.4392
 4229TIP3    H236883   2.226   3.904  10.797  2.0550  1.7500  0.9899
 4230TIP3   OH236884   5.897   1.588   9.608  0.6670 -0.2075  0.4652
 4230TIP3    H136885   5.827   1.602   9.545 -0.2906 -0.0952  1.5142
 4230TIP3    H236886   5.960   1.531   9.563  1.2247  1.7768 -1.4384
 4231TIP3   OH236887   3.034   5.499  12.035  0.8558  0.2477 -0.0350
 4231TIP3    H136888   3.058   5.453  11.955  1.0462 -1.0664  0.7541
 4231TIP3    H236889   3.019   5.589  12.007  1.5337 -0.0485 -1.4362
 4232TIP3   OH236890   2.181   1.994  12.750 -0.3255 -0.3667  0.6784
 4232TIP3    H136891   2.140   2.015  12.666  1.1055  0.9932  0.2790
 4232TIP3    H236892   2.127   2.039  12.815  1.2918  2.7454  0.0316
 4233TIP3   OH236893   6.256   3.952  12.901  0.7652 -0.8690 -0.3709
 4233TIP3    H136894   6.164   3.977  12.911  1.4157  0.6804  3.0043
 4233TIP3    H236895   6.294   4.021  12.847  0.2122 -0.8821 -0.7905
 4234TIP3   OH236896   3.151   1.400  12.193  0.3327  0.0787  0.1689
 4234TIP3    H136897   3.079   1.420  12.253 -0.8236 -0.3177 -1.0241
 4234TIP3    H236898   3.230   1.402  12.247 -0.6742 -0.3607  1.6929
 4235TIP3   OH236899   2.981   1.416  10.105  0.0039 -0.0105 -0.5533
 4235TIP3    H136900   3.055   1.356  10.108 -0.5811 -0.7309  1.7096
 4235TIP3    H236901   3.020   1.503  10.117  0.5064 -0.3874  0.6790
 4236TIP3   OH236902   1.574   2.520  12.222  0.5092  0.1469 -0.2241
 4236TIP3    H136903   1.522   2.598  12.244 -2.3007 -1.8951  1.1583
 4236TIP3    H236904   1.556   2.505  12.129 -0.1664  0.3328 -0.1328
 4237TIP3   OH236905   0.377   3.303  12.843  0.0038 -0.3309  0.1650
 4237TIP3    H136906   0.341   3.392  12.844 -1.7556 -0.9625  2.4859
 4237TIP3    H236907   0.315   3.252  12.792 -0.5983 -0.7454  1.2691
 4238TIP3   OH236908   1.841   3.445  10.609 -0.0305  0.2195 -0.2386
 4238TIP3    H136909   1.866   3.469  10.520 -0.8685  3.7706  0.3224
 4238TIP3    H236910   1.924   3.424  10.652  0.6693  0.9410 -1.1974
 4239TIP3   OH236911   4.365   3.428  12.004  0.4924  0.1597 -0.2560
 4239TIP3    H136912   4.273   3.446  12.022  0.4351 -0.5169  0.1712
 4239TIP3    H236913   4.402   3.512  11.979 -0.3334  0.3548 -0.8236
 4240TIP3   OH236914   4.991   3.974  10.783  0.2226 -0.0591  0.0388
 4240TIP3    H136915   5.053   4.044  10.764  1.8783 -1.2141  0.8994
 4240TIP3    H236916   4.986   3.971  10.879 -1.2797  0.0653 -0.0078
 4241TIP3   OH236917   2.257   4.696   9.620 -0.3463 -0.4915  0.1082
 4241TIP3    H136918   2.352   4.711   9.625 -0.3679 -0.6870  2.9320
 4241TIP3    H236919   2.249   4.605   9.591  0.1898  0.2060 -2.4780
 4242TIP3   OH236920   6.755   3.591   9.881 -0.2502  0.3072 -0.1207
 4242TIP3    H136921   6.760   3.575   9.786  0.5166 -0.3822  0.0285
 4242TIP3    H236922   6.791   3.678   9.893  0.7406 -0.0583 -0.3480
 4243TIP3   OH236923   0.227   5.530  11.995  0.5409 -0.3126  0.1843
 4243TIP3    H136924   0.310   5.576  12.010  0.7454 -0.8075  0.5820
 4243TIP3    H236925   0.212   5.539  11.901  0.8033  0.1825  0.1840
 4244TIP3   OH236926   0.068   4.480  11.664 -0.1110  0.1736  0.0960
 4244TIP3    H136927   0.145   4.424  11.672  0.9869  1.6757  0.7467
 4244TIP3    H236928   0.028   4.479  11.751  0.3312  0.9359  0.3183
 4245TIP3   OH236929   0.420   3.389  12.561 -0.3201 -0.1591  0.4219
 4245TIP3    H136930   0.344   3.427  12.604 -1.6396 -1.5265 -0.5819
 4245TIP3    H236931   0.390   3.371  12.471  0.9226 -1.4763  0.2373
 4246TIP3   OH236932   5.475   3.270  12.029 -0.1080  0.0152 -0.4671
 4246TIP3    H136933   5.533   3.335  12.068 -0.0685  0.3253 -1.0355
 4246TIP3    H236934   5.525   3.234  11.956 -0.0036 -0.8928  0.0333
 4247TIP3   OH236935   1.237   6.526  11.679  0.2124 -0.1456  0.2137
 4247TIP3    H136936   1.285   6.532  11.762  1.0530  1.6411 -0.3563
 4247TIP3    H236937   1.146   6.538  11.704  0.4386  0.2176  0.9047
 4248TIP3   OH236938   3.784   2.286  11.338  0.2498 -0.0780 -0.1764
 4248TIP3    H136939   3.846   2.340  11.289  0.1777 -0.9192 -1.2058
 4248TIP3    H236940   3.835   2.254  11.413  0.0842  2.0237  0.9316
 4249TIP3   OH236941   6.390   1.704  12.193  0.1394 -0.6748  0.5252
 4249TIP3    H136942   6.460   1.648  12.225  0.7259  1.5209  3.5050
 4249TIP3    H236943   6.335   1.721  12.270 -2.0589 -0.0175 -1.0634
 4250TIP3   OH236944   6.267   1.651   9.477  0.1257 -0.2355 -0.4030
 4250TIP3    H136945   6.333   1.591   9.511 -0.9250 -0.3810  1.5026
 4250TIP3    H236946   6.313   1.733   9.462  1.1044 -0.8577 -0.8859
 4251TIP3   OH236947   1.688   4.594  12.686  0.2311 -0.2046 -0.3101
 4251TIP3    H136948   1.610   4.597  12.743 -0.0412 -1.9403 -0.5248
 4251TIP3    H236949   1.652   4.586  12.598  0.6232 -1.3701 -0.3826
 4252TIP3   OH236950   3.763   3.147   9.859  0.2522  0.1496  0.3035
 4252TIP3    H136951   3.828   3.216   9.846  0.6458 -0.2691  0.0046
 4252TIP3    H236952   3.704   3.156   9.784  0.0813  0.3990  0.4656
 4253TIP3   OH236953   5.773   3.937  12.454  0.4924 -0.0714 -0.3726
 4253TIP3    H136954   5.865   3.940  12.427  0.0797  0.7763 -1.7423
 4253TIP3    H236955   5.739   3.856  12.415  0.7192 -0.5611  0.4150
 4254TIP3   OH236956   1.975   5.865  12.909 -0.6496 -0.7276 -0.1416
 4254TIP3    H136957   1.944   5.833  12.825  2.8478  0.9671 -2.3017
 4254TIP3    H236958   2.001   5.956  12.893  2.0508 -0.9353  2.1508
 4255TIP3   OH236959   2.009   2.084  10.223 -0.0757  0.1599 -0.1823
 4255TIP3    H136960   2.056   2.009  10.187  1.0834  1.1471 -0.7720
 4255TIP3    H236961   1.971   2.127  10.147  0.6834  1.1133 -0.0360
 4256TIP3   OH236962   3.207   0.754  12.904 -0.2807  0.3293 -0.4059
 4256TIP3    H136963   3.219   0.726  12.814  0.8717 -2.1652  0.4298
 4256TIP3    H236964   3.247   0.841  12.908 -0.7761  0.6886 -2.3692
 4257TIP3   OH236965   0.346   1.986  12.883  0.0569 -0.1350  0.0157
 4257TIP3    H136966   0.360   1.908  12.936 -0.8391 -0.5179 -0.2828
 4257TIP3    H236967   0.276   2.033  12.927  1.3900  1.1548  0.8659
 4258TIP3   OH236968   0.450   1.146  10.577 -0.3338 -0.4745 -0.0696
 4258TIP3    H136969   0.530   1.163  10.527 -0.3850 -0.7548 -0.2493
 4258TIP3    H236970   0.379   1.160  10.514 -0.5269  1.4131  0.5014
 4259TIP3   OH236971   3.244   3.741  12.810 -0.4310  0.4052 -0.4234
 4259TIP3    H136972   3.255   3.661  12.861 -1.7009  0.3256 -0.2411
 4259TIP3    H236973   3.278   3.720  12.723  0.5957  0.1500  0.0227
 4260TIP3   OH236974   3.583   1.336  12.184  0.0557 -0.2701 -0.3094
 4260TIP3    H136975   3.602   1.421  12.223 -0.5395 -0.6748  0.9038
 4260TIP3    H236976   3.557   1.356  12.094  2.8238  0.5761 -1.0279
 4261TIP3   OH236977   0.298   1.224  10.998 -0.1367  0.0153 -0.2145
 4261TIP3    H136978   0.366   1.167  10.962 -1.0954 -2.6297  1.7672
 4261TIP3    H236979   0.262   1.270  10.923  2.2743 -0.2436 -1.6132
 4262TIP3   OH236980   4.387   6.596  11.102 -0.1358  0.0213 -0.5819
 4262TIP3    H136981   4.300   6.599  11.141  0.1203 -1.8016  0.2485
 4262TIP3    H236982   4.447   6.617  11.174  0.2149 -1.1926 -0.4899
 4263TIP3   OH236983   3.300   3.531  10.484  0.2071 -0.0125  0.2683
 4263TIP3    H136984   3.344   3.604  10.527 -0.2654  1.6891 -2.0064
 4263TIP3    H236985   3.338   3.527  10.397 -0.0540 -2.2975  0.1957
 4264TIP3   OH236986   5.725   6.073  11.847 -0.4706 -0.6036 -0.0772
 4264TIP3    H136987   5.804   6.112  11.885 -1.4695 -0.8685  2.4532
 4264TIP3    H236988   5.734   6.089  11.753  2.1604  0.1314  0.2055
 4265TIP3   OH236989   6.593   3.772  12.830  0.0597 -0.9125 -0.2344
 4265TIP3    H136990   6.582   3.865  12.849  1.5476 -0.5626 -0.8620
 4265TIP3    H236991   6.594   3.729  12.915  0.1651 -0.2338  0.1112
 4266TIP3   OH236992   2.944   5.322  12.249 -0.3146 -0.4963  0.5775
 4266TIP3    H136993   2.962   5.362  12.164 -1.2310 -0.1867  0.5200
 4266TIP3    H236994   2.944   5.395  12.311 -0.4575 -0.6156  0.7190
 4267TIP3   OH236995   3.234   4.402  12.709  0.2417 -0.1047  0.5313
 4267TIP3    H136996   3.143   4.429  12.717  0.8520  1.6111  2.8494
 4267TIP3    H236997   3.284   4.481  12.727  2.1928 -1.2231  0.2624
 4268TIP3   OH236998   0.808   6.589  11.063  0.7756 -0.3046 -0.3397
 4268TIP3    H136999   0.800   6.565  10.971  0.6855  0.5108 -0.5519
 4268TIP3    H237000   0.895   6.628  11.071  0.9276 -0.7077  0.0003
 4269TIP3   OH237001   0.737   0.068   9.869 -0.4805 -0.1517  0.0344
 4269TIP3    H137002   0.679  -0.009   9.864 -0.4109 -0.2155  0.2082
 4269TIP3    H237003   0.709   0.114   9.947 -0.2479 -0.2223  0.1619
 4270TIP3   OH237004   4.782   4.803  11.058  0.2009  0.6341  0.5130
 4270TIP3    H137005   4.831   4.738  11.006 -1.2144 -1.1486  1.2941
 4270TIP3    H237006   4.712   4.831  10.999 -0.0625  0.3233  0.6760
 4271TIP3   OH237007   3.002   6.030  12.302  0.4356  0.0555  0.7428
 4271TIP3    H137008   2.943   6.073  12.240 -0.7911 -1.2570  0.9288
 4271TIP3    H237009   3.004   6.089  12.378  2.2939  1.8911 -0.6087
 4272TIP3   OH237010   0.957   4.964  11.926 -1.0158 -0.0717 -1.1338
 4272TIP3    H137011   0.930   4.929  12.011  0.4612 -0.8291 -0.9402
 4272TIP3    H237012   1.053   4.965  11.930 -0.9405  1.4204 -2.1911
 4273TIP3   OH237013   4.834   4.952  12.614 -0.0427 -0.0556 -0.5417
 4273TIP3    H137014   4.821   4.862  12.643 -0.1315  0.0420 -0.2755
 4273TIP3    H237015   4.917   4.978  12.655  0.0471 -0.0595 -0.7223
 4274TIP3   OH237016   2.486   5.435  12.697 -0.1064  0.1690  0.2152
 4274TIP3    H137017   2.540   5.357  12.709  1.2352  1.2044  1.3640
 4274TIP3    H237018   2.471   5.467  12.787 -0.9660  1.0006 -0.2082
 4275TIP3   OH237019   3.594   0.589  10.855 -0.0159 -0.4459 -0.2093
 4275TIP3    H137020   3.524   0.602  10.919 -0.6642 -1.2858 -0.7249
 4275TIP3    H237021   3.549   0.567  10.774  0.7377  1.5202 -1.2453
 4276TIP3   OH237022   0.895   0.365  12.489  0.3943  0.1451  0.2930
 4276TIP3    H137023   0.896   0.430  12.560 -0.8910  0.5572 -0.0487
 4276TIP3    H237024   0.873   0.283  12.532  0.2096  0.2804  0.4588
 4277TIP3   OH237025   4.524   3.167  10.935 -1.0145 -0.3499  0.3635
 4277TIP3    H137026   4.462   3.235  10.965 -0.6599  0.4620 -0.6931
 4277TIP3    H237027   4.468   3.099  10.898 -1.3080  0.1693 -0.1627
 4278TIP3   OH237028   4.624   3.676   9.657  0.1494 -0.5976 -0.3211
 4278TIP3    H137029   4.577   3.601   9.622 -0.8037 -1.4503  2.5678
 4278TIP3    H237030   4.709   3.673   9.613 -0.7435 -1.8489 -2.0925
 4279TIP3   OH237031   2.549   3.485  12.553  0.0678 -0.4969 -0.4736
 4279TIP3    H137032   2.456   3.481  12.531 -0.2546 -3.1529  0.8675
 4279TIP3    H237033   2.588   3.413  12.503  0.9320 -0.8890  0.7250
 4280TIP3   OH237034   1.777   4.112  11.351 -0.4227  0.0758  0.0724
 4280TIP3    H137035   1.779   4.205  11.330  0.2312 -0.1536 -0.9563
 4280TIP3    H237036   1.846   4.073  11.297  0.9806 -0.6615  2.2824
 4281TIP3   OH237037   1.958   5.935  10.242 -0.5041  0.3302 -0.2116
 4281TIP3    H137038   1.976   5.923  10.149  0.6817  1.0275 -0.0937
 4281TIP3    H237039   2.043   5.956  10.280 -1.0015  0.2065  1.0082
 4282TIP3   OH237040   3.445   2.085  10.979  0.2145 -0.0582 -0.0712
 4282TIP3    H137041   3.491   2.104  11.061 -0.8515  0.5484  0.4071
 4282TIP3    H237042   3.355   2.112  10.996 -0.3342 -1.2353 -0.9830
 4283TIP3   OH237043   3.290   2.211  11.591  0.2746 -0.4185  0.3335
 4283TIP3    H137044   3.361   2.272  11.570  1.8152 -1.9642  0.7938
 4283TIP3    H237045   3.258   2.182  11.505  0.1819  0.3175  0.1178
 4284TIP3   OH237046   5.466   1.931  11.772  0.0540 -0.3929  0.2979
 4284TIP3    H137047   5.503   2.017  11.791 -1.4840  0.8095 -1.6469
 4284TIP3    H237048   5.523   1.895  11.704  0.0921 -0.4282  0.3488
 4285TIP3   OH237049   2.550   1.832  11.398  0.3181 -0.0367  0.1591
 4285TIP3    H137050   2.469   1.784  11.418 -0.2215  0.9337  0.3526
 4285TIP3    H237051   2.555   1.899  11.466  1.7622 -0.6341  0.6786
 4286TIP3   OH237052   4.023   1.606  11.560  0.2827  0.0368 -0.5996
 4286TIP3    H137053   3.966   1.533  11.535  0.3545 -0.7902  1.4988
 4286TIP3    H237054   4.102   1.565  11.594  0.9221  1.1335 -0.7104
 4287TIP3   OH237055   1.569   3.520  12.506  0.8262 -0.0167  0.1162
 4287TIP3    H137056   1.555   3.607  12.544  0.0874  0.1673 -0.5430
 4287TIP3    H237057   1.612   3.537  12.422  0.0822 -0.2368 -0.3181
 4288TIP3   OH237058   3.823   3.323  13.224  0.1913  0.7800 -0.8121
 4288TIP3    H137059   3.736   3.360  13.213 -0.3540 -0.7502 -2.1454
 4288TIP3    H237060   3.814   3.262  13.297 -0.2413 -0.3342 -1.7593
 4289TIP3   OH237061   1.215   5.727   9.699 -0.3770 -0.8871  0.2455
 4289TIP3    H137062   1.301   5.711   9.661 -0.1898 -2.1391  1.1142
 4289TIP3    H237063   1.222   5.811   9.743  0.6617 -1.3413  0.9766
 4290TIP3   OH237064   0.097   4.538  10.366  1.1439  0.3313 -0.1116
 4290TIP3    H137065   0.082   4.578  10.280  0.5860  1.5916  0.5361
 4290TIP3    H237066   0.183   4.570  10.393  1.1488  0.2534 -0.0344
 4291TIP3   OH237067   3.003   1.160  11.082  0.1629  0.5088  0.3670
 4291TIP3    H137068   3.098   1.148  11.084 -0.0259 -2.0544 -1.3078
 4291TIP3    H237069   2.991   1.240  11.032  1.4581  0.2033 -0.5091
 4292TIP3   OH237070   0.465   1.617  11.979 -0.0084 -0.3487  0.0334
 4292TIP3    H137071   0.484   1.527  12.005  0.0052 -0.1898  0.5776
 4292TIP3    H237072   0.404   1.650  12.045  2.0781  0.9370  1.4473
 4293TIP3   OH237073   4.568   1.477  11.460  0.0989 -0.1723 -0.1689
 4293TIP3    H137074   4.522   1.539  11.404 -0.8572 -1.2467 -0.6042
 4293TIP3    H237075   4.649   1.457  11.412  1.0437  1.6553  0.5603
 4294TIP3   OH237076   0.662   5.932  12.684  0.3442  0.7043 -0.6484
 4294TIP3    H137077   0.639   6.005  12.626  1.0395 -0.0568 -1.9392
 4294TIP3    H237078   0.745   5.899  12.649 -0.1864 -1.0008 -0.4166
 4295TIP3   OH237079   3.733   4.511  12.580 -0.1665 -0.1764  0.2496
 4295TIP3    H137080   3.702   4.448  12.515 -0.3926  0.0932  0.0937
 4295TIP3    H237081   3.675   4.587  12.570 -0.6331 -0.3815  1.2142
 4296TIP3   OH237082   4.625   4.635  11.980 -0.0064 -0.6081 -0.0255
 4296TIP3    H137083   4.540   4.657  12.018 -0.2075  0.3256 -0.9647
 4296TIP3    H237084   4.684   4.626  12.055 -0.3349  1.3666  0.5193
 4297TIP3   OH237085   6.138   5.277  12.465  0.3628 -0.4233 -0.0152
 4297TIP3    H137086   6.189   5.355  12.490  1.1234 -0.3412 -1.7175
 4297TIP3    H237087   6.120   5.233  12.548  0.1566  1.4087  0.9670
 4298TIP3   OH237088   0.785   1.681   9.734 -0.0019 -0.2676 -0.2343
 4298TIP3    H137089   0.726   1.661   9.661  2.4928 -0.8608 -2.2708
 4298TIP3    H237090   0.728   1.690   9.810 -3.0718  2.7119 -2.5896
 4299TIP3   OH237091   6.393   6.050  12.785 -0.0768  0.5719  0.0440
 4299TIP3    H137092   6.298   6.043  12.794  0.0137 -1.3425 -0.1132
 4299TIP3    H237093   6.412   6.142  12.803 -2.0014  1.1062 -0.4035
 4300TIP3   OH237094   2.187   6.281  11.904 -0.4383 -0.3922 -0.1837
 4300TIP3    H137095   2.193   6.315  11.815  1.2030  2.1863  0.8043
 4300TIP3    H237096   2.277   6.255  11.926 -0.5565  0.2342  1.1374
 4301TIP3   OH237097   4.541   6.596  10.819 -0.1311 -0.5875  0.1085
 4301TIP3    H137098   4.633   6.615  10.840 -0.8536  2.0749  1.2589
 4301TIP3    H237099   4.493   6.617  10.899 -2.0203  0.6882 -1.2804
 4302TIP3   OH237100   0.397   0.752  11.192 -0.1061  0.1706  0.0364
 4302TIP3    H137101   0.484   0.739  11.154  0.0198 -0.6142  0.5791
 4302TIP3    H237102   0.412   0.812  11.265 -0.1642  0.7242 -0.3963
 4303TIP3   OH237103   0.295   5.160  12.806 -0.1546  0.1639  0.9942
 4303TIP3    H137104   0.199   5.159  12.802 -0.1590 -1.4376  0.5959
 4303TIP3    H237105   0.322   5.209  12.729 -0.6462  0.4226  0.9817
 4304TIP3   OH237106   0.755   3.391   9.757  0.4245 -0.2411  0.2571
 4304TIP3    H137107   0.785   3.374   9.667 -0.5272 -1.4345  0.1447
 4304TIP3    H237108   0.660   3.390   9.751  0.3455  0.5500  1.1465
 4305TIP3   OH237109   2.549   0.319  11.701  0.6365 -0.3498 -0.0562
 4305TIP3    H137110   2.609   0.366  11.758  1.8838 -0.8593 -0.9155
 4305TIP3    H237111   2.548   0.370  11.620 -0.2099 -0.2777 -0.0114
 4306TIP3   OH237112   2.862   2.106  11.630 -0.1493 -0.4050  0.1477
 4306TIP3    H137113   2.921   2.065  11.567 -0.0591  1.3152 -0.9456
 4306TIP3    H237114   2.919   2.159  11.685 -0.4808 -0.1102  0.2124
 4307TIP3   OH237115   5.179   5.272  12.734  0.0245 -0.4673  0.5778
 4307TIP3    H137116   5.256   5.217  12.749 -0.6195 -1.4025  0.5351
 4307TIP3    H237117   5.212   5.345  12.682  1.0908 -0.2822  1.4788
 4308TIP3   OH237118   6.546   1.445  13.370  0.5213 -0.3216 -0.2691
 4308TIP3    H137119   6.459   1.429  13.408 -0.0193  1.3596 -0.7199
 4308TIP3    H237120   6.530   1.445  13.275  1.0635 -0.2108 -0.3629
 4309TIP3   OH237121   4.268   0.576  10.240  0.7784 -0.8323 -0.0718
 4309TIP3    H137122   4.174   0.571  10.254  0.7554 -2.0016 -0.4908
 4309TIP3    H237123   4.299   0.639  10.304 -0.5400  1.1413 -1.2522
 4310TIP3   OH237124   4.262   3.306  10.276  0.3817  0.1452 -0.3392
 4310TIP3    H137125   4.265   3.399  10.254  1.1741  0.0567 -0.6074
 4310TIP3    H237126   4.252   3.262  10.192  1.1455 -0.0680 -0.3241
 4311TIP3   OH237127   0.447   1.077  13.206  0.5197  0.1179 -0.0091
 4311TIP3    H137128   0.537   1.047  13.219  0.3803  0.2750  1.4683
 4311TIP3    H237129   0.444   1.163  13.247  0.0640  0.7925 -1.3762
 4312TIP3   OH237130   4.333   6.103  10.425  0.4420 -0.8812  0.1867
 4312TIP3    H137131   4.347   6.152  10.344  0.2407  0.4702  0.9472
 4312TIP3    H237132   4.237   6.094  10.431  0.3647  0.2689  0.9703
 4313TIP3   OH237133   6.107   2.881  13.307  0.1815  0.2122  0.5273
 4313TIP3    H137134   6.038   2.846  13.363  1.2334  0.5102  2.0785
 4313TIP3    H237135   6.153   2.945  13.362  0.8424  1.0202 -0.9099
 4314TIP3   OH237136   0.154   0.256  13.270  0.3119 -0.0465 -0.7729
 4314TIP3    H137137   0.083   0.192  13.267  0.8006 -0.6212 -0.3347
 4314TIP3    H237138   0.192   0.253  13.182  1.7539 -2.0259 -0.1521
 4315TIP3   OH237139   5.781   5.161  11.451 -0.1888  0.0885 -0.1449
 4315TIP3    H137140   5.730   5.101  11.397 -0.9606  0.2574  0.3803
 4315TIP3    H237141   5.872   5.134  11.437 -0.4722 -0.7454 -0.4627
 4316TIP3   OH237142   3.289   0.018  11.324  0.0770  0.3755  0.2382
 4316TIP3    H137143   3.369   0.043  11.278 -0.6765  0.8497 -0.8663
 4316TIP3    H237144   3.318  -0.041  11.394  1.3167  0.0357 -0.5442
 4317TIP3   OH237145   4.509   4.137  12.849  0.5392  0.0877  0.1728
 4317TIP3    H137146   4.512   4.199  12.922  0.5548 -0.7991  0.9307
 4317TIP3    H237147   4.588   4.156  12.798  0.1109  1.2631 -0.0858
 4318TIP3   OH237148   3.833   1.048  12.015 -0.3623 -0.2929 -0.2865
 4318TIP3    H137149   3.872   0.963  11.993  0.9436 -0.0734  1.0380
 4318TIP3    H237150   3.849   1.057  12.109 -0.6614  1.3508 -0.3767
 4319TIP3   OH237151   6.472   1.616  10.718  0.9268  0.2205  0.6487
 4319TIP3    H137152   6.440   1.531  10.748  0.5302 -0.2237 -0.9494
 4319TIP3    H237153   6.562   1.621  10.751  1.3176 -1.2881 -0.0890
 4320TIP3   OH237154   3.960   0.379  10.563 -0.4221 -0.5704 -0.6078
 4320TIP3    H137155   3.919   0.321  10.499 -2.4197  1.4613 -1.3007
 4320TIP3    H237156   3.889   0.400  10.624 -0.0068  1.7066 -0.8424
 4321TIP3   OH237157   5.411   3.099  10.892 -0.1288 -0.6187 -0.2181
 4321TIP3    H137158   5.316   3.101  10.880 -0.2976  0.6796  1.0809
 4321TIP3    H237159   5.446   3.127  10.808 -1.0147  1.6258  0.1130
 4322TIP3   OH237160   0.273   0.364  12.569 -0.2907 -0.4006 -0.0926
 4322TIP3    H137161   0.303   0.273  12.565 -0.6244 -0.5386  0.3478
 4322TIP3    H237162   0.189   0.359  12.615 -0.2755  0.1402  0.0034
 4323TIP3   OH237163   5.065   0.093  12.580  0.7357 -0.6551  0.0236
 4323TIP3    H137164   5.044   0.078  12.672 -0.8576  0.5673 -0.1009
 4323TIP3    H237165   4.983   0.073  12.534  0.5424  1.6694 -0.7803
 4324TIP3   OH237166   2.340   1.766  11.859  0.5385  0.0651  0.3599
 4324TIP3    H137167   2.330   1.672  11.844  0.3289 -0.1340  1.6493
 4324TIP3    H237168   2.333   1.805  11.772 -1.1126 -0.9684 -0.0061
 4325TIP3   OH237169   1.353   2.776  12.622  0.0228  0.1152  0.3757
 4325TIP3    H137170   1.405   2.697  12.634 -0.7632 -0.4228  0.2930
 4325TIP3    H237171   1.393   2.840  12.682  0.4975 -0.4164  0.6380
 4326TIP3   OH237172   1.653   0.117  10.738  0.0195  0.8464 -0.1765
 4326TIP3    H137173   1.569   0.088  10.703  0.8007 -0.0640 -1.4195
 4326TIP3    H237174   1.672   0.198  10.692  0.1572  0.6594 -0.4527
 4327TIP3   OH237175   3.841   1.543  12.199 -0.4210 -0.1439  0.6496
 4327TIP3    H137176   3.920   1.595  12.184 -0.0100 -0.9958 -0.2403
 4327TIP3    H237177   3.864   1.455  12.169 -1.3917 -0.6400  1.3000
 4328TIP3   OH237178   4.932   5.064  10.921 -0.0460  0.4887 -0.2940
 4328TIP3    H137179   4.858   5.011  10.951 -0.8444  0.9075 -1.4689
 4328TIP3    H237180   4.899   5.154  10.919  0.9586  0.9042  0.5907
 4329TIP3   OH237181   3.629   2.828  11.658 -0.1518  0.2988 -0.2007
 4329TIP3    H137182   3.624   2.834  11.563 -0.3833  0.9101 -0.1592
 4329TIP3    H237183   3.703   2.770  11.675  1.5859  2.2021 -0.7579
 4330TIP3   OH237184   1.481   1.795   9.998  0.3714  0.5790  0.0064
 4330TIP3    H137185   1.424   1.781   9.923  0.5221  2.5186 -0.5411
 4330TIP3    H237186   1.422   1.791  10.074 -0.2773  1.2707 -0.4466
 4331TIP3   OH237187   0.906   4.342  10.777  0.1662 -0.4934 -0.1190
 4331TIP3    H137188   0.868   4.419  10.733  0.3149  0.7612  1.8168
 4331TIP3    H237189   0.851   4.269  10.749 -0.6870  0.4983 -1.1348
 4332TIP3   OH237190   6.244   3.180  11.804 -0.3388 -0.6511 -0.1061
 4332TIP3    H137191   6.288   3.199  11.887  0.0774  0.9409 -0.6464
 4332TIP3    H237192   6.315   3.155  11.745 -0.4526 -0.4047 -0.3469
 4333TIP3   OH237193   6.009   4.888  11.792 -0.0925  0.1313  0.0598
 4333TIP3    H137194   6.017   4.872  11.886  1.3880 -0.4827 -0.1532
 4333TIP3    H237195   6.041   4.808  11.751  2.7918  1.6705 -0.9771
 4334TIP3   OH237196   6.575   2.187  10.560  0.0397 -0.0721 -0.7208
 4334TIP3    H137197   6.642   2.186  10.492  0.5559  0.7702 -0.2416
 4334TIP3    H237198   6.621   2.215  10.639 -0.1533 -2.7341  0.4396
 4335TIP3   OH237199   2.663   2.430  12.778  0.0529 -0.1150  0.3105
 4335TIP3    H137200   2.597   2.394  12.719 -0.5562  1.6006 -0.1328
 4335TIP3    H237201   2.636   2.521  12.790  1.2180  0.0622  1.7660
 4336TIP3   OH237202   2.041   5.907   9.956 -0.2460 -0.4604 -0.5359
 4336TIP3    H137203   2.128   5.869   9.942 -0.5404 -1.4773  0.2703
 4336TIP3    H237204   2.046   5.993   9.914  1.5502  0.0308  0.5348
 4337TIP3   OH237205   3.654   1.017  12.803 -0.0228  0.0706 -0.1291
 4337TIP3    H137206   3.724   1.033  12.866 -0.5773  0.0058  0.5032
 4337TIP3    H237207   3.581   1.072  12.832 -0.0424  0.6050 -1.1302
 4338TIP3   OH237208   6.849   0.375  11.434 -0.1464  0.1078  0.7001
 4338TIP3    H137209   6.943   0.361  11.430 -0.2514 -1.2717 -3.9249
 4338TIP3    H237210   6.819   0.315  11.502  2.0328 -3.3621 -1.0622
 4339TIP3   OH237211   6.010   3.378   9.834  0.6156  0.1631 -1.0863
 4339TIP3    H137212   6.088   3.324   9.840  0.3390 -0.1537 -0.2566
 4339TIP3    H237213   5.954   3.333   9.770 -0.0554 -1.1351  0.3389
 4340TIP3   OH237214   2.174   1.846  11.324  0.9205  0.0426 -0.3105
 4340TIP3    H137215   2.201   1.812  11.239 -1.3634  1.2312 -1.6257
 4340TIP3    H237216   2.096   1.898  11.305 -0.0774 -0.1910  2.6179
 4341TIP3   OH237217   3.173   2.416  11.942 -0.7343  0.2942  0.3107
 4341TIP3    H137218   3.101   2.380  11.993 -0.1967 -0.2556  0.6859
 4341TIP3    H237219   3.154   2.510  11.936 -0.5066  0.4807  2.0277
 4342TIP3   OH237220   1.074   3.121  10.242  0.5091  0.4159  0.1962
 4342TIP3    H137221   1.065   3.210  10.208  0.7233  1.0213  1.6553
 4342TIP3    H237222   1.012   3.116  10.315 -1.3585 -1.4801 -1.3821
 4343TIP3   OH237223   3.621   5.400  11.373  0.0859 -0.2015  0.3965
 4343TIP3    H137224   3.547   5.375  11.428 -0.3996 -2.4301 -1.1214
 4343TIP3    H237225   3.581   5.436  11.293  0.7569  2.0553  0.9927
 4344TIP3   OH237226   2.152   1.757  10.595 -0.6407  0.4444  0.3855
 4344TIP3    H137227   2.158   1.812  10.517  1.4620  0.1295  0.2598
 4344TIP3    H237228   2.063   1.723  10.593 -1.0669  1.5138 -1.1346
 4345TIP3   OH237229   4.011   4.587  10.903 -0.4411  0.3794  0.1387
 4345TIP3    H137230   4.006   4.495  10.878 -2.1662  0.1931  0.9966
 4345TIP3    H237231   4.073   4.589  10.976  0.3218  0.0656 -0.4909
 4346TIP3   OH237232   1.451   0.230   9.525  0.3037  0.3774 -0.4929
 4346TIP3    H137233   1.468   0.286   9.449  0.9616  0.9857  0.0839
 4346TIP3    H237234   1.492   0.147   9.502 -2.3722 -0.5919 -2.1899
 4347TIP3   OH237235   4.301   4.988  12.385  0.1312  0.1298 -0.1332
 4347TIP3    H137236   4.381   5.027  12.349  0.2755 -0.9533 -1.0362
 4347TIP3    H237237   4.308   5.002  12.479 -0.0082  2.6140 -0.4290
 4348TIP3   OH237238   6.400   1.099  11.812 -0.0541  0.0390  0.1352
 4348TIP3    H137239   6.404   1.148  11.729  0.1406 -1.4265 -0.7690
 4348TIP3    H237240   6.477   1.041  11.809  0.1813  0.2459  1.5441
 4349TIP3   OH237241   0.986   5.682  10.712 -0.0952  0.7454 -0.1418
 4349TIP3    H137242   0.997   5.769  10.674  0.6557  0.6921 -0.0697
 4349TIP3    H237243   0.915   5.692  10.776  0.4157  1.4657  0.3325
 4350TIP3   OH237244   0.388   2.403  12.547  0.0361 -0.2016 -0.7874
 4350TIP3    H137245   0.317   2.348  12.513  0.6266 -1.8328  0.4784
 4350TIP3    H237246   0.344   2.472  12.596 -0.7192 -1.3728  0.2453
 4351TIP3   OH237247   6.342   6.724  10.793 -0.3061 -0.1653  0.0248
 4351TIP3    H137248   6.385   6.681  10.719 -0.9096 -0.9819  0.1304
 4351TIP3    H237249   6.413   6.750  10.851  0.1782  0.5521 -0.8670
 4352TIP3   OH237250   0.811   3.850  11.369 -0.3161  0.0139  0.2430
 4352TIP3    H137251   0.742   3.876  11.431  0.5907  1.4733  0.7054
 4352TIP3    H237252   0.822   3.756  11.382 -1.3294 -0.0015  1.0829
 4353TIP3   OH237253   6.403   6.586  12.550 -0.6157 -0.1023  0.4805
 4353TIP3    H137254   6.349   6.610  12.625 -2.2731  3.0205 -1.5279
 4353TIP3    H237255   6.357   6.621  12.474  1.9536 -1.3966 -1.8669
 4354TIP3   OH237256   5.670   6.567  11.031 -0.1290 -0.2663  0.0826
 4354TIP3    H137257   5.580   6.582  11.059  0.0839 -1.3243  1.4467
 4354TIP3    H237258   5.721   6.636  11.073 -0.5723  2.0371 -2.8586
 4355TIP3   OH237259   5.623   3.642  11.338  0.4796 -0.1455 -0.3336
 4355TIP3    H137260   5.572   3.587  11.278 -0.2711 -1.5791  1.5009
 4355TIP3    H237261   5.569   3.719  11.352  0.3111 -0.1538 -0.9233
 4356TIP3   OH237262   3.285   1.170  11.041  0.2866  0.1850  0.2255
 4356TIP3    H137263   3.364   1.164  11.095  1.2525  1.0865 -1.0414
 4356TIP3    H237264   3.300   1.109  10.969 -1.1917 -1.3569  1.1470
 4357TIP3   OH237265   4.628   1.875  11.065  0.3681 -0.1078 -0.4052
 4357TIP3    H137266   4.714   1.916  11.062 -0.1333  1.0548  0.3815
 4357TIP3    H237267   4.640   1.790  11.023  1.6947  0.3880 -1.0718
 4358TIP3   OH237268   2.315   4.965  11.015  0.3891  0.2244  0.0340
 4358TIP3    H137269   2.265   4.962  11.096 -1.6435 -1.5898 -1.1715
 4358TIP3    H237270   2.269   5.030  10.961  1.0854  0.6374 -0.0776
 4359TIP3   OH237271   5.848   6.281  10.765  0.3792 -0.2134  0.0911
 4359TIP3    H137272   5.834   6.348  10.697  0.8303 -2.7106 -2.6805
 4359TIP3    H237273   5.927   6.310  10.811 -0.6383  2.1978  0.4382
 4360TIP3   OH237274   3.533   6.037  12.478  0.3915  0.4642  0.6178
 4360TIP3    H137275   3.517   5.965  12.417 -2.1647  1.1743  0.3521
 4360TIP3    H237276   3.629   6.045  12.481  0.6619 -0.2747 -2.5094
 4361TIP3   OH237277   2.396   3.443  12.262  0.2924  0.1199 -0.6002
 4361TIP3    H137278   2.360   3.404  12.341  0.2794 -2.7551 -1.8911
 4361TIP3    H237279   2.491   3.433  12.270  0.2498 -0.9825 -1.2838
 4362TIP3   OH237280   3.796   4.205  11.895 -0.2272 -0.3584  0.6801
 4362TIP3    H137281   3.729   4.145  11.929 -0.0165 -0.0328  1.6856
 4362TIP3    H237282   3.764   4.229  11.808 -1.1521 -0.6190  0.9375
 4363TIP3   OH237283   1.801   6.245  11.052  0.2968  0.5961 -0.2474
 4363TIP3    H137284   1.844   6.165  11.084 -2.1062 -0.5481  0.3108
 4363TIP3    H237285   1.811   6.307  11.124 -0.7001 -0.3297  0.7322
 4364TIP3   OH237286   3.381   0.716  11.376  0.4013 -0.1150 -0.0074
 4364TIP3    H137287   3.351   0.775  11.445 -2.2690 -1.2694 -0.0725
 4364TIP3    H237288   3.305   0.707  11.318  1.3120 -2.2136 -0.9597
 4365TIP3   OH237289   5.976   3.575  13.226 -0.3201 -0.3029 -0.2761
 4365TIP3    H137290   6.017   3.497  13.188  0.5968  0.8457 -1.7406
 4365TIP3    H237291   6.038   3.605  13.292  0.4410  0.4579 -1.3046
 4366TIP3   OH237292   2.361   6.774  10.904 -0.1980  0.3611 -0.9361
 4366TIP3    H137293   2.337   6.687  10.871  2.1962 -0.3278 -1.0678
 4366TIP3    H237294   2.398   6.819  10.828  3.3011 -0.4360  0.1280
 4367TIP3   OH237295   0.450   1.048   9.946  0.0915  0.6649  0.1557
 4367TIP3    H137296   0.509   1.105   9.895 -1.7958  2.9583  0.3521
 4367TIP3    H237297   0.398   1.109   9.999 -0.8228 -1.4097  1.7767
 4368TIP3   OH237298   3.399   5.178  11.794 -0.3404 -0.3607 -0.2387
 4368TIP3    H137299   3.430   5.089  11.777 -2.8234 -1.2807 -0.2603
 4368TIP3    H237300   3.341   5.170  11.870 -0.9668  1.1655 -0.5194
 4369TIP3   OH237301   5.146   2.368  12.501 -0.6417  0.0958  0.1715
 4369TIP3    H137302   5.241   2.366  12.508 -0.5219 -2.0596 -1.1467
 4369TIP3    H237303   5.119   2.437  12.562  1.7781  1.3778 -0.0783
 4370TIP3   OH237304   3.975   3.307  10.740  0.1179  0.0738  0.1652
 4370TIP3    H137305   3.924   3.277  10.665  1.4799 -0.3868 -0.6148
 4370TIP3    H237306   3.914   3.360  10.791 -1.2572 -0.8402 -0.4714
 4371TIP3   OH237307   1.076   0.364  10.118 -0.0237  0.0798 -0.1450
 4371TIP3    H137308   1.038   0.313  10.047 -0.8013  0.4129  0.0259
 4371TIP3    H237309   1.067   0.307  10.195  2.8164 -1.2219 -0.6615
 4372TIP3   OH237310   5.883   5.421  10.854 -0.2644 -0.1463  0.7536
 4372TIP3    H137311   5.924   5.467  10.781  2.0735 -1.0366  1.4389
 4372TIP3    H237312   5.844   5.491  10.907  0.3216  0.7338  0.0535
 4373TIP3   OH237313   1.801   1.599  12.242 -0.2810 -0.0727  0.2117
 4373TIP3    H137314   1.831   1.595  12.151 -2.2862 -1.0232 -0.4692
 4373TIP3    H237315   1.756   1.683  12.248  0.6098  0.3890  0.6105
 4374TIP3   OH237316   4.977   6.687  11.408 -0.7441  0.0199  0.7433
 4374TIP3    H137317   4.961   6.595  11.387 -1.1975  0.5362 -1.4223
 4374TIP3    H237318   5.069   6.701  11.384 -1.0561  0.4395 -0.2553
 4375TIP3   OH237319   1.323   3.006  10.287  0.2488 -0.1033  0.4369
 4375TIP3    H137320   1.239   3.048  10.269 -0.1771 -1.7076 -1.8168
 4375TIP3    H237321   1.335   3.017  10.381 -0.1699  4.2101  0.1912
 4376TIP3   OH237322   2.302   0.546  10.394  0.0020  0.0716  0.8076
 4376TIP3    H137323   2.297   0.577  10.484 -0.1608  2.5072  0.0270
 4376TIP3    H237324   2.221   0.578  10.353  0.0727 -0.9975 -0.2216
 4377TIP3   OH237325   4.857   4.787  12.341 -0.0591  0.1920  0.1403
 4377TIP3    H137326   4.766   4.761  12.358  0.8810 -1.9308  2.5726
 4377TIP3    H237327   4.852   4.880  12.322 -2.7394  0.1445  0.1930
 4378TIP3   OH237328   4.501   2.699  11.064 -0.1492  0.3471 -0.5475
 4378TIP3    H137329   4.469   2.634  11.002 -1.1530  0.6200 -0.3261
 4378TIP3    H237330   4.459   2.675  11.147  1.3917 -0.1880  0.1192
 4379TIP3   OH237331   0.203   3.198  12.666 -0.1945 -0.5060  0.6461
 4379TIP3    H137332   0.140   3.234  12.604 -1.2370  0.0579  1.9902
 4379TIP3    H237333   0.270   3.157  12.611  0.0869  1.8574 -0.9071
 4380TIP3   OH237334   1.014   3.383  10.159  0.7150 -0.2732 -0.2198
 4380TIP3    H137335   0.960   3.410  10.085 -0.3877  0.3391  0.7820
 4380TIP3    H237336   0.984   3.437  10.232  1.9498 -0.6855  0.6242
 4381TIP3   OH237337   6.847   6.619  12.803 -0.4705  0.1252  0.1836
 4381TIP3    H137338   6.911   6.641  12.736  0.2509  0.8146  1.0694
 4381TIP3    H237339   6.820   6.530  12.781 -0.1339  0.2781 -0.9190
 4382TIP3   OH237340   2.615   5.883  12.804  0.2324 -0.4316 -0.3285
 4382TIP3    H137341   2.550   5.935  12.851  0.9772 -1.0299  1.4540
 4382TIP3    H237342   2.688   5.942  12.789 -0.2443 -0.0737 -1.3127
 4383TIP3   OH237343   2.061   0.266  10.860 -0.2015 -0.3192 -0.4510
 4383TIP3    H137344   1.980   0.315  10.845  0.1046  0.1496 -0.6088
 4383TIP3    H237345   2.074   0.216  10.780  0.3294  0.5826 -0.9493
 4384TIP3   OH237346   5.311   5.917  12.715 -0.0273 -0.0702  0.1773
 4384TIP3    H137347   5.352   6.003  12.711  1.6168 -0.8370 -0.2248
 4384TIP3    H237348   5.306   5.888  12.624  2.7514 -1.8426  0.4689
 4385TIP3   OH237349   6.096   2.777  10.145 -0.1544 -0.1881 -0.1372
 4385TIP3    H137350   6.136   2.851  10.100  1.7868 -0.5182  0.9460
 4385TIP3    H237351   6.123   2.700  10.094  1.1052 -0.4591  0.8901
 4386TIP3   OH237352   3.577   6.813  10.886  0.4969  0.0747 -0.1116
 4386TIP3    H137353   3.519   6.754  10.933  0.6760  0.6666  0.8897
 4386TIP3    H237354   3.519   6.869  10.835  0.3024 -0.5950 -0.6427
 4387TIP3   OH237355   1.153   6.352  12.875 -0.2307  0.0827  0.9873
 4387TIP3    H137356   1.189   6.345  12.787 -0.2014  1.6960  0.8356
 4387TIP3    H237357   1.058   6.357  12.862 -0.2874 -0.5919  1.1214
 4388TIP3   OH237358   5.793   1.189  10.764  0.0590  0.1629  0.7305
 4388TIP3    H137359   5.729   1.192  10.693 -0.1193  0.3264  0.8941
 4388TIP3    H237360   5.752   1.240  10.835  0.1384 -0.1809  1.0283
 4389TIP3   OH237361   1.735   0.729  12.070 -0.1553  1.2996  0.5719
 4389TIP3    H137362   1.666   0.795  12.080 -0.6899  1.1371 -1.5035
 4389TIP3    H237363   1.762   0.737  11.978  1.0693 -0.1215  0.7740
 4390TIP3   OH237364   3.422   4.610  12.765  0.1205  0.1916 -0.2530
 4390TIP3    H137365   3.433   4.597  12.859  0.1705 -0.3853 -0.3322
 4390TIP3    H237366   3.500   4.660  12.739  0.1963  0.1990 -0.0171
 4391TIP3   OH237367   1.716   1.405  11.584  0.2330  0.2582  0.0360
 4391TIP3    H137368   1.630   1.446  11.591  0.7476  1.3345  0.3170
 4391TIP3    H237369   1.702   1.315  11.613 -0.0692  1.3561  3.9311
 4392TIP3   OH237370   0.261   1.831  10.957  1.0819  0.2869  0.5638
 4392TIP3    H137371   0.244   1.899  10.891 -0.8615  0.1110  0.8077
 4392TIP3    H237372   0.261   1.879  11.041  0.5452  0.1151  0.6666
 4393TIP3   OH237373   3.940   0.755  11.492 -0.0957 -0.5818 -0.0179
 4393TIP3    H137374   4.029   0.771  11.526 -1.0667  1.8824  1.6110
 4393TIP3    H237375   3.916   0.836  11.448 -1.0704 -1.7145 -1.6720
 4394TIP3   OH237376   3.900   5.399  10.266 -0.0143  0.2674  0.1326
 4394TIP3    H137377   3.956   5.476  10.270 -0.9690  0.9530  0.8477
 4394TIP3    H237378   3.954   5.332  10.224  0.5390  1.5888 -1.4006
 4395TIP3   OH237379   1.403   1.684  10.545 -0.1247 -0.2794 -0.4288
 4395TIP3    H137380   1.462   1.629  10.494 -1.7311 -0.8408 -1.7547
 4395TIP3    H237381   1.347   1.622  10.591 -0.5071  0.2439 -0.1820
 4396TIP3   OH237382   6.746   2.786  12.953 -0.5205 -0.7552  0.0349
 4396TIP3    H137383   6.812   2.775  12.884 -0.2376 -0.5067  0.2579
 4396TIP3    H237384   6.680   2.843  12.914 -0.9029 -1.4790 -0.3878
 4397TIP3   OH237385   1.550   2.050  12.432 -0.5029  0.0428  0.0169
 4397TIP3    H137386   1.581   2.140  12.420 -0.0722 -0.2362 -1.0553
 4397TIP3    H237387   1.604   2.016  12.504 -0.6253  0.6117  0.3852
 4398TIP3   OH237388   5.871   3.329  10.072 -0.1135  0.0942  0.0244
 4398TIP3    H137389   5.919   3.356   9.993 -0.6582 -1.0364 -0.7168
 4398TIP3    H237390   5.779   3.327  10.044 -0.1357 -2.1781  0.1132
 4399TIP3   OH237391   1.747   5.040  10.328  1.0076  0.1501 -0.7059
 4399TIP3    H137392   1.699   5.065  10.249 -0.5087 -1.9967 -0.5604
 4399TIP3    H237393   1.822   4.990  10.296 -0.5489 -2.2455 -0.8530
 4400TIP3   OH237394   2.612   1.899  13.185 -0.2489 -0.6078  0.5016
 4400TIP3    H137395   2.602   1.906  13.280  0.7315 -2.2671  0.7740
 4400TIP3    H237396   2.665   1.820  13.172  0.6295  0.2020 -1.3709
 4401TIP3   OH237397   3.221   0.820  11.633  0.0754  0.7517 -0.1005
 4401TIP3    H137398   3.273   0.889  11.593 -2.3471  0.7370 -3.6734
 4401TIP3    H237399   3.133   0.857  11.640 -0.9852 -1.4613 -0.8548
 4402TIP3   OH237400   0.543   3.115  10.934  0.2012 -0.1470 -0.0816
 4402TIP3    H137401   0.510   3.136  10.847 -0.1060  1.8911  0.4534
 4402TIP3    H237402   0.561   3.201  10.973 -0.9651 -0.9284  2.3454
 4403TIP3   OH237403   1.477   6.199  12.121  0.5240 -0.2144  0.3804
 4403TIP3    H137404   1.432   6.116  12.109 -1.3280  0.5678  1.4370
 4403TIP3    H237405   1.444   6.255  12.051  2.2496 -0.5085 -0.7259
 4404TIP3   OH237406   0.942   3.629  10.969  0.0787  0.3564  0.0565
 4404TIP3    H137407   0.976   3.643  11.057  1.4542 -1.4565 -0.1399
 4404TIP3    H237408   0.984   3.697  10.916  1.1915 -0.0619  0.3679
 4405TIP3   OH237409   0.059   4.316  11.942  0.0584  0.7995  0.1826
 4405TIP3    H137410  -0.003   4.373  11.987 -0.4105 -0.4206  1.1435
 4405TIP3    H237411   0.011   4.285  11.865 -0.9790 -0.9323  1.4410
 4406TIP3   OH237412   0.934   0.960  12.587  0.5743 -0.4288  0.0140
 4406TIP3    H137413   0.953   0.868  12.608  0.9191 -0.2711  0.4051
 4406TIP3    H237414   0.839   0.962  12.575  0.5656 -0.8423 -0.0274
 4407TIP3   OH237415   6.336   4.484  12.207 -0.6018  0.2355 -0.1198
 4407TIP3    H137416   6.373   4.518  12.289  0.3205  1.0072 -0.8437
 4407TIP3    H237417   6.314   4.563  12.157 -1.7406 -0.2251 -0.3854
 4408TIP3   OH237418   6.336   0.886  11.258  0.4779  0.1971  0.7195
 4408TIP3    H137419   6.356   0.932  11.340  0.6671  0.7602  0.3607
 4408TIP3    H237420   6.294   0.805  11.286  0.6391  0.3356  1.3811
 4409TIP3   OH237421   5.511   4.147  10.577  0.0483 -0.2774 -0.2082
 4409TIP3    H137422   5.450   4.220  10.567 -1.3513 -1.3129  0.4007
 4409TIP3    H237423   5.597   4.187  10.580 -0.6963  1.3526  0.1507
 4410TIP3   OH237424   5.006   6.285   9.698 -0.0329  0.5365 -0.9675
 4410TIP3    H137425   5.077   6.223   9.718 -0.5813  0.4334  0.8012
 4410TIP3    H237426   4.973   6.257   9.613 -1.0384 -2.4201  0.2727
 4411TIP3   OH237427   0.539   4.502  12.020  0.6718  0.1828  0.0090
 4411TIP3    H137428   0.560   4.479  12.110  0.9414  2.6891  0.6691
 4411TIP3    H237429   0.445   4.486  12.012  0.4822  0.7108  1.0134
 4412TIP3   OH237430   2.020   1.445  10.530 -0.4460  0.4301  0.0034
 4412TIP3    H137431   1.980   1.529  10.553  0.6454  1.3010 -1.1338
 4412TIP3    H237432   2.100   1.469  10.483  1.6243 -1.1952  2.4221
 4413TIP3   OH237433   2.554   5.058  11.745 -0.5191  0.7207  0.5104
 4413TIP3    H137434   2.549   5.139  11.693 -1.1226  1.8269  2.2353
 4413TIP3    H237435   2.464   5.038  11.766 -0.4800 -1.0723 -0.7984
 4414TIP3   OH237436   0.389   3.051  12.515 -0.3705 -0.0680  0.3848
 4414TIP3    H137437   0.383   2.991  12.441 -0.1312 -1.2087  1.2732
 4414TIP3    H237438   0.463   3.108  12.493  1.3835 -2.0251  0.8735
 4415TIP3   OH237439   0.352   3.894  11.668 -0.5221  0.3956  0.0092
 4415TIP3    H137440   0.297   3.833  11.718 -0.3691 -0.9422 -1.3809
 4415TIP3    H237441   0.292   3.933  11.605  0.1956 -1.7608 -2.1432
 4416TIP3   OH237442   5.519   2.851   9.414  0.0830  0.4738  0.2541
 4416TIP3    H137443   5.497   2.776   9.359 -1.2963  1.0100  0.0285
 4416TIP3    H237444   5.435   2.884   9.445  0.7568  1.0086  1.6001
 4417TIP3   OH237445   1.534   6.147  11.662 -0.2775 -0.5432 -0.0990
 4417TIP3    H137446   1.526   6.101  11.578 -0.0193 -0.6174 -0.0844
 4417TIP3    H237447   1.444   6.159  11.692 -0.3566 -0.8036 -0.2305
 4418TIP3   OH237448   1.169   3.179  12.134 -0.2511  0.0176  0.3163
 4418TIP3    H137449   1.146   3.169  12.227 -0.0729 -0.4085  0.3134
 4418TIP3    H237450   1.088   3.158  12.087 -0.2249 -0.1849  0.3600
 4419TIP3   OH237451   0.187   1.679  12.900  0.1485  0.3594  0.8471
 4419TIP3    H137452   0.268   1.694  12.949  0.9582  2.1862 -0.8877
 4419TIP3    H237453   0.164   1.765  12.866 -1.8167 -0.3740  0.2003
 4420TIP3   OH237454   5.235   1.885  11.134  0.3045  0.1570  0.1065
 4420TIP3    H137455   5.241   1.923  11.221  0.2298  1.9064 -0.6176
 4420TIP3    H237456   5.142   1.886  11.112  0.4067  0.6436 -0.3528
 4421TIP3   OH237457   6.840   1.955  10.291  0.1516  0.1962  0.3495
 4421TIP3    H137458   6.801   1.928  10.208  0.6813 -0.0456  0.1789
 4421TIP3    H237459   6.867   1.874  10.334 -0.4742  0.2884  0.9428
 4422TIP3   OH237460   5.214   2.029  11.368  0.2587  0.6927 -0.4056
 4422TIP3    H137461   5.214   2.107  11.423  0.8618 -0.5455  1.4643
 4422TIP3    H237462   5.296   1.984  11.390 -1.1417 -1.6584  0.4252
 4423TIP3   OH237463   4.696   5.464  11.701  0.2037  0.2506  0.0713
 4423TIP3    H137464   4.672   5.373  11.684 -1.7187  0.8901 -0.8861
 4423TIP3    H237465   4.780   5.458  11.748 -0.9989 -2.0893  2.1743
 4424TIP3   OH237466   4.115   4.434  12.065  0.0632 -0.2591  0.8060
 4424TIP3    H137467   4.117   4.355  12.119 -0.9896  0.0066  1.2587
 4424TIP3    H237468   4.174   4.495  12.110 -1.1613  0.1237  1.9538
 4425TIP3   OH237469   1.841   6.329  12.066 -0.2395  0.1857  0.1293
 4425TIP3    H137470   1.773   6.387  12.100 -0.6906  0.3102 -0.9411
 4425TIP3    H237471   1.796   6.271  12.005  0.7536  1.0335 -1.5035
 4426TIP3   OH237472   0.414   0.023  13.160 -0.0776  0.4785  0.3807
 4426TIP3    H137473   0.370   0.047  13.079 -0.3465  0.5692  0.5530
 4426TIP3    H237474   0.346  -0.017  13.214  0.3649 -0.6877  0.0968
 4427TIP3   OH237475   3.231   4.768  12.287  0.2274  0.6675  0.1779
 4427TIP3    H137476   3.212   4.765  12.193 -0.7067  1.8352  0.3128
 4427TIP3    H237477   3.289   4.694  12.302 -1.2645 -0.7787 -0.9385
 4428TIP3   OH237478   6.196   4.297  12.068 -0.2459 -0.2472  0.6186
 4428TIP3    H137479   6.240   4.362  12.123 -2.3785 -0.2452  2.5229
 4428TIP3    H237480   6.118   4.342  12.036 -1.6399 -1.6921  1.7779
 4429TIP3   OH237481   5.289   2.876  10.273  0.1246 -0.0168  0.1995
 4429TIP3    H137482   5.355   2.815  10.305  0.3020  0.3531  0.5505
 4429TIP3    H237483   5.305   2.957  10.323  0.4848  0.6182 -0.9114
 4430TIP3   OH237484   4.229   0.643  11.471  0.2034  0.1466 -0.2366
 4430TIP3    H137485   4.261   0.559  11.438  2.1205  0.2003  1.2649
 4430TIP3    H237486   4.261   0.707  11.407 -0.6415 -0.1734 -1.0028
 4431TIP3   OH237487   6.108   6.511  12.535  0.0712 -0.1914  0.2152
 4431TIP3    H137488   6.142   6.561  12.609 -1.3810 -0.5024  1.1437
 4431TIP3    H237489   6.043   6.452  12.575  2.3276 -3.5181 -0.6398
 4432TIP3   OH237490   4.315   0.941  10.833 -0.3191 -0.1890 -0.3156
 4432TIP3    H137491   4.400   0.956  10.792  0.5824 -2.1437  0.7376
 4432TIP3    H237492   4.327   0.966  10.924 -0.9831 -0.1462 -0.2329
 4433TIP3   OH237493   5.656   4.487  12.313  0.4247 -0.3691 -0.5489
 4433TIP3    H137494   5.572   4.445  12.334  1.2273 -1.7184  0.1752
 4433TIP3    H237495   5.667   4.473  12.219  0.2665 -1.0323 -0.4745
 4434TIP3   OH237496   5.454   3.592  11.115 -0.3680  0.1254  0.3141
 4434TIP3    H137497   5.419   3.548  11.038 -1.6681  0.7540  0.5341
 4434TIP3    H237498   5.541   3.621  11.088 -1.7210  2.5842 -1.8229
 4435TIP3   OH237499   3.053   4.707  13.298  0.1276 -0.0276 -0.6346
 4435TIP3    H137500   3.033   4.646  13.228 -0.0279 -1.3630  0.5205
 4435TIP3    H237501   2.968   4.737  13.329  0.0446 -1.4595  0.6529
 4436TIP3   OH237502   4.698   5.726  12.853 -0.2266  0.1809  0.2765
 4436TIP3    H137503   4.613   5.721  12.896 -0.5729  0.8907 -0.3046
 4436TIP3    H237504   4.714   5.638  12.820 -0.6402 -0.0064  0.5658
 4437TIP3   OH237505   1.770   2.279  10.266 -0.7801 -0.2312  0.3100
 4437TIP3    H137506   1.842   2.336  10.293 -2.0957  1.1972  0.9029
 4437TIP3    H237507   1.808   2.226  10.195  0.2142  2.1517 -1.0746
 4438TIP3   OH237508   0.068   6.287  11.214 -0.1131  0.3042  0.1837
 4438TIP3    H137509  -0.020   6.249  11.219 -0.0569 -0.0973 -1.2831
 4438TIP3    H237510   0.125   6.214  11.190  0.1752  1.0492 -1.5468
 4439TIP3   OH237511   1.121   3.411  12.555 -0.8008  0.2916  0.0337
 4439TIP3    H137512   1.142   3.366  12.637 -1.9541  0.5657  0.4935
 4439TIP3    H237513   1.167   3.494  12.560  0.4007 -0.3183 -0.3106
 4440TIP3   OH237514   4.539   5.835  11.881  0.6541 -0.3658  0.2750
 4440TIP3    H137515   4.558   5.809  11.972  0.4168 -1.5643 -0.0022
 4440TIP3    H237516   4.571   5.925  11.875 -1.8979  0.8292  2.3870
 4441TIP3   OH237517   3.360   5.690  11.006 -0.1470  0.1047  0.7556
 4441TIP3    H137518   3.405   5.691  10.921  0.4775  1.0604  1.0822
 4441TIP3    H237519   3.274   5.727  10.988 -0.1845 -0.1159  0.4626
 4442TIP3   OH237520   6.414   5.029  11.208  0.0337 -0.1701 -0.1654
 4442TIP3    H137521   6.333   4.979  11.195  0.5192 -0.9497 -0.2230
 4442TIP3    H237522   6.460   4.981  11.277 -0.3063  1.1980  1.0651
 4443TIP3   OH237523   2.630   1.157  12.556 -0.1628  0.3542  0.3642
 4443TIP3    H137524   2.605   1.195  12.472  0.9636  2.2481  0.8066
 4443TIP3    H237525   2.630   1.063  12.542  0.1086  0.6325 -1.7961
 4444TIP3   OH237526   4.752   2.946  11.590  0.0392 -0.2962 -0.2676
 4444TIP3    H137527   4.811   2.905  11.527 -1.9769 -1.8574 -1.2387
 4444TIP3    H237528   4.759   3.040  11.571  0.5334 -0.6276 -1.8849
 4445TIP3   OH237529   2.029   5.518  11.823  0.0205  0.5054  0.3497
 4445TIP3    H137530   2.083   5.525  11.744 -0.2804  1.3640  0.2125
 4445TIP3    H237531   1.939   5.518  11.790 -0.1293  1.5149  0.7156
 4446TIP3   OH237532   3.935   0.160  13.262 -0.1909  0.4752  0.4476
 4446TIP3    H137533   3.925   0.145  13.356  2.0293 -0.2334  0.6439
 4446TIP3    H237534   4.004   0.099  13.236 -2.6066 -1.3427 -2.2407
 4447TIP3   OH237535   5.631   3.075  12.370  0.0018 -0.0936 -0.2077
 4447TIP3    H137536   5.723   3.099  12.356  0.0157  0.5226  0.8543
 4447TIP3    H237537   5.633   3.013  12.443 -0.4757  0.3677  0.2037
 4448TIP3   OH237538   0.062   5.654  10.883  0.3056 -0.0384  0.2954
 4448TIP3    H137539  -0.015   5.674  10.830  0.7704 -0.4663 -0.5642
 4448TIP3    H237540   0.028   5.636  10.971 -0.5681 -0.2504 -0.0842
 4449TIP3   OH237541   4.875   2.812  11.390 -0.1843  0.2238 -0.4662
 4449TIP3    H137542   4.826   2.733  11.413  1.6760 -0.5746  1.0787
 4449TIP3    H237543   4.933   2.785  11.319  0.5197  0.1470  0.1248
 4450TIP3   OH237544   1.882   5.324  11.485  0.0077  0.4089  0.0075
 4450TIP3    H137545   1.867   5.347  11.576 -2.1734 -1.2258  0.1259
 4450TIP3    H237546   1.873   5.407  11.438  2.5510  1.5518  1.3119
 4451TIP3   OH237547   4.369   6.800  10.243 -0.9455  0.4607  0.3640
 4451TIP3    H137548   4.375   6.777  10.150 -1.5883  0.0830  0.4064
 4451TIP3    H237549   4.451   6.767  10.281 -0.4927  0.9888 -0.1371
 4452TIP3   OH237550   5.843   5.768  12.820  0.4072  0.1762  0.4569
 4452TIP3    H137551   5.916   5.770  12.758 -0.5527 -0.3214 -0.7094
 4452TIP3    H237552   5.882   5.734  12.901  1.9269  1.8776  0.5039
 4453TIP3   OH237553   2.978   0.781  12.150 -0.4371  0.1239 -0.1695
 4453TIP3    H137554   2.986   0.745  12.062 -0.3163  0.7234 -0.4088
 4453TIP3    H237555   2.904   0.842  12.144 -0.3959  0.2063  0.1340
 4454TIP3   OH237556   2.953   0.407  13.040  0.2279  0.5360  0.0369
 4454TIP3    H137557   2.985   0.377  12.956  1.2719  0.4632  0.4404
 4454TIP3    H237558   2.990   0.346  13.104 -1.2251  0.0922  0.4896
 4455TIP3   OH237559   3.569   0.022  12.449  0.8786 -0.3177  0.2001
 4455TIP3    H137560   3.483  -0.020  12.447 -0.1203  1.5958 -2.1394
 4455TIP3    H237561   3.575   0.061  12.536 -0.7260 -0.3055  0.3409
 4456TIP3   OH237562   4.241   5.518  11.337 -0.1398 -0.3067 -0.2053
 4456TIP3    H137563   4.228   5.428  11.306  0.1491 -0.4364  0.0373
 4456TIP3    H237564   4.155   5.544  11.371 -0.1738 -0.5650 -0.0885
 4457TIP3   OH237565   5.690   4.789  11.331 -0.0320  0.1890 -0.1358
 4457TIP3    H137566   5.711   4.738  11.253  0.2466  1.0285 -0.6154
 4457TIP3    H237567   5.676   4.723  11.399 -0.1609 -0.5456 -0.8577
 4458TIP3   OH237568   4.025   4.023  11.710 -0.8474  0.2297 -0.1559
 4458TIP3    H137569   4.057   4.109  11.737  0.5276  0.2122 -1.5151
 4458TIP3    H237570   3.975   4.040  11.630  0.1140 -0.2605 -0.8997
 4459TIP3   OH237571   3.691   0.326  11.048 -0.3096  0.3594 -0.4032
 4459TIP3    H137572   3.627   0.345  10.979  0.1375  1.4965 -0.5204
 4459TIP3    H237573   3.716   0.412  11.081  1.3233 -0.0555 -0.5052
 4460TIP3   OH237574   4.182   0.502  11.999  0.5992 -0.5024  0.0921
 4460TIP3    H137575   4.102   0.451  12.004 -0.9171  1.7019 -0.2819
 4460TIP3    H237576   4.249   0.447  12.039 -1.8366 -1.0180  3.8985
 4461TIP3   OH237577   0.210   5.043  12.509  0.0204 -0.8117 -0.6038
 4461TIP3    H137578   0.249   5.129  12.495  0.2187 -1.2718 -3.4768
 4461TIP3    H237579   0.247   5.012  12.591  1.3251  1.0933 -0.4224
 4462TIP3   OH237580   2.608   2.969  12.927  0.1786 -0.3298 -0.5509
 4462TIP3    H137581   2.576   3.044  12.877  0.0185 -0.0384 -0.0124
 4462TIP3    H237582   2.604   2.997  13.018  0.5299 -0.8389 -0.3771
 4463TIP3   OH237583   3.550   4.971  11.496 -0.5511  0.5877 -0.5343
 4463TIP3    H137584   3.639   5.004  11.481 -0.4593 -0.1269 -1.6310
 4463TIP3    H237585   3.562   4.877  11.514 -1.1808  0.1743 -2.1344
 4464TIP3   OH237586   5.235   2.947   9.487 -0.4524 -0.2128 -0.0856
 4464TIP3    H137587   5.176   2.974   9.416  1.9801  1.2404 -1.6848
 4464TIP3    H237588   5.259   3.029   9.530 -0.1054 -0.8546  0.9642
 4465TIP3   OH237589   2.831   6.698  12.198  0.0695 -0.2098  0.4901
 4465TIP3    H137590   2.764   6.655  12.144  0.4540  0.5732 -0.6607
 4465TIP3    H237591   2.824   6.656  12.283 -1.8109 -0.2394  0.3748
 4466TIP3   OH237592   2.284   2.836  10.434  0.2467 -0.0338 -0.2293
 4466TIP3    H137593   2.340   2.764  10.464  1.5902  0.9937 -0.1980
 4466TIP3    H237594   2.305   2.845  10.341 -0.2778  0.0096 -0.3464
 4467TIP3   OH237595   2.369   2.473  11.542 -0.1354  0.1941 -0.3627
 4467TIP3    H137596   2.393   2.447  11.631 -0.3069 -0.8409 -0.6085
 4467TIP3    H237597   2.274   2.460  11.538 -0.2996  1.3099 -0.3600
 4468TIP3   OH237598   5.955   3.039  12.484 -0.5639  0.1403 -0.0095
 4468TIP3    H137599   6.023   2.980  12.516  1.9054  2.7892  0.1176
 4468TIP3    H237600   5.895   3.050  12.558  0.1750 -0.4911  0.7010
 4469TIP3   OH237601   1.642   5.463  13.088  0.0349  0.4272 -0.3973
 4469TIP3    H137602   1.575   5.519  13.125  0.6521  0.9271 -0.0223
 4469TIP3    H237603   1.708   5.523  13.053 -0.2772 -0.0306 -1.8506
 4470TIP3   OH237604   1.793   4.002  11.831  0.1208  0.8285 -0.0281
 4470TIP3    H137605   1.814   3.916  11.797 -1.9017  0.6747 -1.0310
 4470TIP3    H237606   1.820   4.063  11.762 -3.0902  0.5777 -1.7160
 4471TIP3   OH237607   5.012   1.074  11.411  0.0849 -0.4032 -0.0356
 4471TIP3    H137608   5.080   1.113  11.466  1.2160 -1.2720 -0.7809
 4471TIP3    H237609   5.050   0.992  11.380  0.0753  0.6516 -3.1960
 4472TIP3   OH237610   4.035   6.102  10.462  0.0957  0.2297  0.0631
 4472TIP3    H137611   4.010   6.194  10.470 -0.7283 -0.0318  0.6114
 4472TIP3    H237612   4.026   6.067  10.551  0.3655 -0.3955 -0.1475
 4473TIP3   OH237613   5.912   5.863  11.399 -0.3357  0.0097  0.0004
 4473TIP3    H137614   5.837   5.869  11.339  0.1040  0.2145 -0.5315
 4473TIP3    H237615   5.932   5.954  11.421  1.9042  0.2514 -2.5607
 4474TIP3   OH237616   5.252   4.807  12.736  0.4183  0.4342  0.2156
 4474TIP3    H137617   5.213   4.727  12.701  1.7957 -2.0122  3.7971
 4474TIP3    H237618   5.177   4.861  12.763 -0.5129 -0.5016 -0.4412
 4475TIP3   OH237619   1.269   0.728  12.325 -0.1026  0.3377 -0.0017
 4475TIP3    H137620   1.258   0.759  12.415 -1.5629  1.0165 -0.3844
 4475TIP3    H237621   1.203   0.775  12.275  0.5830 -0.1416 -1.4221
 4476TIP3   OH237622   1.379   5.244  10.538 -0.4212  0.2801  0.5205
 4476TIP3    H137623   1.348   5.317  10.484 -2.7282 -0.7880  0.2393
 4476TIP3    H237624   1.305   5.225  10.595  0.3844 -1.3944  1.0591
 4477TIP3   OH237625   0.427   2.303   9.091  0.7268 -0.3750  0.8999
 4477TIP3    H137626   0.417   2.383   9.143 -0.4620  0.9070 -1.1587
 4477TIP3    H237627   0.343   2.293   9.047  1.1399 -2.3266  0.4618
 4478TIP3   OH237628   1.799   4.190  10.132 -0.5018  0.2872  0.0178
 4478TIP3    H137629   1.788   4.112  10.077  0.9675  1.3612 -1.9047
 4478TIP3    H237630   1.739   4.254  10.095  0.5311  1.0388 -0.3906
 4479TIP3   OH237631   1.287   2.046  10.259 -0.5716  0.5036 -0.1960
 4479TIP3    H137632   1.349   2.089  10.200 -0.1151 -1.5332 -1.2604
 4479TIP3    H237633   1.223   2.115  10.280 -0.8756  1.2709 -3.2234
 4480TIP3   OH237634   1.378   5.111  13.261  0.3228 -0.5620  0.3958
 4480TIP3    H137635   1.319   5.035  13.259  0.0624 -0.3562  0.1951
 4480TIP3    H237636   1.329   5.181  13.217  0.8132 -0.4552  0.0123
 4481TIP3   OH237637   5.666   6.135  11.562  0.1036  0.5487 -0.1485
 4481TIP3    H137638   5.611   6.103  11.491 -0.0930  1.9420 -0.6451
 4481TIP3    H237639   5.755   6.110  11.537 -0.0534  0.2657 -0.4410
 4482TIP3   OH237640   4.263   4.734  13.008 -0.0097 -0.5179  0.3130
 4482TIP3    H137641   4.316   4.754  12.931 -0.8262  0.3295 -0.0401
 4482TIP3    H237642   4.266   4.814  13.061 -0.8982 -0.4703  0.3037
 4483TIP3   OH237643   0.369   3.335  12.291  0.4324 -0.1745 -0.0916
 4483TIP3    H137644   0.458   3.310  12.268  0.2594 -0.5144 -0.4081
 4483TIP3    H237645   0.350   3.410  12.235  0.0424 -0.9478 -1.0238
 4484TIP3   OH237646   3.360   2.389  10.153 -0.4339  0.6251  0.0460
 4484TIP3    H137647   3.280   2.397  10.205 -0.2797  1.4852  0.1792
 4484TIP3    H237648   3.333   2.345  10.073 -1.2741  1.8207 -0.3635
 4485TIP3   OH237649   4.472   1.106  12.548  1.0605 -0.0721 -0.7002
 4485TIP3    H137650   4.377   1.120  12.553  1.2749  1.5245 -0.6952
 4485TIP3    H237651   4.507   1.156  12.622  1.9053 -0.8011 -0.5935
 4486TIP3   OH237652   2.653   0.214  12.519 -0.0673  0.0559 -0.0908
 4486TIP3    H137653   2.650   0.181  12.608 -0.6266  0.7363  0.1556
 4486TIP3    H237654   2.561   0.225  12.494  0.0873  0.9775 -0.3181
 4487TIP3   OH237655   1.495   3.014   9.785  0.6494  0.3286 -0.0618
 4487TIP3    H137656   1.567   3.075   9.794  0.1282  1.1152 -1.0042
 4487TIP3    H237657   1.512   2.946   9.850  1.3032  1.4066  0.9248
 4488TIP3   OH237658   1.239   2.430  12.288 -0.1646  0.4003  0.1858
 4488TIP3    H137659   1.256   2.419  12.381 -1.2978  0.2925  0.3967
 4488TIP3    H237660   1.247   2.524  12.273 -0.0925  0.4325  0.4200
 4489TIP3   OH237661   4.157   1.287  11.850 -0.0637 -0.6249 -0.2264
 4489TIP3    H137662   4.160   1.306  11.756  0.9745  0.1539 -0.0485
 4489TIP3    H237663   4.184   1.195  11.857  0.0627 -0.6247 -0.6737
 4490TIP3   OH237664   4.856   0.351  10.963 -0.4483  0.8195  0.1880
 4490TIP3    H137665   4.899   0.324  11.045  1.2433 -0.8755 -1.1673
 4490TIP3    H237666   4.861   0.447  10.964 -1.4539  0.9231  2.5364
 4491TIP3   OH237667   5.470   2.296  11.198 -0.0072  0.1757 -0.2861
 4491TIP3    H137668   5.510   2.210  11.213 -0.2688  0.2188  0.7281
 4491TIP3    H237669   5.390   2.277  11.149  0.2307 -0.1040 -0.5674
 4492TIP3   OH237670   2.431   6.770  12.589  0.0066  0.0636  0.4659
 4492TIP3    H137671   2.426   6.860  12.558  1.5605  0.0954  0.2729
 4492TIP3    H237672   2.368   6.767  12.662  1.2679  1.8334  1.7138
 4493TIP3   OH237673   1.437   0.363  11.767  0.2137 -0.1454 -0.3427
 4493TIP3    H137674   1.419   0.379  11.674 -0.8956 -0.6425 -0.2209
 4493TIP3    H237675   1.469   0.273  11.770 -0.1665 -0.2741 -0.1870
 4494TIP3   OH237676   2.962   3.631   9.631 -0.0648 -0.1430  0.3567
 4494TIP3    H137677   3.045   3.656   9.591  0.2458 -1.1186  0.3704
 4494TIP3    H237678   2.896   3.664   9.569  0.3764 -0.6272 -0.3857
 4495TIP3   OH237679   1.817   2.839  11.570  0.0914 -0.3959 -0.8042
 4495TIP3    H137680   1.780   2.872  11.488 -0.5604 -2.6843 -1.5186
 4495TIP3    H237681   1.859   2.915  11.610 -0.5362  1.0393 -2.7170
 4496TIP3   OH237682   4.444   5.607  12.697 -0.0198  0.4031 -0.4600
 4496TIP3    H137683   4.369   5.563  12.657  1.6378 -0.2266 -3.1962
 4496TIP3    H237684   4.405   5.671  12.757 -2.5695 -2.8223  1.6298
 4497TIP3   OH237685   5.086   3.038  10.631 -0.0347 -0.0663  0.2270
 4497TIP3    H137686   5.149   3.073  10.568  0.6203 -1.4188  0.0758
 4497TIP3    H237687   5.102   3.087  10.712 -0.2771  1.0718 -0.4063
 4498TIP3   OH237688   6.093   3.630  11.520 -0.5890 -0.3396  0.1300
 4498TIP3    H137689   6.101   3.590  11.607  0.8377  0.9334  0.6283
 4498TIP3    H237690   6.157   3.583  11.466  0.4355  0.6447  0.4773
 4499TIP3   OH237691   2.566   5.778  11.276 -0.1939 -0.0189 -1.3530
 4499TIP3    H137692   2.571   5.747  11.185  0.6316 -0.8264 -1.0413
 4499TIP3    H237693   2.546   5.871  11.268 -1.9317 -0.4108 -2.3361
 4500TIP3   OH237694   2.207   1.768  11.072  0.2338 -0.3403 -0.3198
 4500TIP3    H137695   2.226   1.687  11.025  0.1377  0.0569 -1.0726
 4500TIP3    H237696   2.158   1.821  11.008 -0.5834 -0.0891  0.4976
 4501TIP3   OH237697   4.182   1.633  10.872  0.5158 -0.4170 -0.2686
 4501TIP3    H137698   4.211   1.611  10.784  1.0139  0.9003 -0.4671
 4501TIP3    H237699   4.117   1.702  10.859 -0.8930 -1.5868  0.3147
 4502TIP3   OH237700   0.016   4.042  12.945 -0.0611 -0.4478 -0.1476
 4502TIP3    H137701   0.029   3.949  12.931  0.5570 -0.3007 -0.5910
 4502TIP3    H237702  -0.044   4.047  13.019  0.8989 -1.1817  0.7067
 4503TIP3   OH237703   2.427   6.383  11.003 -0.0804 -0.0905 -0.2247
 4503TIP3    H137704   2.369   6.407  10.931  0.0678  0.1417 -0.2669
 4503TIP3    H237705   2.512   6.419  10.979  0.3363 -1.2945 -0.6448
 4504TIP3   OH237706   3.043   6.261  10.987 -0.1409  0.1006  0.3808
 4504TIP3    H137707   2.973   6.208  11.026 -2.4990  1.2602 -1.9596
 4504TIP3    H237708   3.054   6.334  11.047 -1.1961  0.0674  0.6318
 4505TIP3   OH237709   3.717   4.669  10.636  0.1750 -0.0532 -0.5345
 4505TIP3    H137710   3.715   4.609  10.561  0.8400 -0.7393 -0.0207
 4505TIP3    H237711   3.699   4.613  10.711 -3.2318  1.0224 -0.3636
 4506TIP3   OH237712   4.793   1.718  10.106 -0.4758  0.0418  0.1443
 4506TIP3    H137713   4.848   1.769  10.046  0.0087  1.4273  1.6820
 4506TIP3    H237714   4.732   1.671  10.049 -0.3241  1.6291 -1.4093
 4507TIP3   OH237715   1.861   4.445  13.036  0.0507 -0.3807 -0.1983
 4507TIP3    H137716   1.815   4.407  13.110 -0.0334  1.0705  0.5379
 4507TIP3    H237717   1.801   4.511  13.002  0.4788 -0.3654 -0.9466
 4508TIP3   OH237718   6.593   6.729  12.230 -0.4541 -0.0095  0.3453
 4508TIP3    H137719   6.534   6.679  12.287  0.5703  0.8116  2.1814
 4508TIP3    H237720   6.656   6.664  12.199 -0.0161 -0.1761  1.5249
 4509TIP3   OH237721   0.147   2.612  10.480 -0.4692 -0.5119  0.3069
 4509TIP3    H137722   0.125   2.584  10.569 -0.2748 -0.1051  0.4840
 4509TIP3    H237723   0.077   2.673  10.457 -1.0577 -1.3549 -0.1912
 4510TIP3   OH237724   3.982   3.557   9.926  0.1801 -0.0565  0.1332
 4510TIP3    H137725   4.039   3.631   9.904  0.8239 -0.0259  1.7886
 4510TIP3    H237726   4.038   3.480   9.917  0.1655 -0.1296  0.6670
 4511TIP3   OH237727   1.789   1.029  12.711 -0.2714 -1.4617  0.0104
 4511TIP3    H137728   1.785   0.934  12.706 -0.7246 -1.5938  2.0058
 4511TIP3    H237729   1.697   1.057  12.710 -0.1282 -0.8558 -2.4980
 4512TIP3   OH237730   0.969   1.809  12.645  0.2818  0.4699  0.3423
 4512TIP3    H137731   1.007   1.875  12.586  0.1159  0.1864 -0.0910
 4512TIP3    H237732   1.009   1.727  12.616  1.1934  0.4930  1.4772
 4513TIP3   OH237733   2.587   6.745  11.027 -0.5355  0.0484 -0.5414
 4513TIP3    H137734   2.569   6.783  11.113 -0.3216 -0.8406 -0.0939
 4513TIP3    H237735   2.506   6.759  10.977 -0.7950  0.2298 -0.0746
 4514TIP3   OH237736   0.529   6.744   9.853  0.2959 -0.0511 -0.5486
 4514TIP3    H137737   0.477   6.733   9.773  0.4357 -0.5066 -0.5767
 4514TIP3    H237738   0.542   6.656   9.886  1.5970 -0.0200 -0.8874
 4515TIP3   OH237739   0.911   4.453  10.211 -0.7804  0.1374  0.1720
 4515TIP3    H137740   0.939   4.399  10.137  2.9870 -0.6507  1.9167
 4515TIP3    H237741   0.953   4.538  10.197 -2.1193  0.8158  0.1819
 4516TIP3   OH237742   5.056   5.378  11.148  0.2484 -0.2037  0.1885
 4516TIP3    H137743   5.073   5.465  11.183 -0.3988 -1.1623  3.2211
 4516TIP3    H237744   5.138   5.354  11.103  0.7946  1.5603  0.1833
 4517TIP3   OH237745   5.858   0.972  12.332  1.0702 -0.3965  0.2874
 4517TIP3    H137746   5.864   0.898  12.394 -2.2709 -0.6209  0.5223
 4517TIP3    H237747   5.767   1.002  12.340  1.7300  2.3617 -1.4322
 4518TIP3   OH237748   0.259   2.868  10.414  0.2258 -0.2130  0.2558
 4518TIP3    H137749   0.260   2.803  10.484  0.8307  0.4262  0.8537
 4518TIP3    H237750   0.346   2.861  10.374  0.0567 -0.2266 -0.1205
 4519TIP3   OH237751   1.966   2.190  10.949  0.5300  0.4135 -0.2051
 4519TIP3    H137752   1.982   2.145  10.865 -5.2518 -2.6111 -0.1773
 4519TIP3    H237753   1.944   2.280  10.924 -0.9786 -0.3870 -2.0486
 4520TIP3   OH237754   3.870   4.144  13.254  0.4001 -0.0994  0.0172
 4520TIP3    H137755   3.807   4.199  13.300  1.8580  0.1551  1.7833
 4520TIP3    H237756   3.835   4.055  13.263 -0.5168  0.2039 -0.4299
 4521TIP3   OH237757   1.972   6.567  10.769 -0.2241 -0.5116  0.1261
 4521TIP3    H137758   1.962   6.563  10.674  1.3705  0.3487 -0.0934
 4521TIP3    H237759   1.898   6.515  10.802 -2.0876  0.9415 -1.4910
 4522TIP3   OH237760   2.688   6.705  11.647 -0.5083  0.6661  0.0287
 4522TIP3    H137761   2.627   6.777  11.661 -0.0534  0.9109  0.7851
 4522TIP3    H237762   2.768   6.732  11.692 -0.3801 -0.3756  0.4454
 4523TIP3   OH237763   6.712   5.500  12.505  0.1088  0.4456 -0.1124
 4523TIP3    H137764   6.662   5.430  12.547  1.1975 -0.8046 -0.8150
 4523TIP3    H237765   6.648   5.547  12.451 -0.1277 -2.0581 -2.1997
 4524TIP3   OH237766   1.995   6.036  11.139 -0.0327 -0.4120  0.1117
 4524TIP3    H137767   2.035   6.066  11.221  2.5120  0.1781 -1.2169
 4524TIP3    H237768   2.003   5.941  11.141  0.7348 -0.3505  0.2376
 4525TIP3   OH237769   4.151   0.047  10.778 -0.0012  0.0887 -0.6701
 4525TIP3    H137770   4.074   0.099  10.755 -0.5480 -0.7086 -0.6845
 4525TIP3    H237771   4.219   0.078  10.719 -0.4307  0.5020 -0.9576
 4526TIP3   OH237772   3.542   5.856  12.012 -0.3336 -0.1419 -0.0410
 4526TIP3    H137773   3.633   5.880  12.025 -0.6718  0.4742  1.3065
 4526TIP3    H237774   3.507   5.841  12.100 -1.3305 -1.1763 -0.5693
 4527TIP3   OH237775   1.188   1.478  11.193 -0.2135 -0.3081 -0.6502
 4527TIP3    H137776   1.215   1.452  11.282 -0.1587 -0.9317 -0.8425
 4527TIP3    H237777   1.142   1.401  11.160 -2.4833  0.7889 -0.2372
 4528TIP3   OH237778   3.993   4.840  11.379  0.1040  0.6666  0.9842
 4528TIP3    H137779   4.073   4.790  11.397  1.0978  1.9542  0.2757
 4528TIP3    H237780   3.923   4.773  11.376  1.5357 -0.8753 -1.0921
 4529TIP3   OH237781   2.309   3.752  11.399 -0.0972 -1.0217 -0.1467
 4529TIP3    H137782   2.394   3.798  11.401  0.0682 -1.2341  2.8367
 4529TIP3    H237783   2.331   3.660  11.411 -0.6699 -1.3962 -1.7593
 4530TIP3   OH237784   0.720   4.596  11.835  0.0763  0.2522  0.3234
 4530TIP3    H137785   0.800   4.594  11.888  0.2187 -1.5757  0.1072
 4530TIP3    H237786   0.649   4.585  11.899  0.1269 -0.0970  0.3205
 4531TIP3   OH237787   2.223   6.762  12.781 -0.4776 -0.3029 -0.2993
 4531TIP3    H137788   2.173   6.718  12.850 -2.8525  1.5850 -0.6852
 4531TIP3    H237789   2.270   6.832  12.827  1.2621 -1.5521 -0.0686
 4532TIP3   OH237790   0.277   3.052  11.090 -0.2372  0.1622 -0.5571
 4532TIP3    H137791   0.342   3.054  11.020  1.8004 -1.4604  1.1547
 4532TIP3    H237792   0.242   3.141  11.092 -0.4398  0.2558 -3.6145
 4533TIP3   OH237793   4.102   3.715  10.746 -0.0456 -0.0365 -0.0442
 4533TIP3    H137794   4.058   3.695  10.828 -0.4316  0.2962 -0.1650
 4533TIP3    H237795   4.030   3.727  10.683  0.2452 -0.2719 -0.4245
 4534TIP3   OH237796   3.427   3.443  12.588  0.4737  0.0822  0.7644
 4534TIP3    H137797   3.406   3.362  12.634 -0.4451  0.1384  0.4645
 4534TIP3    H237798   3.455   3.503  12.657 -1.3457  0.3164  1.3491
 4535TIP3   OH237799   0.485   3.137  11.318  0.5434  0.0468 -0.5469
 4535TIP3    H137800   0.458   3.206  11.258  3.1249 -0.0807 -1.9970
 4535TIP3    H237801   0.444   3.160  11.401  0.9708  3.1000 -1.0716
 4536TIP3   OH237802   1.442   6.638  11.339  0.1842 -0.0367 -1.1065
 4536TIP3    H137803   1.480   6.624  11.426 -0.4619  0.4859 -0.7300
 4536TIP3    H237804   1.479   6.568  11.285 -0.4672 -1.2095 -0.0768
 4537TIP3   OH237805   1.400   1.784  10.256  0.4839  0.0656  0.2912
 4537TIP3    H137806   1.375   1.731  10.331 -0.4259  1.0038  0.6538
 4537TIP3    H237807   1.372   1.872  10.277  2.3339  0.8036 -0.1424
 4538TIP3   OH237808   5.411   5.634  10.334  0.1986  0.1433  0.2182
 4538TIP3    H137809   5.453   5.616  10.250 -0.2700  1.1936 -0.2656
 4538TIP3    H237810   5.401   5.548  10.375  1.8737 -0.2333 -0.0833
 4539TIP3   OH237811   5.792   4.160  10.071 -0.1638  0.2132 -0.0102
 4539TIP3    H137812   5.872   4.193  10.111  1.1518 -1.3191 -1.2322
 4539TIP3    H237813   5.811   4.157   9.977 -1.2804 -1.1470 -0.2280
 4540TIP3   OH237814   5.372   3.388  11.280  0.8361 -0.3088 -0.0257
 4540TIP3    H137815   5.386   3.459  11.218  1.7257 -1.5387 -1.2851
 4540TIP3    H237816   5.278   3.392  11.301  0.8108  0.9874 -0.3382
 4541TIP3   OH237817   0.216   5.130  11.411  0.3901 -0.2480  0.0193
 4541TIP3    H137818   0.277   5.098  11.478  0.7738 -0.6815 -0.5276
 4541TIP3    H237819   0.130   5.110  11.447  0.6093 -2.4366 -0.5266
 4542TIP3   OH237820   1.716   4.068  12.794 -0.5315  0.4090  0.0011
 4542TIP3    H137821   1.773   4.052  12.869 -1.7046  1.1117  1.0777
 4542TIP3    H237822   1.688   4.159  12.804 -0.9429  0.4174 -1.1267
 4543TIP3   OH237823   5.177   4.381  11.436  0.3102 -0.1636 -0.0903
 4543TIP3    H137824   5.138   4.424  11.513  0.5906  0.6452 -0.3923
 4543TIP3    H237825   5.167   4.445  11.366 -0.0248 -0.9332 -0.7597
 4544TIP3   OH237826   2.888   5.822  11.137 -0.0479  0.4623  0.2112
 4544TIP3    H137827   2.879   5.841  11.230  0.4951 -0.7614  0.5294
 4544TIP3    H237828   2.799   5.810  11.106 -0.3166  1.9564  0.3081
 4545TIP3   OH237829   3.391   1.562  11.162  0.1969  0.2862 -0.1536
 4545TIP3    H137830   3.306   1.526  11.188  0.4507  1.0371  1.8919
 4545TIP3    H237831   3.370   1.642  11.115 -0.2246  0.2154 -0.0916
 4546TIP3   OH237832   5.242   2.735  11.987  0.0830 -0.0873 -0.1167
 4546TIP3    H137833   5.310   2.794  11.952 -0.5027  0.0132 -1.0996
 4546TIP3    H237834   5.201   2.697  11.910 -1.7314  0.6975  0.4277
 4547TIP3   OH237835   6.037   5.846  12.062 -0.2837  0.0379  0.5877
 4547TIP3    H137836   6.098   5.773  12.055 -0.3936  0.0983 -1.8716
 4547TIP3    H237837   6.081   5.909  12.119  1.3603 -0.5034 -0.0269
 4548TIP3   OH237838   0.181   4.433  11.279 -1.1157 -0.3415 -0.1113
 4548TIP3    H137839   0.209   4.523  11.298 -0.8113 -0.2051 -1.1337
 4548TIP3    H237840   0.099   4.423  11.326  0.0400 -0.3589  2.0306
 4549TIP3   OH237841   2.078   2.083  12.507 -0.3119  0.1076  0.7985
 4549TIP3    H137842   2.143   2.138  12.462 -0.6639  0.3977  0.6426
 4549TIP3    H237843   2.015   2.145  12.543 -1.3914 -0.2332 -0.4330
 4550TIP3   OH237844   6.841   1.565  10.475 -0.8014 -0.7678 -0.0805
 4550TIP3    H137845   6.898   1.508  10.527 -1.1775  0.0013  1.2238
 4550TIP3    H237846   6.900   1.613  10.418 -0.2560 -0.8354  0.4178
 4551TIP3   OH237847   2.073   6.434   9.801  0.3020 -0.2377  0.8793
 4551TIP3    H137848   2.153   6.438   9.853  0.8079 -0.1312  0.1064
 4551TIP3    H237849   2.101   6.399   9.717 -0.3004  0.5930  0.3142
 4552TIP3   OH237850   5.907   5.353  11.195 -0.3788  0.0755  0.0222
 4552TIP3    H137851   5.926   5.444  11.172  0.5810  0.7792  3.0541
 4552TIP3    H237852   5.826   5.358  11.246  0.3554 -0.5289  1.3078
 4553TIP3   OH237853   0.118   4.711  10.117  0.0475  0.2691  0.6749
 4553TIP3    H137854   0.107   4.708  10.022 -1.2527  2.0841  0.7080
 4553TIP3    H237855   0.209   4.738  10.130  0.3255 -0.2935 -0.0337
 4554TIP3   OH237856   0.113   3.974  11.201 -0.1033  0.0995  0.5177
 4554TIP3    H137857   0.181   4.004  11.141  0.9100 -0.7264  1.2193
 4554TIP3    H237858   0.153   3.979  11.288 -1.2803  0.5389  1.0667
 4555TIP3   OH237859   3.435   1.110  11.274 -0.2441  0.6375  0.5206
 4555TIP3    H137860   3.444   1.081  11.364  1.4903 -1.9195 -0.3532
 4555TIP3    H237861   3.498   1.057  11.225 -3.0016 -0.1135 -2.6356
 4556TIP3   OH237862   4.615   0.829   9.686 -0.1504  0.3274 -0.2062
 4556TIP3    H137863   4.692   0.793   9.731 -0.1321  3.3712  2.6504
 4556TIP3    H237864   4.651   0.885   9.618  0.1143  0.3013 -0.0908
 4557TIP3   OH237865   2.281   6.292  12.910 -0.6367 -0.8111  0.1759
 4557TIP3    H137866   2.284   6.276  12.816  0.3228  1.3469 -0.2178
 4557TIP3    H237867   2.217   6.362  12.921  1.4656  1.1760  0.6787
 4558TIP3   OH237868   6.673   4.887  12.048  0.5273  0.3256 -0.2047
 4558TIP3    H137869   6.657   4.867  12.141 -0.1271  1.1690 -0.1196
 4558TIP3    H237870   6.620   4.824  12.001  1.4405 -0.5905 -0.0279
 4559TIP3   OH237871   4.525   5.153  10.358  0.4218 -0.7105  0.1461
 4559TIP3    H137872   4.621   5.151  10.358  0.4410 -0.4275 -1.1588
 4559TIP3    H237873   4.502   5.186  10.272 -0.8686 -1.1509  0.3088
 4560TIP3   OH237874   1.358   2.253  10.450 -0.1062  0.1550 -0.2662
 4560TIP3    H137875   1.337   2.234  10.541 -1.9354  0.8966 -0.4952
 4560TIP3    H237876   1.406   2.176  10.419  0.0872 -0.3128  1.1624
 4561TIP3   OH237877   0.439   2.700  12.437  0.2195  0.0093 -0.3511
 4561TIP3    H137878   0.516   2.663  12.478  0.7228 -0.3138 -1.5438
 4561TIP3    H237879   0.366   2.668  12.490  0.6855 -2.1086 -0.8691
 4562TIP3   OH237880   0.037   6.295  12.177 -0.1004 -0.0858  0.4989
 4562TIP3    H137881   0.113   6.328  12.225 -0.7289 -0.1584  1.5793
 4562TIP3    H237882   0.040   6.200  12.189  0.1049 -0.1699 -0.1797
 4563TIP3   OH237883   3.924   5.739   9.844 -0.0459  0.1601  0.2787
 4563TIP3    H137884   3.862   5.783   9.787  0.1050 -1.7285 -1.4739
 4563TIP3    H237885   3.946   5.804   9.911 -2.9986  1.2640  0.3171
 4564TIP3   OH237886   5.770   1.189  11.247 -0.0344  0.1088  0.4440
 4564TIP3    H137887   5.759   1.269  11.196  1.4979 -0.3592 -0.6997
 4564TIP3    H237888   5.857   1.197  11.287  1.1417 -1.8823 -1.4930
 4565TIP3   OH237889   5.194   2.280  11.937  0.3383  0.1567 -0.2848
 4565TIP3    H137890   5.287   2.303  11.924  0.3033  0.9326  0.6927
 4565TIP3    H237891   5.179   2.207  11.878  2.1187 -1.3420  0.9805
 4566TIP3   OH237892   0.958   2.045  10.059 -0.4061 -0.8890  0.0490
 4566TIP3    H137893   1.022   1.984  10.023  1.1363  0.1424  0.9351
 4566TIP3    H237894   0.920   2.088   9.982 -0.1375 -1.6234 -0.5019
 4567TIP3   OH237895   6.602   3.760  12.435 -1.0067 -0.2284  0.5334
 4567TIP3    H137896   6.530   3.731  12.491 -1.6986 -0.8278 -0.6259
 4567TIP3    H237897   6.598   3.855  12.437 -2.3027 -0.2527 -0.0787
 4568TIP3   OH237898   6.556   3.034   9.692  0.7909  0.4556 -0.1273
 4568TIP3    H137899   6.532   3.119   9.654  2.4528  0.0916 -2.1132
 4568TIP3    H237900   6.472   2.990   9.707 -0.0406  1.9219 -0.2693
 4569TIP3   OH237901   4.526   1.910  12.404  0.2256  0.2085 -0.1737
 4569TIP3    H137902   4.547   1.848  12.473 -0.9811 -0.3688 -0.2961
 4569TIP3    H237903   4.608   1.924  12.358  0.4798 -1.5140 -0.2983
 4570TIP3   OH237904   6.126   5.127  10.389  0.0054 -0.2324 -0.1718
 4570TIP3    H137905   6.154   5.104  10.477 -0.2849  1.5753  0.4280
 4570TIP3    H237906   6.060   5.061  10.367 -1.1088  0.2224  1.6282
 4571TIP3   OH237907   1.462   5.426   9.945  0.3353  0.1067  0.6549
 4571TIP3    H137908   1.465   5.519   9.964  0.4502  0.0063  1.1341
 4571TIP3    H237909   1.550   5.394   9.967  0.0217 -0.2810  1.3812
 4572TIP3   OH237910   6.001   6.013  10.449  0.3636  0.1883 -0.1519
 4572TIP3    H137911   6.096   6.006  10.461  0.1953 -3.7420  0.0897
 4572TIP3    H237912   5.990   6.015  10.354  0.6951 -0.7682 -0.2247
 4573TIP3   OH237913   0.254   4.093  10.145  0.0353 -0.2639 -0.5787
 4573TIP3    H137914   0.216   4.139  10.070 -0.7844 -0.1047 -0.0751
 4573TIP3    H237915   0.321   4.153  10.178 -0.5949  0.2955 -0.3096
 4574TIP3   OH237916   5.945   0.761  11.061  0.0317  0.7297 -0.3096
 4574TIP3    H137917   5.941   0.852  11.030 -1.1968  0.7553 -0.1216
 4574TIP3    H237918   5.856   0.728  11.051  0.4402 -0.4267 -0.2602
 4575TIP3   OH237919   3.255   2.113  11.344 -0.2462 -0.1196  0.2028
 4575TIP3    H137920   3.338   2.124  11.298 -0.4004 -0.3945 -0.1460
 4575TIP3    H237921   3.193   2.087  11.276 -0.2546 -1.5404  0.7141
 4576TIP3   OH237922   3.030   0.256  12.769  0.0618  0.3152  0.0714
 4576TIP3    H137923   3.025   0.328  12.706 -1.3334  0.4316  0.2775
 4576TIP3    H237924   2.942   0.220  12.770  0.5434 -0.8785  0.5871
 4577TIP3   OH237925   4.350   2.555  10.891 -0.3569 -0.0864  0.3438
 4577TIP3    H137926   4.271   2.501  10.898  0.4229 -1.5202 -1.3265
 4577TIP3    H237927   4.337   2.606  10.811  1.1394 -1.6611 -0.9641
 4578TIP3   OH237928   6.389   6.421  10.869 -0.0306 -0.2977  0.0017
 4578TIP3    H137929   6.465   6.475  10.889 -0.1179 -0.2530  0.2191
 4578TIP3    H237930   6.424   6.335  10.848  0.0385 -0.4371  0.6892
 4579TIP3   OH237931   4.891   4.663  12.070 -0.1242  0.3296  0.1830
 4579TIP3    H137932   4.898   4.709  12.154  0.3566  0.5853  0.0063
 4579TIP3    H237933   4.947   4.712  12.011 -0.7585  0.3782 -0.3948
 4580TIP3   OH237934   2.949   6.214  10.305  0.2328  0.6028  0.1115
 4580TIP3    H137935   2.913   6.196  10.219 -1.6892 -0.1885  1.0307
 4580TIP3    H237936   3.031   6.163  10.308 -1.0825 -1.6723 -0.2760
 4581TIP3   OH237937   6.300   6.671  10.471 -0.4401 -0.1788  0.1285
 4581TIP3    H137938   6.312   6.726  10.394 -1.0508 -0.8327 -0.4467
 4581TIP3    H237939   6.217   6.700  10.509 -1.0500 -1.0298 -0.4890
 4582TIP3   OH237940   2.883   2.590  11.586  0.3798 -0.3302  0.0062
 4582TIP3    H137941   2.849   2.526  11.649 -1.3542  0.9901  0.4993
 4582TIP3    H237942   2.972   2.608  11.615  0.2217 -1.0848  1.0084
 4583TIP3   OH237943   6.686   6.617  10.778  0.1533  0.8134 -0.4718
 4583TIP3    H137944   6.643   6.700  10.756  1.1685  1.1325 -1.3498
 4583TIP3    H237945   6.690   6.570  10.694 -0.3737 -0.1142  0.0095
 4584TIP3   OH237946   3.055   2.116  10.515 -0.6448 -0.5909 -0.0425
 4584TIP3    H137947   3.140   2.091  10.479 -0.4769 -1.5312  0.9700
 4584TIP3    H237948   3.051   2.211  10.502  0.7144 -0.4768  0.2207
 4585TIP3   OH237949   2.116   4.564  12.385  0.1630  0.5162  0.3391
 4585TIP3    H137950   2.164   4.525  12.312 -1.0320 -0.5106  0.0746
 4585TIP3    H237951   2.055   4.496  12.413 -2.9392  2.5570 -0.9510
 4586TIP3   OH237952   1.281   3.248  13.286 -0.2235 -0.4740  0.3909
 4586TIP3    H137953   1.273   3.164  13.331 -0.1916 -0.5473  0.2610
 4586TIP3    H237954   1.325   3.226  13.203  0.8897 -0.1464  0.8857
 4587TIP3   OH237955   0.156   4.248  10.445  0.1941 -0.1530 -1.1530
 4587TIP3    H137956   0.158   4.332  10.399 -1.4387 -0.7105 -2.3335
 4587TIP3    H237957   0.127   4.271  10.534  0.0594  0.5774 -1.3755
 4588TIP3   OH237958   6.363   3.361  12.863  0.4564 -0.5494  0.0549
 4588TIP3    H137959   6.293   3.307  12.827 -1.2339  0.8712  1.0386
 4588TIP3    H237960   6.411   3.392  12.786  0.5068 -2.1446 -0.5960
 4589TIP3   OH237961   4.323   0.637  10.977 -0.4497  0.0762  0.4443
 4589TIP3    H137962   4.289   0.726  10.979 -2.1616 -0.5555  1.3757
 4589TIP3    H237963   4.266   0.588  11.036  1.5088 -1.2886  1.3163
 4590TIP3   OH237964   3.950   4.035  12.341 -0.2375 -0.5870 -0.2944
 4590TIP3    H137965   4.030   3.998  12.379  0.1984 -0.0545 -0.6815
 4590TIP3    H237966   3.964   4.029  12.246 -1.3463 -1.9790 -0.3947
 4591TIP3   OH237967   3.675   3.113  11.393  0.5166  0.3059  0.3538
 4591TIP3    H137968   3.619   3.039  11.368 -0.1036  0.6191  0.7723
 4591TIP3    H237969   3.758   3.096  11.350 -0.1337  0.2097 -0.9010
 4592TIP3   OH237970   3.669   3.039  12.271  0.4531  0.7814  0.4976
 4592TIP3    H137971   3.650   3.020  12.363 -0.2968  0.5071  0.2935
 4592TIP3    H237972   3.587   3.018  12.225  0.6031  1.5750 -0.1420
 4593TIP3   OH237973   4.229   4.084  11.983 -0.5666 -0.2792  0.3820
 4593TIP3    H137974   4.216   4.148  11.913  2.8784 -0.4639 -0.6162
 4593TIP3    H237975   4.157   4.099  12.044 -1.0582  3.1233 -0.8550
 4594TIP3   OH237976   5.937   6.309  11.205  0.0303  0.0569  0.3596
 4594TIP3    H137977   6.006   6.284  11.144  0.3814 -1.5860  1.3638
 4594TIP3    H237978   5.896   6.385  11.165  0.1261 -1.0579 -2.0333
 4595TIP3   OH237979   2.770   5.839  11.490  0.2124  0.4252 -0.5395
 4595TIP3    H137980   2.759   5.755  11.535  0.9533  0.7539  0.2921
 4595TIP3    H237981   2.687   5.853  11.444  0.4066 -1.2007 -1.4665
 4596TIP3   OH237982   2.896   4.719  11.777  0.1527  0.2192 -0.3851
 4596TIP3    H137983   2.858   4.687  11.859  1.5726 -0.6408 -0.0131
 4596TIP3    H237984   2.840   4.792  11.750 -0.5430  0.2828  1.1610
 4597TIP3   OH237985   3.299   5.850  11.847 -0.5269  0.0520 -0.3986
 4597TIP3    H137986   3.388   5.871  11.878 -0.9898  2.4226 -0.5015
 4597TIP3    H237987   3.311   5.775  11.790  1.4866  0.5309 -0.6796
 4598TIP3   OH237988   0.384   4.861   9.850 -0.3026 -0.3732 -0.1942
 4598TIP3    H137989   0.456   4.922   9.863 -0.3407 -0.4182  0.2346
 4598TIP3    H237990   0.400   4.791   9.913 -0.3646 -0.7104 -0.5487
 4599TIP3   OH237991   3.573   2.047  12.092 -0.3353  0.1154  0.6151
 4599TIP3    H137992   3.544   2.116  12.033 -1.9109 -1.8308 -1.0544
 4599TIP3    H237993   3.662   2.026  12.061 -0.3922  0.4489  0.2080
 4600TIP3   OH237994   6.238   4.739  12.630 -0.2444 -0.2420 -0.3373
 4600TIP3    H137995   6.235   4.658  12.579 -4.0457 -1.7748  1.9155
 4600TIP3    H237996   6.296   4.719  12.704 -0.7638 -0.7745 -0.0622
 4601TIP3   OH237997   1.897   2.668  12.207  0.6276 -0.2231  0.0111
 4601TIP3    H137998   1.857   2.605  12.266  0.3236 -1.3529 -1.3610
 4601TIP3    H237999   1.865   2.753  12.238  1.9322 -0.5603  2.5916
 4602TIP3   OH238000   3.199   2.528  12.560  0.3880 -0.1486  0.2092
 4602TIP3    H138001   3.166   2.482  12.636 -0.7646  1.2703  0.6038
 4602TIP3    H238002   3.246   2.604  12.596  0.1860  0.3111 -0.4717
 4603TIP3   OH238003   5.206   6.392  10.460 -0.7450 -0.2956 -0.3623
 4603TIP3    H138004   5.267   6.319  10.462 -0.6767 -0.2815 -1.3704
 4603TIP3    H238005   5.221   6.439  10.543 -0.4025 -1.0973  0.0342
 4604TIP3   OH238006   1.112   3.644  11.417 -0.1968  0.2612 -0.9582
 4604TIP3    H138007   1.170   3.710  11.379  0.6365 -0.3489 -0.7800
 4604TIP3    H238008   1.107   3.667  11.510  1.9394 -1.1973 -0.4199
 4605TIP3   OH238009   4.791   6.725   9.801 -0.0454  0.8810  0.3130
 4605TIP3    H138010   4.864   6.664   9.802  0.7212  1.6039 -2.3837
 4605TIP3    H238011   4.760   6.728   9.891  2.4208 -0.4312  1.2861
 4606TIP3   OH238012   2.166   5.698  13.048 -0.0871  0.0742 -0.1372
 4606TIP3    H138013   2.119   5.764  12.998 -2.7512 -1.8166 -0.3585
 4606TIP3    H238014   2.115   5.618  13.036  1.7352 -1.5311  1.8993
 4607TIP3   OH238015   5.103   0.731  10.165  0.2947 -0.1387 -0.1116
 4607TIP3    H138016   5.118   0.683  10.083  0.8729 -0.4779  0.1886
 4607TIP3    H238017   5.128   0.821  10.145  0.1343 -0.1561 -0.3965
 4608TIP3   OH238018   0.151   6.310  10.538  0.1968  0.2641  0.3000
 4608TIP3    H138019   0.127   6.346  10.453  2.3979  0.1230 -0.4456
 4608TIP3    H238020   0.150   6.385  10.597 -0.5293  0.5175 -0.0284
 4609TIP3   OH238021   4.542   5.905  11.438  0.1428  0.0216  0.3876
 4609TIP3    H138022   4.449   5.886  11.428  0.0545  0.6063  0.0159
 4609TIP3    H238023   4.576   5.834  11.492 -0.7215  0.3121  1.3559
 4610TIP3   OH238024   4.485   0.801  11.538  0.1860 -0.1236 -0.1692
 4610TIP3    H138025   4.514   0.744  11.467  0.8264  0.3360 -0.2922
 4610TIP3    H238026   4.558   0.802  11.599 -0.4276 -0.6442  0.5808
 4611TIP3   OH238027   2.336   3.807  10.690 -0.3047 -0.1546  0.2917
 4611TIP3    H138028   2.402   3.772  10.749 -2.0349 -2.4061  1.0342
 4611TIP3    H238029   2.324   3.738  10.624 -1.9754  0.1297  0.2542
 4612TIP3   OH238030   1.735   5.137  12.158  0.1961  0.5071  0.6890
 4612TIP3    H138031   1.809   5.193  12.183  1.0439  0.5291 -1.6812
 4612TIP3    H238032   1.775   5.060  12.119 -1.0364  0.4157 -0.4459
 4613TIP3   OH238033   6.423   1.101  10.792  0.5117  0.3111 -0.3902
 4613TIP3    H138034   6.428   1.077  10.885  2.6788  1.4287 -0.1634
 4613TIP3    H238035   6.461   1.189  10.787 -1.7533  1.3017 -2.0291
 4614TIP3   OH238036   4.157   4.419  11.103 -0.2564  0.0466 -0.4094
 4614TIP3    H138037   4.183   4.327  11.110  0.2224  0.2966  2.0415
 4614TIP3    H238038   4.234   4.463  11.067  0.0393 -0.3095 -0.2232
 4615TIP3   OH238039   4.318   0.250  10.675 -0.4207 -0.2912  0.2929
 4615TIP3    H138040   4.292   0.228  10.585  0.5971 -0.2422 -0.0298
 4615TIP3    H238041   4.366   0.173  10.705  2.2255  0.9340 -0.4542
 4616TIP3   OH238042   6.473   0.768  12.012 -0.1942  0.5256 -0.0073
 4616TIP3    H138043   6.426   0.745  12.092 -0.7430 -1.2022 -0.7596
 4616TIP3    H238044   6.488   0.862  12.018 -3.5750  1.1587  0.3951
 4617TIP3   OH238045   2.107   6.053  12.017 -0.3318 -0.1543 -0.2763
 4617TIP3    H138046   2.027   6.069  12.066  0.3741 -0.2154  0.9451
 4617TIP3    H238047   2.134   6.140  11.987 -0.9159 -0.1499 -0.7915
 4618TIP3   OH238048   3.554   4.569  11.563 -0.5318 -0.2065 -0.8510
 4618TIP3    H138049   3.576   4.532  11.477  1.3520  0.7752 -0.8437
 4618TIP3    H238050   3.550   4.493  11.621 -0.6269 -0.7631 -1.5629
 4619TIP3   OH238051   0.996   3.025  10.991 -0.3652 -0.1220  0.4993
 4619TIP3    H138052   1.062   3.082  10.951  1.6621 -2.1040  0.7912
 4619TIP3    H238053   0.956   2.980  10.917 -0.6373  0.2991  0.3861
 4620TIP3   OH238054   4.623   4.028  11.564 -0.3583  0.3779  0.3006
 4620TIP3    H138055   4.568   4.105  11.582 -1.4081 -0.3385  0.2862
 4620TIP3    H238056   4.563   3.966  11.522  0.9347  0.2698 -1.4669
 4621TIP3   OH238057   6.189   3.532  13.008 -0.1048 -0.2767 -0.1394
 4621TIP3    H138058   6.263   3.487  12.967  0.0455 -0.3061  0.1656
 4621TIP3    H238059   6.149   3.467  13.065 -0.9870 -0.5688 -1.0693
 4622TIP3   OH238060   3.931   0.464  12.191  0.0128 -0.4632  0.0978
 4622TIP3    H138061   3.953   0.557  12.187 -0.2901 -0.3832  0.2497
 4622TIP3    H238062   3.867   0.457  12.262 -0.9813 -0.5809 -0.7862
 4623TIP3   OH238063   3.979   5.404  11.795  0.2327 -0.4810 -0.3707
 4623TIP3    H138064   4.026   5.395  11.711 -0.2973  0.3845 -0.7712
 4623TIP3    H238065   3.888   5.418  11.770  0.2003  0.6744  0.3132
 4624TIP3   OH238066   5.585   2.058  12.661 -0.2775  0.0298 -0.4732
 4624TIP3    H138067   5.577   2.051  12.566  0.6945  1.3913 -0.6801
 4624TIP3    H238068   5.552   1.975  12.694 -1.4613 -0.1265 -1.9518
 4625TIP3   OH238069   1.929   6.210   9.946  0.1337 -0.2589  0.4778
 4625TIP3    H138070   1.852   6.264   9.961 -0.5682 -1.1924  0.3217
 4625TIP3    H238071   1.987   6.264   9.893 -0.4591  0.4152  0.5076
 4626TIP3   OH238072   3.774   4.696  11.886  0.4984 -0.0974  0.0595
 4626TIP3    H138073   3.754   4.604  11.905  0.9495 -0.5955 -1.6895
 4626TIP3    H238074   3.870   4.700  11.885  0.4972 -0.0140 -1.5690
 4627TIP3   OH238075   5.494   1.979   9.738 -0.0957  0.9602 -0.0192
 4627TIP3    H138076   5.568   2.016   9.786  0.5105  0.7560 -0.7669
 4627TIP3    H238077   5.506   1.884   9.747 -1.6964  0.8771  1.9749
 4628TIP3   OH238078   0.220   4.174  10.786  0.6754 -0.0169  0.3139
 4628TIP3    H138079   0.301   4.148  10.744  0.8513  3.8963 -2.3492
 4628TIP3    H238080   0.222   4.270  10.786 -2.9480  0.2710  2.2371
 4629TIP3   OH238081   4.130   3.246  11.825 -0.7185 -0.3102  0.2253
 4629TIP3    H138082   4.171   3.160  11.825 -0.2863 -0.1238 -1.1480
 4629TIP3    H238083   4.133   3.275  11.734  2.4795  2.7223  1.0604
 4630TIP3   OH238084   3.463   3.191  11.578 -0.2999  0.1627 -0.1151
 4630TIP3    H138085   3.544   3.196  11.628  0.2133 -2.4014 -0.5736
 4630TIP3    H238086   3.480   3.126  11.510 -2.7018 -0.4484 -0.2272
 4631TIP3   OH238087   1.259   5.747  13.420  0.0238 -0.0157  0.0215
 4631TIP3    H138088   1.264   5.801  13.499 -0.6699 -0.1048  0.1323
 4631TIP3    H238089   1.232   5.808  13.351 -2.1336 -0.4248  0.4105
 4632TIP3   OH238090   0.520   2.819  12.026 -0.2581 -0.0040  0.1366
 4632TIP3    H138091   0.590   2.758  12.006 -1.3707 -1.5591  0.8194
 4632TIP3    H238092   0.479   2.838  11.941  0.7918  0.7373 -0.2326
 4633TIP3   OH238093   2.052   4.859  11.044 -0.2266 -0.1171  0.5919
 4633TIP3    H138094   1.965   4.825  11.065 -0.3935  0.6282  1.1485
 4633TIP3    H238095   2.081   4.902  11.124  0.1071  0.7515  0.0159
 4634TIP3   OH238096   1.447   5.649  13.189 -0.0325 -0.2848 -0.2270
 4634TIP3    H138097   1.374   5.666  13.129 -0.1930 -1.3707 -0.3539
 4634TIP3    H238098   1.405   5.634  13.274  0.1443  0.4681  0.0003
 4635TIP3   OH238099   0.535   1.546  12.292 -0.3999 -0.8964  0.4380
 4635TIP3    H138100   0.489   1.611  12.346 -0.1425 -2.3488  2.5392
 4635TIP3    H238101   0.468   1.481  12.271 -0.4673 -0.4008 -0.9582
 4636TIP3   OH238102   4.435   3.908  12.312  0.1420  0.1418 -0.0965
 4636TIP3    H138103   4.520   3.900  12.267  0.4676  0.8512  0.3704
 4636TIP3    H238104   4.388   3.828  12.288  1.7305 -1.2936  1.2772
 4637TIP3   OH238105   4.216   4.832  10.743  0.6041 -0.1085 -0.2769
 4637TIP3    H138106   4.124   4.847  10.725  0.4553 -0.5409  0.1011
 4637TIP3    H238107   4.232   4.880  10.825  1.2481  1.7658 -1.4393
 4638TIP3   OH238108   3.541   3.403  13.184  0.3491 -0.3833 -0.1796
 4638TIP3    H138109   3.456   3.361  13.197  0.4157 -0.5301 -0.2157
 4638TIP3    H238110   3.523   3.497  13.191  0.3349 -0.4440  0.7115
 4639TIP3   OH238111   3.133   0.554  11.577  0.1548 -0.6882  0.1384
 4639TIP3    H138112   3.200   0.621  11.589  0.4953 -1.1295  0.7339
 4639TIP3    H238113   3.056   0.603  11.549  0.1054  0.0941  1.5247
 4640TIP3   OH238114   2.152   3.081  11.932 -0.1223  0.2645 -0.1023
 4640TIP3    H138115   2.093   3.149  11.964 -0.4788  0.2082 -0.6180
 4640TIP3    H238116   2.141   3.009  11.993 -0.7745  0.1671 -0.3210
 4641TIP3   OH238117   0.881   0.652  13.302  0.2511 -0.0697 -0.1190
 4641TIP3    H138118   0.794   0.692  13.296  0.7178  0.9846 -0.1180
 4641TIP3    H238119   0.863   0.559  13.316 -0.8768  0.2206  0.5549
 4642TIP3   OH238120   1.481   4.285  12.524 -0.0552  0.3906  0.9650
 4642TIP3    H138121   1.551   4.224  12.546 -1.0747 -0.8590  0.8549
 4642TIP3    H238122   1.427   4.291  12.603 -1.3990 -0.8864  0.1876
 4643TIP3   OH238123   3.276   5.137  12.032  0.0512 -0.1340  0.3419
 4643TIP3    H138124   3.196   5.165  12.076  0.6948  0.3292  1.2493
 4643TIP3    H238125   3.309   5.065  12.087 -0.3099 -1.0813 -0.6362
 4644TIP3   OH238126   4.601   4.512  11.579 -0.1795 -0.2085  0.1280
 4644TIP3    H138127   4.643   4.566  11.513 -1.9098  1.7125  0.5167
 4644TIP3    H238128   4.663   4.510  11.652  0.0901  0.9216 -0.0629
 4645TIP3   OH238129   5.403   1.592  11.561 -0.0113  0.1822  0.5694
 4645TIP3    H138130   5.371   1.525  11.502 -1.0895  1.8578 -0.8206
 4645TIP3    H238131   5.498   1.579  11.563 -0.0672 -0.5213 -0.7362
 4646TIP3   OH238132   5.128   0.562  11.426  0.1434 -0.0638  0.2872
 4646TIP3    H138133   5.119   0.483  11.372 -0.5935  1.4834 -2.0133
 4646TIP3    H238134   5.212   0.552  11.471  1.3945 -0.9440 -2.0826
 4647TIP3   OH238135   5.033   4.537  13.014  0.2166  0.2658 -0.2918
 4647TIP3    H138136   5.011   4.608  13.074  1.0774  2.5881 -2.5606
 4647TIP3    H238137   5.126   4.548  12.995  0.5536 -1.9150 -0.2505
 4648TIP3   OH238138   5.495   1.391  11.372  0.1038 -0.1350  1.0421
 4648TIP3    H138139   5.420   1.334  11.392 -0.8510  1.3317  1.8535
 4648TIP3    H238140   5.566   1.358  11.427  0.5713 -2.4629 -0.7882
 4649TIP3   OH238141   6.682   1.196  11.024  0.3292  0.0995  0.1044
 4649TIP3    H138142   6.712   1.106  11.008  0.4977 -0.1851  1.8500
 4649TIP3    H238143   6.623   1.189  11.098 -0.8479  1.2496 -0.6876
 4650TIP3   OH238144   3.359   6.297  12.068 -0.0260  0.3509  0.3941
 4650TIP3    H138145   3.311   6.244  12.132  0.1062  0.8717  0.9210
 4650TIP3    H238146   3.445   6.256  12.064 -0.1976 -0.0019  0.1499
 4651TIP3   OH238147   0.780   2.290  10.153 -0.5821  0.6872  0.4534
 4651TIP3    H138148   0.856   2.348  10.157 -1.1767  1.6617 -1.3202
 4651TIP3    H238149   0.792   2.240  10.072 -1.8818  0.9721  0.0589
 4652TIP3   OH238150   6.220   5.414  12.193 -0.5847  0.1608  0.2328
 4652TIP3    H138151   6.139   5.387  12.237 -2.0559  0.7437 -1.9616
 4652TIP3    H238152   6.240   5.341  12.134  0.2063  0.2709  0.3526
 4653TIP3   OH238153   4.409   5.582  10.153  0.1962  0.3112  0.0068
 4653TIP3    H138154   4.364   5.497  10.151  2.0262 -0.6998 -0.3633
 4653TIP3    H238155   4.410   5.610  10.061  2.1402 -0.7235 -0.3342
 4654TIP3   OH238156   4.509   1.255  12.783 -0.9375  0.3793 -0.0569
 4654TIP3    H138157   4.527   1.184  12.844 -1.3443  0.6860  0.4276
 4654TIP3    H238158   4.461   1.320  12.834 -2.1739  0.2020 -0.9427
 4655TIP3   OH238159   0.289   3.715  11.370  0.1121  0.5150 -0.0302
 4655TIP3    H138160   0.362   3.662  11.402 -0.3998  0.4556  1.0758
 4655TIP3    H238161   0.326   3.765  11.297  0.9693 -0.3097 -0.1868
 4656TIP3   OH238162   4.814   4.876  13.134  0.0213  0.3019  0.0826
 4656TIP3    H138163   4.739   4.842  13.085  1.8922 -1.4179 -1.8194
 4656TIP3    H238164   4.817   4.969  13.112 -1.1297  0.2492 -0.3688
 4657TIP3   OH238165   5.024   5.155  12.920 -0.2657 -0.0645  0.1315
 4657TIP3    H138166   4.957   5.221  12.904  0.3551  0.5002 -0.1728
 4657TIP3    H238167   5.107   5.202  12.911  0.1738 -0.5289  1.4375
 4658TIP3   OH238168   1.590   4.828  10.137 -0.2647 -0.3304 -0.2091
 4658TIP3    H138169   1.611   4.763  10.070  2.5260 -0.7714  0.9551
 4658TIP3    H238170   1.633   4.908  10.109 -0.2851 -0.1168  0.3522
 4659TIP3   OH238171   2.243   5.520  11.637  0.3826  0.9473  0.1400
 4659TIP3    H138172   2.277   5.567  11.560  0.3979  0.7346  0.0155
 4659TIP3    H238173   2.321   5.502  11.690  0.5063  0.2342 -0.2682
 4660TIP3   OH238174   3.042   4.740  12.499 -0.2237  0.1163  0.0647
 4660TIP3    H138175   3.112   4.775  12.554 -0.6936  0.6101  0.3598
 4660TIP3    H238176   3.084   4.720  12.416 -0.2736  3.1191 -0.7668
 4661TIP3   OH238177   0.163   0.500  12.785  0.0133  0.6497  0.6943
 4661TIP3    H138178   0.145   0.587  12.821  2.4274  1.1866  0.7787
 4661TIP3    H238179   0.218   0.517  12.708 -0.7761 -0.7564 -0.2440
 4662TIP3   OH238180   4.025   4.452  11.352 -0.7319  0.2310 -0.1578
 4662TIP3    H138181   4.052   4.417  11.267  0.8657 -0.6962  0.6895
 4662TIP3    H238182   4.074   4.534  11.360 -1.0550  0.4315 -0.2173
 4663TIP3   OH238183   3.280   0.839  12.631 -0.0017 -0.2246  1.0091
 4663TIP3    H138184   3.239   0.757  12.605  0.9135 -0.4743  0.3007
 4663TIP3    H238185   3.373   0.826  12.613  0.0745  1.2258  0.2232
 4664TIP3   OH238186   5.074   5.052  12.297  0.5181 -0.2759  0.0031
 4664TIP3    H138187   5.093   5.028  12.387  1.2791 -0.5483 -0.2284
 4664TIP3    H238188   5.154   5.093  12.264  0.0543  0.3641 -0.3694
 4665TIP3   OH238189   5.978   1.483  12.538  0.0064 -0.1018  0.1018
 4665TIP3    H138190   5.953   1.495  12.446  1.0671 -0.3437 -0.2381
 4665TIP3    H238191   6.061   1.434  12.534 -0.6413 -1.3674  1.2308
 4666TIP3   OH238192   2.933   3.589  11.020  0.2756 -0.4676  0.2432
 4666TIP3    H138193   3.003   3.626  11.073 -0.2420  0.8401  0.0523
 4666TIP3    H238194   2.966   3.589  10.931  0.1654 -0.1662  0.2003
 4667TIP3   OH238195   0.369   2.644  12.983 -0.2752 -0.5658  0.4080
 4667TIP3    H138196   0.295   2.603  12.938  1.1349 -2.4649 -0.2964
 4667TIP3    H238197   0.372   2.602  13.069 -0.3466 -0.0616  0.6641
 4668TIP3   OH238198   5.731   1.840  10.867 -0.6240 -0.4144 -0.2090
 4668TIP3    H138199   5.805   1.810  10.815  0.3710  2.2414 -0.4737
 4668TIP3    H238200   5.766   1.856  10.954 -1.1289 -0.1928 -0.0363
 4669TIP3   OH238201   1.098   0.909  12.198  0.5153 -0.2727 -0.5131
 4669TIP3    H138202   1.127   0.998  12.176  0.8097 -0.3706 -0.5150
 4669TIP3    H238203   1.027   0.891  12.136  0.0965  0.1640 -0.1685
 4670TIP3   OH238204   3.684   2.752  11.087  0.2451 -0.0037  0.0839
 4670TIP3    H138205   3.757   2.757  11.025  1.5973  0.7999  1.6527
 4670TIP3    H238206   3.649   2.841  11.091 -0.7982 -0.3615 -0.5774
 4671TIP3   OH238207   3.988   2.509  12.442 -0.0732 -0.2112 -0.6038
 4671TIP3    H138208   3.910   2.460  12.418 -1.8482  1.1291  1.9296
 4671TIP3    H238209   4.039   2.515  12.362 -3.2182 -0.0090 -2.7411
 4672TIP3   OH238210   1.336   0.732  11.662 -0.4651 -0.0967 -0.1577
 4672TIP3    H138211   1.296   0.650  11.690  0.9424 -1.3611 -1.6758
 4672TIP3    H238212   1.382   0.764  11.739 -0.4504 -1.1046  0.2636
 4673TIP3   OH238213   3.074   6.638  12.703 -0.2729 -0.6900  0.4115
 4673TIP3    H138214   3.025   6.690  12.639  1.0314 -0.5779 -0.5370
 4673TIP3    H238215   3.093   6.699  12.774 -1.4908 -0.7419  0.8122
 4674TIP3   OH238216   6.517   6.173  10.810 -0.0640  0.0185  0.0269
 4674TIP3    H138217   6.521   6.137  10.722 -0.4258  0.8856 -0.3525
 4674TIP3    H238218   6.605   6.157  10.846  0.5533  0.9192 -0.9989
 4675TIP3   OH238219   1.281   3.548  12.782  1.0863  0.5489  0.2088
 4675TIP3    H138220   1.336   3.598  12.721  0.1054  1.8489  0.3538
 4675TIP3    H238221   1.287   3.458  12.751  1.4416  1.0261 -1.1729
 4676TIP3   OH238222   0.197   1.374  10.791 -0.2102 -0.0718 -0.4319
 4676TIP3    H138223   0.143   1.445  10.827  2.3798  2.6161 -1.4225
 4676TIP3    H238224   0.229   1.408  10.708  0.2412 -2.9629 -1.5698
 4677TIP3   OH238225   1.850   6.662  10.256  0.3000 -0.2267  0.0750
 4677TIP3    H138226   1.884   6.679  10.169  0.2815  0.3922  0.1875
 4677TIP3    H238227   1.846   6.748  10.298 -2.0421 -0.1589 -0.1701
 4678TIP3   OH238228   2.085   0.667   9.394  0.0668 -0.0932  0.1371
 4678TIP3    H138229   2.121   0.602   9.454  0.8475  2.2019  2.3833
 4678TIP3    H238230   2.161   0.710   9.357 -0.2490  2.0162  1.7020
 4679TIP3   OH238231   6.845   3.781  12.998  0.8008 -0.0156  0.2248
 4679TIP3    H138232   6.867   3.692  12.969 -1.5402 -0.2242 -1.1694
 4679TIP3    H238233   6.767   3.770  13.052  0.6108  1.1678  0.2184
 4680TIP3   OH238234   3.378   0.620  11.029  0.1234  0.1078 -0.2848
 4680TIP3    H138235   3.309   0.684  11.049  1.1032  1.6468 -1.5905
 4680TIP3    H238236   3.345   0.537  11.065 -1.9091  1.0088  0.0667
 4681TIP3   OH238237   5.629   2.210  10.227  0.4945 -0.4226  0.2738
 4681TIP3    H138238   5.574   2.138  10.195  1.5137 -1.0722 -0.0840
 4681TIP3    H238239   5.666   2.176  10.309  2.0535 -0.8638 -0.5887
 4682TIP3   OH238240   2.509   6.014  10.258  0.0757 -0.4877  0.0963
 4682TIP3    H138241   2.546   5.931  10.287  0.5513 -0.3219 -0.0197
 4682TIP3    H238242   2.576   6.051  10.200  0.2684  0.3975  0.8586
 4683TIP3   OH238243   0.615   0.484   9.867  0.1602  0.0957  0.4102
 4683TIP3    H138244   0.658   0.429   9.932  0.9258 -0.4560 -0.5271
 4683TIP3    H238245   0.522   0.476   9.886  0.2560 -1.4850  0.3595
 4684TIP3   OH238246   1.424   1.046  13.260 -0.4540  0.2321 -0.1001
 4684TIP3    H138247   1.372   1.086  13.191 -1.6471  0.7459  1.0665
 4684TIP3    H238248   1.381   1.071  13.342  0.5046 -0.9414  0.8185
 4685TIP3   OH238249   1.130   5.218  10.707 -0.0888 -0.2294  1.0680
 4685TIP3    H138250   1.143   5.170  10.788  2.7437  1.7438  1.9048
 4685TIP3    H238251   1.131   5.310  10.732 -2.8442  0.4545 -0.7964
 4686TIP3   OH238252   4.540   1.015  10.624 -0.2493 -0.2575 -0.1010
 4686TIP3    H138253   4.579   0.955  10.560  2.2147  0.9318  0.1814
 4686TIP3    H238254   4.531   1.098  10.578 -1.1010 -0.1160  0.2974
 4687TIP3   OH238255   5.405   2.539  12.877 -0.5556 -0.2626  0.2170
 4687TIP3    H138256   5.355   2.621  12.874  2.0967  1.4453 -2.3016
 4687TIP3    H238257   5.496   2.566  12.890  0.0876 -3.1237  2.8649
 4688TIP3   OH238258   0.640   3.925  11.597  0.6775  0.0895  1.0339
 4688TIP3    H138259   0.569   3.864  11.617  1.7362 -2.0468 -1.2104
 4688TIP3    H238260   0.596   4.001  11.559 -0.5351 -0.1685  1.8593
 4689TIP3   OH238261   2.975   3.435  13.185  0.4466 -0.0191  0.0868
 4689TIP3    H138262   2.890   3.463  13.219  0.8470  0.1712  0.9546
 4689TIP3    H238263   3.016   3.516  13.154  0.4322 -0.0690 -0.0642
 4690TIP3   OH238264   3.188   6.697  10.289  0.2711  0.7276  0.1947
 4690TIP3    H138265   3.248   6.756  10.335  0.3527  1.5510 -0.9135
 4690TIP3    H238266   3.238   6.616  10.278  0.4347  0.7042  1.0786
 4691TIP3   OH238267   6.178   5.031  12.240 -0.4886 -0.9693 -0.1659
 4691TIP3    H138268   6.112   5.043  12.172  1.6424 -1.0848 -2.3906
 4691TIP3    H238269   6.239   5.105  12.228 -0.1989 -0.8307  1.8345
 4692TIP3   OH238270   5.392   3.876  10.908  0.0566  0.2563 -0.0176
 4692TIP3    H138271   5.338   3.881  10.987 -0.9604 -2.3006 -0.4697
 4692TIP3    H238272   5.335   3.838  10.842  1.9603 -1.2115 -0.9245
 4693TIP3   OH238273   3.581   0.918  13.250 -0.3155 -0.5030 -0.1452
 4693TIP3    H138274   3.489   0.920  13.224 -0.2519  0.1658 -0.3413
 4693TIP3    H238275   3.607   1.010  13.254  0.0798 -0.6415  0.8757
 4694TIP3   OH238276   1.126   4.377  11.986 -0.4125 -0.6690  0.0912
 4694TIP3    H138277   1.169   4.432  11.919  1.3544 -1.8985  0.1355
 4694TIP3    H238278   1.129   4.430  12.065  2.6474 -1.2502  0.5098
 4695TIP3   OH238279   2.691   5.526  10.935 -0.4297 -0.2120  0.2540
 4695TIP3    H138280   2.676   5.478  10.854 -1.6663  1.0628 -0.3211
 4695TIP3    H238281   2.786   5.526  10.946 -0.3203 -1.6676 -0.3773
 4696TIP3   OH238282   5.103   6.748  11.768  0.0913 -0.3148 -0.0859
 4696TIP3    H138283   5.144   6.690  11.704  0.4671 -0.4529  0.2794
 4696TIP3    H238284   5.075   6.824  11.716 -0.9015 -1.0539 -0.6580
 4697TIP3   OH238285   2.845   0.174  10.641 -0.4352  0.5161 -0.0106
 4697TIP3    H138286   2.822   0.259  10.601 -1.2421  0.2230 -0.1857
 4697TIP3    H238287   2.863   0.195  10.733 -0.6003  0.8816 -0.0576
 4698TIP3   OH238288   3.692   2.735  12.972 -0.2634  0.2058 -0.5306
 4698TIP3    H138289   3.638   2.687  12.910 -0.6615 -1.6169  1.0971
 4698TIP3    H238290   3.650   2.820  12.980 -2.3199 -0.7864 -0.1136
 4699TIP3   OH238291   6.732   4.401  10.451  0.7620  0.2983  0.2924
 4699TIP3    H138292   6.802   4.463  10.433  0.2573  0.7623 -0.1434
 4699TIP3    H238293   6.702   4.423  10.539  1.0967  0.1603  0.4418
 4700TIP3   OH238294   3.746   0.336  12.805  0.0086  0.1672  0.5689
 4700TIP3    H138295   3.841   0.343  12.801 -0.1637  2.7525 -0.6036
 4700TIP3    H238296   3.714   0.426  12.796 -2.6257 -0.8833 -2.6321
 4701TIP3   OH238297   3.935   2.095  10.776  0.3248  0.4164  0.2738
 4701TIP3    H138298   3.849   2.095  10.818  0.8333 -2.1014  1.5283
 4701TIP3    H238299   3.996   2.114  10.847  0.8936  1.0047 -0.3624
 4702TIP3   OH238300   0.219   3.531  10.662 -0.1188 -0.5839 -0.0033
 4702TIP3    H138301   0.157   3.602  10.652  0.8516  0.0785 -1.8455
 4702TIP3    H238302   0.277   3.559  10.733  0.0636  0.3619 -0.5028
 4703TIP3   OH238303   2.081   3.332  10.502  0.1542  0.1518 -0.7157
 4703TIP3    H138304   2.099   3.272  10.430 -1.1311  2.2047 -2.8979
 4703TIP3    H238305   2.083   3.419  10.462 -1.6261  1.3309  1.5056
 4704TIP3   OH238306   0.542   4.974  12.078 -0.1390 -0.3463  0.2065
 4704TIP3    H138307   0.556   4.948  12.169 -0.7314  0.0521  0.4192
 4704TIP3    H238308   0.479   4.910  12.044 -0.3548 -0.1577  0.2494
 4705TIP3   OH238309   6.199   1.571  12.350 -0.0506 -0.4818  0.1088
 4705TIP3    H138310   6.128   1.587  12.288  1.0024  2.8752 -0.4351
 4705TIP3    H238311   6.229   1.482  12.330 -1.1063 -0.2828 -2.7697
 4706TIP3   OH238312   6.108   1.146  12.749  0.4378  0.2867  0.0234
 4706TIP3    H138313   6.093   1.144  12.843  0.3108  0.3352  0.0030
 4706TIP3    H238314   6.021   1.152  12.710  0.5214  0.9269 -0.0785
 4707TIP3   OH238315   2.038   4.833  12.899 -0.3087  0.1427 -0.0333
 4707TIP3    H138316   2.093   4.770  12.946  0.2855  0.5766 -0.1319
 4707TIP3    H238317   2.048   4.809  12.807  0.4512  0.7808 -0.1289
 4708TIP3   OH238318   2.498   0.859  10.047  0.6606  0.3011 -0.3814
 4708TIP3    H138319   2.476   0.782  10.100  3.1426  0.1222  0.5281
 4708TIP3    H238320   2.442   0.928  10.082 -1.1153 -0.8653 -0.7419
 4709TIP3   OH238321   0.319   2.557  11.489  0.3729 -0.4168 -0.7965
 4709TIP3    H138322   0.380   2.618  11.447 -0.1925  0.2852 -0.6160
 4709TIP3    H238323   0.307   2.488  11.424  1.5412 -0.6940 -0.7428
 4710TIP3   OH238324   1.027   6.629  11.870 -0.2288 -0.0910 -0.2681
 4710TIP3    H138325   0.980   6.579  11.936 -1.6769  3.0498  1.2947
 4710TIP3    H238326   1.106   6.659  11.914  0.0874 -0.1092 -0.8149
 4711TIP3   OH238327   6.221   4.412   9.889 -0.3619 -0.0785 -0.3567
 4711TIP3    H138328   6.270   4.329   9.891  1.7036  1.0817 -0.5403
 4711TIP3    H238329   6.216   4.438   9.981 -0.8263 -0.2742 -0.3210
 4712TIP3   OH238330   2.852   4.264  13.055  0.2621  0.4960 -0.5651
 4712TIP3    H138331   2.945   4.285  13.049  0.2059  0.8960 -0.0631
 4712TIP3    H238332   2.847   4.170  13.037  0.6459  0.6666 -1.6310
 4713TIP3   OH238333   3.190   0.169  10.841 -0.1493  0.0482 -0.5441
 4713TIP3    H138334   3.109   0.140  10.883  0.1437  0.0008 -0.0086
 4713TIP3    H238335   3.173   0.159  10.747  0.1931 -2.5893 -0.4008
 4714TIP3   OH238336   2.950   3.983  12.066 -0.2029  0.2834 -0.0329
 4714TIP3    H138337   2.951   3.935  12.149 -1.2421 -0.0386 -0.1976
 4714TIP3    H238338   2.858   4.001  12.050 -0.0779 -0.2898 -1.4882
 4715TIP3   OH238339   6.458   6.587  11.468 -0.1020  0.2623  0.2076
 4715TIP3    H138340   6.443   6.664  11.523  1.7376  0.5456  0.3528
 4715TIP3    H238341   6.484   6.519  11.530  0.8692  0.2661 -0.1847
 4716TIP3   OH238342   1.414   4.322  12.992 -0.8878 -0.6763 -0.5149
 4716TIP3    H138343   1.460   4.366  13.063  0.0551 -0.5481 -1.1819
 4716TIP3    H238344   1.461   4.239  12.981 -1.0780 -0.7307 -0.9290
 4717TIP3   OH238345   6.757   1.844  12.633 -0.3868  0.0890  0.5371
 4717TIP3    H138346   6.670   1.825  12.599 -0.2818  0.3752  0.0982
 4717TIP3    H238347   6.754   1.937  12.656  0.5340  0.7725 -1.8025
 4718TIP3   OH238348   6.425   2.111  11.286  0.2019  0.4872 -0.2345
 4718TIP3    H138349   6.439   2.020  11.313  2.7680  0.6494 -0.7421
 4718TIP3    H238350   6.475   2.163  11.349  1.2696  1.2828 -1.6755
 4719TIP3   OH238351   2.013   2.739  13.118 -0.2633 -0.2430 -0.0115
 4719TIP3    H138352   2.017   2.803  13.190  1.3653 -1.6646  1.2460
 4719TIP3    H238353   2.033   2.790  13.040 -0.9691  1.1379  0.6657
 4720TIP3   OH238354   6.731   1.870  11.547 -0.4122  0.3407  0.2013
 4720TIP3    H138355   6.695   1.910  11.626 -0.3026  0.9112 -0.0314
 4720TIP3    H238356   6.813   1.829  11.575  0.8450  2.5514 -0.0468
 4721TIP3   OH238357   6.054   2.163  10.573  0.0514  0.0525 -0.3409
 4721TIP3    H138358   6.002   2.242  10.559  0.0194  0.1432  0.2557
 4721TIP3    H238359   6.144   2.189  10.552  0.2127  0.5681  0.9080
 4722TIP3   OH238360   3.981   3.163   9.623  0.6312  0.3878 -0.1197
 4722TIP3    H138361   4.060   3.188   9.670  0.2619 -0.0410  0.7576
 4722TIP3    H238362   3.953   3.082   9.666  0.0572  0.2094 -0.8216
 4723TIP3   OH238363   4.862   1.088  11.183  0.0919 -0.2868  0.2542
 4723TIP3    H138364   4.926   1.145  11.140  0.0148 -0.9095 -0.7008
 4723TIP3    H238365   4.893   1.084  11.274  1.7685 -1.0472 -0.3081
 4724TIP3   OH238366   3.747   6.381  10.015  0.1662  0.0367  0.2505
 4724TIP3    H138367   3.680   6.377   9.946  0.3873  1.4090 -0.0570
 4724TIP3    H238368   3.774   6.290  10.026 -0.9446 -0.4009 -0.4125
 4725TIP3   OH238369   4.722   2.651  12.532 -1.0669 -0.7100 -0.3902
 4725TIP3    H138370   4.701   2.614  12.446  0.3073 -0.4174 -0.8772
 4725TIP3    H238371   4.711   2.745  12.520  0.7301 -0.5059 -0.7745
 4726TIP3   OH238372   3.136   6.545  11.742 -0.6537  0.2034 -0.0441
 4726TIP3    H138373   3.212   6.488  11.745  0.0569  1.1120  3.6376
 4726TIP3    H238374   3.069   6.499  11.794 -1.1485  1.2733  0.2919
 4727TIP3   OH238375   4.210   2.520  11.771  0.1585 -0.6190 -0.8921
 4727TIP3    H138376   4.265   2.586  11.728  1.0171 -1.9678 -1.9754
 4727TIP3    H238377   4.268   2.444  11.781 -0.4654 -0.8629  1.3579
 4728TIP3   OH238378   2.600   6.580  12.066  0.2862 -0.0267 -0.0510
 4728TIP3    H138379   2.521   6.595  12.118 -0.4068 -0.6097 -0.9091
 4728TIP3    H238380   2.573   6.519  11.998  1.5461 -0.4360 -0.2127
 4729TIP3   OH238381   1.931   5.800  10.835  0.5612  1.0297  0.0154
 4729TIP3    H138382   1.911   5.892  10.852  0.1628  1.1741 -1.1268
 4729TIP3    H238383   1.854   5.752  10.865  0.7155  1.0767  0.4936
 4730TIP3   OH238384   0.723   6.395  10.666  0.1691  0.1290  0.1568
 4730TIP3    H138385   0.755   6.352  10.587  0.5911  0.6382  0.0458
 4730TIP3    H238386   0.690   6.324  10.721  1.9177 -0.4809  0.4752
 4731TIP3   OH238387   0.280   5.872  11.108  0.2947 -0.2691  0.0755
 4731TIP3    H138388   0.310   5.815  11.037 -0.5884  0.6333 -1.0541
 4731TIP3    H238389   0.241   5.948  11.064  1.6303  1.3449  1.5312
 4732TIP3   OH238390   1.534   4.188  10.774 -0.1136  0.5149  0.2066
 4732TIP3    H138391   1.454   4.160  10.819  0.0234  2.0002  1.4412
 4732TIP3    H238392   1.505   4.253  10.710 -0.1423 -0.6498 -1.0197
 4733TIP3   OH238393   4.863   3.705  11.564 -0.3581 -0.3861 -0.3487
 4733TIP3    H138394   4.813   3.653  11.501  0.9121 -1.0927 -0.8094
 4733TIP3    H238395   4.808   3.782  11.580 -2.4338 -1.9852  0.6050
 4734TIP3   OH238396   2.672   0.678  12.313  0.3944 -0.5653  0.4357
 4734TIP3    H138397   2.609   0.723  12.368  0.0935 -0.4427 -0.0037
 4734TIP3    H238398   2.641   0.587  12.310 -1.7786  0.1327 -2.5406
 4735TIP3   OH238399   1.559   3.721  11.529 -0.0640 -0.3514  0.7058
 4735TIP3    H138400   1.482   3.764  11.568 -1.5286 -1.0272 -1.2753
 4735TIP3    H238401   1.586   3.657  11.595 -0.9069  0.1938  1.6214
 4736TIP3   OH238402   2.901   1.604  10.377  0.3436  0.1575  0.0331
 4736TIP3    H138403   2.807   1.624  10.383  0.4599  0.8277 -0.2898
 4736TIP3    H238404   2.938   1.677  10.327  0.7205 -1.0646 -1.5571
 4737TIP3   OH238405   3.430   5.423  10.334  0.1366  0.4188  0.2096
 4737TIP3    H138406   3.421   5.334  10.369  1.1865 -0.9062 -2.5849
 4737TIP3    H238407   3.500   5.417  10.270  0.5662  3.4324  0.2455
 4738TIP3   OH238408   5.297   3.155  10.518  0.1482 -0.6688 -0.4085
 4738TIP3    H138409   5.263   3.245  10.516 -1.5488 -1.2788 -0.7547
 4738TIP3    H238410   5.380   3.162  10.565  0.2714  1.1460 -0.8212
 4739TIP3   OH238411   1.760   6.701  12.389 -0.1412  0.0002 -0.4789
 4739TIP3    H138412   1.792   6.746  12.310  1.2436  1.4191  0.8300
 4739TIP3    H238413   1.836   6.697  12.447 -0.6190 -2.7580  0.0877
 4740TIP3   OH238414   0.538   6.045  11.462  0.1417 -0.6750  0.0936
 4740TIP3    H138415   0.609   6.048  11.526 -0.7023 -0.5172  1.0549
 4740TIP3    H238416   0.502   6.134  11.463  0.3011 -0.5956 -0.8207
 4741TIP3   OH238417   3.695   0.294  12.294  0.1108  0.4102 -0.5194
 4741TIP3    H138418   3.657   0.262  12.213  1.7439 -0.5485 -0.9642
 4741TIP3    H238419   3.721   0.215  12.342 -0.6034  0.9639  0.8345
 4742TIP3   OH238420   2.919   5.065  12.086 -0.3073  0.4915  0.2556
 4742TIP3    H138421   2.851   4.999  12.101 -0.7606  0.9120  0.0538
 4742TIP3    H238422   2.872   5.144  12.062  0.2168  1.0065  0.8797
 4743TIP3   OH238423   6.802   4.376  11.422  0.1740  0.4834 -0.5727
 4743TIP3    H138424   6.708   4.358  11.433  0.6931 -1.5668  0.9038
 4743TIP3    H238425   6.834   4.389  11.511  1.6333 -0.6669 -0.9120
 4744TIP3   OH238426   5.519   1.042  11.276  0.0180  0.3494  0.1115
 4744TIP3    H138427   5.571   1.116  11.308  0.7135  0.1103 -0.4221
 4744TIP3    H238428   5.575   0.966  11.290  0.8781  0.3629 -2.6965
 4745TIP3   OH238429   5.696   6.737  11.728 -0.2535 -0.4905 -0.2745
 4745TIP3    H138430   5.790   6.756  11.723 -0.0427 -1.4432 -0.1210
 4745TIP3    H238431   5.676   6.744  11.822 -0.3761 -0.1375 -0.3240
 4746TIP3   OH238432   5.494   0.429  11.771  0.4903  0.6543  0.5748
 4746TIP3    H138433   5.483   0.518  11.803  0.0410  0.9354 -0.3044
 4746TIP3    H238434   5.548   0.438  11.692 -0.0279  0.2298  0.1557
 4747TIP3   OH238435   3.559   0.159  12.687 -0.3867  0.0948 -0.1882
 4747TIP3    H138436   3.499   0.233  12.675  1.4538  1.4167 -1.8173
 4747TIP3    H238437   3.637   0.197  12.727 -0.3740 -1.4883  1.3911
 4748TIP3   OH238438   6.288   6.521  11.232 -0.1940  0.0987 -0.4477
 4748TIP3    H138439   6.341   6.488  11.305  0.6467  1.6370 -0.3131
 4748TIP3    H238440   6.281   6.615  11.248  0.2816  0.5364 -2.4884
 4749TIP3   OH238441   1.117   5.794  12.000  0.0128 -0.0534  0.1784
 4749TIP3    H138442   1.062   5.840  11.936 -0.0309  0.7908  0.7984
 4749TIP3    H238443   1.057   5.775  12.073  0.3005 -0.0347  0.4214
 4750TIP3   OH238444   2.390   0.666  11.546  0.0387  0.3496  0.1335
 4750TIP3    H138445   2.386   0.659  11.642  4.4860 -2.3194  0.4052
 4750TIP3    H238446   2.408   0.759  11.530  0.9724  0.5619  2.0664
 4751TIP3   OH238447   6.633   1.489  11.948  0.1236 -0.3666  0.1092
 4751TIP3    H138448   6.634   1.517  12.039 -1.0295  3.0608 -0.7949
 4751TIP3    H238449   6.547   1.450  11.936  0.4764 -1.3329  0.5420
 4752TIP3   OH238450   2.956   0.471  12.629 -0.5895  0.3185  0.0413
 4752TIP3    H138451   3.042   0.508  12.614 -0.1272 -1.5467 -2.3859
 4752TIP3    H238452   2.903   0.503  12.556 -1.0548 -1.1139 -0.2709
 4753TIP3   OH238453   1.100   3.449  11.936  0.0570 -0.0386  0.0596
 4753TIP3    H138454   1.080   3.450  12.030 -1.1275  1.1539 -0.1706
 4753TIP3    H238455   1.112   3.541  11.913 -0.2360 -0.2642 -1.0628
 4754TIP3   OH238456   0.045   4.621  12.635 -0.0660 -0.0643 -0.1118
 4754TIP3    H138457   0.044   4.680  12.560 -1.4867 -1.0125 -0.8743
 4754TIP3    H238458   0.133   4.583  12.634  0.8469  1.8877  0.3361
 4755TIP3   OH238459   2.872   4.529  12.613 -0.0143 -0.1158  0.0637
 4755TIP3    H138460   2.780   4.524  12.588 -0.0823 -0.6606  0.4141
 4755TIP3    H238461   2.902   4.611  12.574 -1.2148  1.2118  1.7916
 4756TIP3   OH238462   1.298   6.027  13.196 -0.0119  0.7909  0.2276
 4756TIP3    H138463   1.369   6.087  13.173 -0.8270  1.2386 -1.2104
 4756TIP3    H238464   1.218   6.079  13.186 -0.7885 -0.6579 -1.6276
 4757TIP3   OH238465   5.254   5.649   9.678  0.0207  0.4307 -0.1467
 4757TIP3    H138466   5.339   5.604   9.685  0.2001  0.8820  0.7666
 4757TIP3    H238467   5.273   5.728   9.627  0.6776  1.6886  1.9112
 4758TIP3   OH238468   3.993   1.833  12.310  0.0574 -0.2537 -0.0890
 4758TIP3    H138469   4.042   1.772  12.255 -1.5228 -1.3151 -0.4191
 4758TIP3    H238470   4.010   1.919  12.272  2.2446 -0.4525  0.3066
 4759TIP3   OH238471   1.748   3.874  12.208  0.5053  0.1170 -0.2213
 4759TIP3    H138472   1.761   3.823  12.128  1.7157  0.7804 -0.4700
 4759TIP3    H238473   1.834   3.911  12.228 -0.3033  2.0395 -0.0380
 4760TIP3   OH238474   6.329   3.273  13.295 -0.1029  0.4024  0.0858
 4760TIP3    H138475   6.414   3.297  13.258  0.0815  0.2924  0.4280
 4760TIP3    H238476   6.348   3.197  13.350 -0.5601 -0.1184 -0.4523
 4761TIP3   OH238477   4.686   0.231  11.611  0.2952 -0.0317 -0.6318
 4761TIP3    H138478   4.609   0.281  11.635  0.0785 -0.9489  0.6833
 4761TIP3    H238479   4.672   0.145  11.650  1.8322 -0.3123 -0.6287
 4762TIP3   OH238480   1.910   5.401   9.755 -0.2861  0.0759  0.0179
 4762TIP3    H138481   1.873   5.484   9.786  0.4093  0.0542  0.9550
 4762TIP3    H238482   1.860   5.334   9.802  0.1815  0.0160  0.4389
 4763TIP3   OH238483   3.705   1.496  11.464 -0.2641  0.0993 -0.1238
 4763TIP3    H138484   3.618   1.513  11.500 -0.9653 -2.2805 -0.5274
 4763TIP3    H238485   3.693   1.419  11.409  2.0339 -0.0422 -0.5033
 4764TIP3   OH238486   4.812   0.186  10.404  0.6319 -0.4317  0.7268
 4764TIP3    H138487   4.731   0.192  10.456  2.7942  0.6773  4.3829
 4764TIP3    H238488   4.812   0.097  10.370 -2.1210 -0.4443  0.5124
 4765TIP3   OH238489   6.517   0.921  10.442  0.0780  0.1545  0.2447
 4765TIP3    H138490   6.545   0.835  10.409  0.2662  0.0038  0.7814
 4765TIP3    H238491   6.572   0.936  10.519 -0.1978  0.5975  0.3570
 4766TIP3   OH238492   6.388   2.416  11.996  0.0131 -0.0469 -0.4986
 4766TIP3    H138493   6.418   2.507  11.985  0.8015 -0.2797 -0.3803
 4766TIP3    H238494   6.435   2.384  12.073 -0.8283 -0.3311 -0.0935
 4767TIP3   OH238495   1.030   4.699  11.544  0.3083 -0.5397  0.2283
 4767TIP3    H138496   0.949   4.728  11.585 -1.0183 -0.9706 -1.9568
 4767TIP3    H238497   1.005   4.623  11.491  1.9589 -0.2312 -1.0969
 4768TIP3   OH238498   2.365   4.781  12.767 -0.1367 -0.0781 -0.4754
 4768TIP3    H138499   2.366   4.699  12.717 -0.3400 -0.0117 -0.5917
 4768TIP3    H238500   2.453   4.817  12.755  0.2554 -0.7442  0.3647
 4769TIP3   OH238501   1.181   4.353   9.474  0.2285 -0.2353 -0.0148
 4769TIP3    H138502   1.141   4.306   9.400 -1.9914  2.9586 -1.0803
 4769TIP3    H238503   1.258   4.394   9.436 -0.1380  0.2695 -0.2341
 4770TIP3   OH238504   5.061   3.820   9.356 -0.4504  0.0840 -0.0483
 4770TIP3    H138505   5.000   3.784   9.420  0.4564 -2.5578 -0.5224
 4770TIP3    H238506   5.147   3.814   9.398 -0.0513 -0.0815 -0.8500
 4771TIP3   OH238507   1.021   0.262  10.375  0.1576  0.1524 -0.5634
 4771TIP3    H138508   0.958   0.220  10.434  1.3480 -0.3167  0.4176
 4771TIP3    H238509   1.003   0.356  10.384 -0.7329 -0.0010 -0.6914
 4772TIP3   OH238510   2.349   4.776  10.718  0.4502  0.5256 -0.3297
 4772TIP3    H138511   2.393   4.784  10.802  1.2238 -3.5063 -0.1509
 4772TIP3    H238512   2.271   4.724  10.736  0.8957 -0.8661 -2.1071
 4773TIP3   OH238513   4.054   2.162  11.291  0.3642 -0.3079 -0.2461
 4773TIP3    H138514   3.999   2.115  11.353  0.2273  0.4412  0.2099
 4773TIP3    H238515   4.141   2.164  11.332  0.5394 -0.7623 -0.5839
 4774TIP3   OH238516   5.394   0.090  11.244  0.4567  0.4032  0.0723
 4774TIP3    H138517   5.408   0.177  11.207  0.6611  0.1242 -0.5127
 4774TIP3    H238518   5.325   0.102  11.309  2.1745  1.5010  1.8051
 4775TIP3   OH238519   1.712   2.856  12.003 -0.2349 -0.1455 -0.3854
 4775TIP3    H138520   1.796   2.815  11.984 -0.0773 -1.2371  2.2372
 4775TIP3    H238521   1.734   2.938  12.048 -0.5591 -0.1922 -0.1339
 4776TIP3   OH238522   0.782   0.177  10.959  0.2135 -0.3649  0.4607
 4776TIP3    H138523   0.690   0.200  10.975  0.3927 -0.0467  1.0980
 4776TIP3    H238524   0.825   0.260  10.941  0.3299 -0.5457 -0.1113
 4777TIP3   OH238525   0.567   2.786   9.560 -0.1052  0.0607 -0.0991
 4777TIP3    H138526   0.537   2.741   9.639  0.3751  1.7777  1.1107
 4777TIP3    H238527   0.581   2.877   9.587  1.8307  0.3094 -1.7212
 4778TIP3   OH238528   1.646   1.212  12.226  0.1587 -0.0210  0.1302
 4778TIP3    H138529   1.724   1.265  12.209 -0.2252  1.0413  1.5071
 4778TIP3    H238530   1.668   1.159  12.302 -1.5753  2.9811  2.9966
 4779TIP3   OH238531   3.603   2.537  11.929 -0.4327 -0.6037  0.0445
 4779TIP3    H138532   3.551   2.493  11.862 -0.2884 -0.0791 -0.4218
 4779TIP3    H238533   3.681   2.482  11.939 -0.1277 -0.3247 -0.7267
 4780TIP3   OH238534   6.469   1.714  12.972  0.3712 -0.5380  0.1716
 4780TIP3    H138535   6.529   1.789  12.977 -1.0069  0.8696 -2.2357
 4780TIP3    H238536   6.383   1.754  12.962 -0.5068 -2.4749 -0.3936
 4781TIP3   OH238537   6.039   5.086  11.469  0.0229  0.4625  0.6514
 4781TIP3    H138538   6.078   5.129  11.393 -2.1218 -0.6892 -1.1924
 4781TIP3    H238539   6.039   4.993  11.447 -1.1121  0.1490  1.8331
 4782TIP3   OH238540   3.972   2.187  12.892 -0.2621  0.3607 -0.0867
 4782TIP3    H138541   3.879   2.203  12.877 -0.0333  1.6303 -0.2352
 4782TIP3    H238542   4.016   2.230  12.819  0.4691  0.2887  0.3005
 4783TIP3   OH238543   5.779   5.917  12.386 -0.1933  0.2104 -0.0088
 4783TIP3    H138544   5.709   5.912  12.451  0.2730  1.0794  0.5855
 4783TIP3    H238545   5.800   6.010  12.381  0.4547  0.0378 -0.6782
 4784TIP3   OH238546   4.682   2.266  13.108 -0.5393 -0.4646 -0.7047
 4784TIP3    H138547   4.735   2.191  13.133 -0.4386  0.3876  1.9091
 4784TIP3    H238548   4.595   2.248  13.143 -0.4217  0.7554  0.3024
 4785TIP3   OH238549   1.907   1.511  11.990  0.1197  0.0128  0.1949
 4785TIP3    H138550   1.908   1.454  11.912 -0.0387 -0.7789  0.7579
 4785TIP3    H238551   1.955   1.589  11.963 -0.7087  0.1437 -0.9909
 4786TIP3   OH238552   3.242   2.942  10.551  0.4081 -0.5874 -0.2305
 4786TIP3    H138553   3.337   2.939  10.539  0.6059 -0.4563  1.2047
 4786TIP3    H238554   3.216   3.025  10.512  1.0757  0.0024  0.5277
 4787TIP3   OH238555   4.005   5.590  10.757  0.1268 -0.1694  0.3926
 4787TIP3    H138556   4.043   5.517  10.708  0.0444  0.3097 -0.4154
 4787TIP3    H238557   3.916   5.562  10.778 -0.4063  0.2447 -1.1842
 4788TIP3   OH238558   4.767   1.695  12.347  0.1403 -0.3831 -0.0247
 4788TIP3    H138559   4.787   1.789  12.341  0.5804 -0.3930  0.9870
 4788TIP3    H238560   4.825   1.663  12.416 -1.6905 -0.9171  1.3418
 4789TIP3   OH238561   4.271   5.205  12.137 -0.3863  0.0047  0.5366
 4789TIP3    H138562   4.259   5.150  12.060 -1.0870 -0.3779  0.9115
 4789TIP3    H238563   4.184   5.212  12.176 -0.5576  2.3966 -0.1511
 4790TIP3   OH238564   5.783   6.157  11.032  0.1772  0.6206 -0.7478
 4790TIP3    H138565   5.840   6.200  11.096  1.0545  0.3055 -1.2951
 4790TIP3    H238566   5.816   6.187  10.947 -1.6858  1.9477 -1.0709
 4791TIP3   OH238567   1.109   3.573   9.904  0.5083  0.3182  0.5833
 4791TIP3    H138568   1.200   3.573   9.934  1.0230 -1.4039 -0.7707
 4791TIP3    H238569   1.084   3.665   9.904  1.5917  0.6920  2.8027
 4792TIP3   OH238570   2.620   5.778  11.018  0.1480 -0.2789  0.0547
 4792TIP3    H138571   2.647   5.698  10.974  0.6393  0.1408 -0.4141
 4792TIP3    H238572   2.529   5.790  10.991  0.4592  0.0079 -0.9079
 4793TIP3   OH238573   3.634   3.007  12.789 -0.2732 -0.0263  0.2754
 4793TIP3    H138574   3.697   3.009  12.861  0.4124 -1.6298 -0.2323
 4793TIP3    H238575   3.584   3.088  12.798  3.1299  2.4063 -0.4308
 4794TIP3   OH238576   1.393   0.411  10.784  0.1646 -0.5656 -0.3256
 4794TIP3    H138577   1.358   0.400  10.872 -0.8623  0.8847 -0.5331
 4794TIP3    H238578   1.382   0.325  10.743  0.6228 -1.2452  0.9206
 4795TIP3   OH238579   1.950   2.832  10.743  0.2316 -0.0083 -0.2254
 4795TIP3    H138580   1.906   2.791  10.669 -1.1145  0.9189  0.0451
 4795TIP3    H238581   2.013   2.892  10.704  0.1976 -0.2231 -0.6099
 4796TIP3   OH238582   5.745   2.203  12.088  0.0900 -0.5387  0.3402
 4796TIP3    H138583   5.785   2.267  12.147 -1.9059  0.0319  1.1714
 4796TIP3    H238584   5.718   2.131  12.145 -0.7315 -0.5551 -0.0453
 4797TIP3   OH238585   2.438   2.478  11.803  0.2428  0.1087 -0.2716
 4797TIP3    H138586   2.348   2.506  11.818  0.7207  1.3247  0.4778
 4797TIP3    H238587   2.484   2.500  11.884  1.0968 -1.0494 -0.4106
 4798TIP3   OH238588   2.245   4.322  12.759  0.5801  0.2310  0.7629
 4798TIP3    H138589   2.209   4.239  12.728  2.2643 -0.1423 -0.3733
 4798TIP3    H238590   2.194   4.344  12.837 -1.6382 -0.5168 -0.3953
 4799TIP3   OH238591   2.407   0.526  12.096 -0.4126 -0.3399  0.3427
 4799TIP3    H138592   2.462   0.569  12.031 -1.4039  1.0457  0.3711
 4799TIP3    H238593   2.356   0.597  12.135 -0.9475 -1.3446  1.5533
 4800TIP3   OH238594   5.433   1.865  11.379  0.6407 -0.1040  0.6415
 4800TIP3    H138595   5.478   1.840  11.460  0.6230 -2.2201  0.0604
 4800TIP3    H238596   5.458   1.797  11.317 -0.6571  0.5787 -0.6749
 4801TIP3   OH238597   6.487   4.718  10.582 -0.1217 -0.3180 -0.4763
 4801TIP3    H138598   6.560   4.662  10.609  1.2393  0.9212 -1.4412
 4801TIP3    H238599   6.428   4.660  10.535  1.2048 -0.9719 -1.3730
 4802TIP3   OH238600   1.073   2.589  11.772  0.3080  0.0754 -1.1962
 4802TIP3    H138601   1.130   2.666  11.766 -0.1911  0.5219 -0.3215
 4802TIP3    H238602   1.128   2.516  11.740  0.0339  1.1216 -4.4144
 4803TIP3   OH238603   2.135   1.596  10.015 -0.1648 -0.0384  0.4081
 4803TIP3    H138604   2.206   1.659  10.003 -1.0909  0.9071 -0.3492
 4803TIP3    H238605   2.132   1.547   9.932  0.2503 -0.7859  0.8202
 4804TIP3   OH238606   1.505   6.369  11.342  0.2767  0.2166  0.1277
 4804TIP3    H138607   1.459   6.294  11.378  1.8428  0.5570  3.1191
 4804TIP3    H238608   1.583   6.378  11.396  0.8032  3.2465 -0.9301
 4805TIP3   OH238609   2.146   5.217  10.952  0.1303  0.6308  0.4546
 4805TIP3    H138610   2.078   5.282  10.935  0.3498  0.1976 -2.5684
 4805TIP3    H238611   2.116   5.138  10.906  2.6660  0.4658 -1.1005
 4806TIP3   OH238612   2.496   0.630  12.828 -0.6669 -0.0480 -0.1544
 4806TIP3    H138613   2.474   0.723  12.823  0.8756  0.7316  3.9437
 4806TIP3    H238614   2.591   0.627  12.823 -0.6625 -1.3308  0.2781
 4807TIP3   OH238615   4.171   2.968  12.200 -0.1923 -0.4527  0.0691
 4807TIP3    H138616   4.106   3.038  12.193  0.0276 -0.2471  0.0608
 4807TIP3    H238617   4.215   2.984  12.283 -0.8087 -1.1668  0.5360
 4808TIP3   OH238618   4.348   1.910  12.711  0.1321 -0.2370 -0.2129
 4808TIP3    H138619   4.385   1.908  12.799 -1.2694 -2.3242  0.4097
 4808TIP3    H238620   4.407   1.854  12.659 -0.5504 -1.2640  0.0968
 4809TIP3   OH238621   5.507   3.348  10.886 -1.2442 -0.1623 -0.1697
 4809TIP3    H138622   5.520   3.265  10.933  0.6878  1.0214  1.5530
 4809TIP3    H238623   5.519   3.325  10.794  0.4242 -1.6177  0.3541
 4810TIP3   OH238624   3.272   2.619  11.393  0.2020 -0.2274  0.3066
 4810TIP3    H138625   3.292   2.622  11.486 -0.9756  2.4455  0.5476
 4810TIP3    H238626   3.246   2.708  11.370 -0.1167 -0.9237 -2.4668
 4811TIP3   OH238627   0.818   3.584  11.356 -0.4348 -0.1679 -0.1649
 4811TIP3    H138628   0.793   3.557  11.268 -0.8033 -1.9675  0.4517
 4811TIP3    H238629   0.806   3.506  11.410 -2.1502  1.3949  1.8828
 4812TIP3   OH238630   0.716   0.017  11.676  0.0932 -0.6519 -0.6699
 4812TIP3    H138631   0.694   0.109  11.659  1.1531 -0.6309 -2.0821
 4812TIP3    H238632   0.794   0.001  11.623  0.4591 -2.1258  0.2694
 4813TIP3   OH238633   5.971   3.130  11.818 -0.0324 -0.0461 -0.4166
 4813TIP3    H138634   6.063   3.155  11.807 -0.2935  0.3043 -2.0106
 4813TIP3    H238635   5.973   3.036  11.834  0.6195  0.0361  0.0280
 4814TIP3   OH238636   1.197   2.710  12.264 -0.2167  0.3947 -0.5057
 4814TIP3    H138637   1.135   2.770  12.223  0.2559  1.5051  0.3642
 4814TIP3    H238638   1.276   2.762  12.278  0.4267 -0.6039 -0.2962
 4815TIP3   OH238639   3.946   3.625  11.012 -0.7474  0.1217 -0.1257
 4815TIP3    H138640   3.916   3.536  10.993 -1.5220  0.2764  0.3316
 4815TIP3    H238641   3.955   3.626  11.108 -1.3605  0.7203 -0.0696
 4816TIP3   OH238642   0.427   1.737  10.305  0.0162  0.4633  0.6563
 4816TIP3    H138643   0.408   1.686  10.227 -2.8409  0.7576  1.0750
 4816TIP3    H238644   0.412   1.676  10.378 -0.5734  1.0868  1.0673
 4817TIP3   OH238645   0.231   4.233  12.491 -0.4032 -0.0654 -0.2052
 4817TIP3    H138646   0.306   4.291  12.501  1.3353 -1.7573 -2.5472
 4817TIP3    H238647   0.230   4.181  12.572  1.3259 -0.4161 -0.3846
 4818TIP3   OH238648   6.770   4.863  11.148  0.2785  0.0516  0.4688
 4818TIP3    H138649   6.706   4.921  11.109 -1.8358 -0.0754  3.4135
 4818TIP3    H238650   6.850   4.916  11.155 -0.7376  1.6241  0.4926
 4819TIP3   OH238651   5.537   0.969  12.765  0.1255  0.0167  0.2880
 4819TIP3    H138652   5.529   1.033  12.836 -0.8722 -0.1433  0.3318
 4819TIP3    H238653   5.467   0.991  12.704 -0.7024 -1.4414  0.6535
 4820TIP3   OH238654   5.421   4.475  10.258  0.4147 -0.5582 -0.1542
 4820TIP3    H138655   5.489   4.434  10.205  1.3665 -0.1063  0.6912
 4820TIP3    H238656   5.432   4.569  10.244 -0.9476 -0.5020 -1.0908
 4821TIP3   OH238657   0.663   5.628  11.091  0.2873  0.7072  0.3540
 4821TIP3    H138658   0.578   5.627  11.047  0.5111  0.3806 -0.0742
 4821TIP3    H238659   0.662   5.708  11.144 -0.7458  0.1173  1.2634
 4822TIP3   OH238660   5.888   3.388  11.915  0.1874  0.0240 -0.4301
 4822TIP3    H138661   5.930   3.305  11.892 -0.1024 -0.4854  0.7970
 4822TIP3    H238662   5.943   3.424  11.984 -0.1172  0.4920 -0.4280
 4823TIP3   OH238663   5.869   3.806   9.262 -0.3600  0.7478 -0.7701
 4823TIP3    H138664   5.846   3.859   9.186 -0.5359  1.5850 -0.1377
 4823TIP3    H238665   5.953   3.840   9.291  0.2964 -0.3559 -1.2829
 4824TIP3   OH238666   2.152   0.950  10.141 -0.6153  0.1359  0.1093
 4824TIP3    H138667   2.118   0.996  10.064  1.1958  0.2895 -0.6508
 4824TIP3    H238668   2.236   0.993  10.160 -0.3117 -0.8955  1.2396
 4825TIP3   OH238669   4.519   6.019  12.536 -0.7239 -1.0733  0.5069
 4825TIP3    H138670   4.423   6.016  12.535 -0.7145 -1.5403  0.9970
 4825TIP3    H238671   4.541   6.086  12.471 -1.3306 -2.0087 -0.6982
 4826TIP3   OH238672   2.364   5.537  12.478 -0.1533 -0.1696  0.0485
 4826TIP3    H138673   2.387   5.499  12.563 -0.0102  0.1174  0.1413
 4826TIP3    H238674   2.351   5.462  12.421  2.4313 -0.3808 -0.3992
 4827TIP3   OH238675   1.590   0.322  12.476  0.7663  0.0497  0.6397
 4827TIP3    H138676   1.534   0.371  12.536 -0.0683  0.0266 -0.0831
 4827TIP3    H238677   1.547   0.237  12.467 -0.6793  0.9260 -1.9958
 4828TIP3   OH238678   6.278   6.041  10.832  0.1712  0.2093  1.0014
 4828TIP3    H138679   6.316   5.954  10.832  0.8255  0.4947  1.3285
 4828TIP3    H238680   6.337   6.094  10.778 -0.2484  0.4401  0.7614
 4829TIP3   OH238681   2.671   6.118  11.437  0.3159 -0.8562  0.2371
 4829TIP3    H138682   2.656   6.188  11.374  0.3537 -0.5412  0.5749
 4829TIP3    H238683   2.759   6.135  11.472  1.0047 -1.9945 -0.8452
 4830TIP3   OH238684   5.067   2.521  10.126  0.0183  0.2780 -0.0069
 4830TIP3    H138685   5.119   2.446  10.097  0.1078  0.8555 -1.4398
 4830TIP3    H238686   5.016   2.545  10.049 -2.3208 -0.1799  1.3063
 4831TIP3   OH238687   5.511   5.998  11.347 -0.1370  0.0150  0.0155
 4831TIP3    H138688   5.461   5.926  11.385  1.1411 -0.5992  0.6069
 4831TIP3    H238689   5.586   5.955  11.306  0.1186  0.9407 -0.5131
 4832TIP3   OH238690   5.085   2.666  10.358  0.1054  0.0932 -0.5454
 4832TIP3    H138691   5.162   2.718  10.334 -0.0594 -0.5836 -2.7659
 4832TIP3    H238692   5.092   2.587  10.305 -1.0923 -0.9161  0.7147
 4833TIP3   OH238693   3.261   3.417  11.785  0.1399  0.6270 -0.3280
 4833TIP3    H138694   3.222   3.450  11.704 -1.1421  0.9685  0.4008
 4833TIP3    H238695   3.202   3.446  11.854 -0.2353 -1.8780  0.5084
 4834TIP3   OH238696   4.581   5.482  11.992 -0.7706  0.3502  0.1715
 4834TIP3    H138697   4.642   5.451  11.925 -0.4979 -0.2262  0.6741
 4834TIP3    H238698   4.619   5.564  12.023 -0.9516  0.6711 -0.4472
 4835TIP3   OH238699   1.862   5.813  11.655  0.2534  0.2510  0.0077
 4835TIP3    H138700   1.870   5.791  11.748  0.8651  2.4285  0.5470
 4835TIP3    H238701   1.951   5.805  11.621  0.0365 -0.5053 -0.3905
 4836TIP3   OH238702   5.620   3.567  12.601 -0.3392 -0.1923 -0.2377
 4836TIP3    H138703   5.543   3.616  12.572  0.3778  0.9246 -0.2958
 4836TIP3    H238704   5.633   3.501  12.533 -1.7696 -0.9978  0.2193
 4837TIP3   OH238705   3.615   1.160  12.375  0.2729  0.2567 -0.1734
 4837TIP3    H138706   3.604   1.195  12.286 -1.0558 -0.8482 -0.4799
 4837TIP3    H238707   3.588   1.232  12.432 -1.2271  0.1995 -0.7606
 4838TIP3   OH238708   0.963   5.962  11.828 -0.5404 -0.4292 -0.9313
 4838TIP3    H138709   0.977   5.969  11.734  1.6909  2.2085 -0.5114
 4838TIP3    H238710   0.928   6.047  11.854 -0.5584 -0.8952  0.7179
 4839TIP3   OH238711   5.812   3.104  12.749  0.3819  0.0237  0.1390
 4839TIP3    H138712   5.783   3.193  12.770  0.8639  0.0922  0.5313
 4839TIP3    H238713   5.905   3.104  12.770  0.3193 -0.6573  0.4215
 4840TIP3   OH238714   1.961   0.361  11.327  0.2043  0.4556  0.0447
 4840TIP3    H138715   1.982   0.268  11.317  0.3783  0.3746  1.0628
 4840TIP3    H238716   1.981   0.381  11.419  0.8656  1.6716 -0.3257
 4841TIP3   OH238717   0.540   4.992  10.314 -0.8531  0.4153 -0.0053
 4841TIP3    H138718   0.550   5.065  10.253 -1.6851  0.6277  0.1009
 4841TIP3    H238719   0.576   4.917  10.268  1.4670  1.1423  0.4552
 4842TIP3   OH238720   2.347   6.659  11.892 -0.4764  0.1555  0.0215
 4842TIP3    H138721   2.388   6.572  11.894 -0.9648 -0.0664  1.2380
 4842TIP3    H238722   2.324   6.673  11.800 -0.9287 -1.2640 -0.1018
 4843TIP3   OH238723   4.943   5.572  10.113  0.0215  0.2057 -0.2119
 4843TIP3    H138724   4.905   5.487  10.137 -1.2515  0.7707 -0.1339
 4843TIP3    H238725   5.021   5.550  10.063  0.3116 -1.0107  0.7054
 4844TIP3   OH238726   3.510   0.485  12.279  0.0114 -0.3945  0.3840
 4844TIP3    H138727   3.556   0.548  12.224  0.5138 -0.3503  0.8442
 4844TIP3    H238728   3.576   0.419  12.301 -0.1642 -0.3864  0.9680
 4845TIP3   OH238729   4.862   2.771  11.805 -0.1727 -0.0568  0.3949
 4845TIP3    H138730   4.823   2.822  11.734 -0.6227  1.6738  1.8070
 4845TIP3    H238731   4.872   2.683  11.769  1.6254  1.2096 -2.5202
 4846TIP3   OH238732   2.504   0.052  11.695 -0.4442  0.0786  0.0467
 4846TIP3    H138733   2.538   0.027  11.781 -1.2118  0.8340  0.5930
 4846TIP3    H238734   2.525   0.145  11.688  0.4579 -0.1911 -1.0091
 4847TIP3   OH238735   3.620   2.684  10.610  0.3445 -0.1390  0.2760
 4847TIP3    H138736   3.597   2.637  10.690  2.4010 -1.1864  0.3247
 4847TIP3    H238737   3.645   2.615  10.548 -0.2570  0.7095 -0.9427
 4848TIP3   OH238738   2.404   1.966  11.051 -0.3949 -0.2742 -0.1656
 4848TIP3    H138739   2.350   1.893  11.081  0.0658 -0.5646 -0.0252
 4848TIP3    H238740   2.434   2.008  11.132  0.1908 -0.5659 -0.2277
 4849TIP3   OH238741   1.376   0.203  11.533  0.2194  0.3376 -0.4255
 4849TIP3    H138742   1.323   0.138  11.579 -0.2193  1.0672  0.1354
 4849TIP3    H238743   1.434   0.152  11.477 -0.9428 -0.5012 -0.9109
 4850TIP3   OH238744   3.836   5.717  11.344  0.4262  0.1259 -0.1429
 4850TIP3    H138745   3.777   5.721  11.419 -0.0138 -0.1662 -0.4659
 4850TIP3    H238746   3.862   5.625  11.339 -0.1066  0.0065 -0.7692
 4851TIP3   OH238747   4.276   1.615  10.619 -0.0104 -0.6324 -1.2794
 4851TIP3    H138748   4.238   1.693  10.577  1.5527  0.7088 -0.3277
 4851TIP3    H238749   4.370   1.629  10.614  0.2631 -1.5490  0.5937
 4852TIP3   OH238750   4.552   0.827  10.140  0.0012  0.5053  0.7215
 4852TIP3    H138751   4.609   0.750  10.126  0.5942  0.6583  2.1830
 4852TIP3    H238752   4.499   0.831  10.060  2.2151  0.5141 -0.8694
 4853TIP3   OH238753   2.416   1.805  10.357 -0.3589 -0.1174 -0.3836
 4853TIP3    H138754   2.324   1.784  10.343 -0.2714 -0.5489 -0.3292
 4853TIP3    H238755   2.415   1.871  10.427 -0.6718  0.5339 -0.9842
 4854TIP3   OH238756   1.444   3.147  13.075 -0.1078 -0.2638  0.2219
 4854TIP3    H138757   1.436   3.187  12.989  1.1449  1.8654  1.0344
 4854TIP3    H238758   1.514   3.083  13.066 -0.5491 -0.6550 -0.5240
 4855TIP3   OH238759   3.858   3.376  10.983  0.6819 -0.7405  0.2587
 4855TIP3    H138760   3.770   3.349  11.009  0.4134 -0.6128 -0.4764
 4855TIP3    H238761   3.915   3.345  11.053 -0.0711  0.1165  1.2770
 4856TIP3   OH238762   4.574   2.679  10.329 -0.1785 -0.2535 -0.0551
 4856TIP3    H138763   4.555   2.727  10.248  1.1738 -0.3189 -0.4334
 4856TIP3    H238764   4.504   2.614  10.336 -0.2706 -0.2940 -1.2074
 4857TIP3   OH238765   1.981   2.734  12.510  0.1940  0.2233  0.2078
 4857TIP3    H138766   1.970   2.828  12.497 -0.8163  0.1059  0.1367
 4857TIP3    H238767   1.902   2.695  12.472  1.9506 -0.9025 -2.6704
 4858TIP3   OH238768   1.290   0.530  10.192  0.3211  0.3610  0.1595
 4858TIP3    H138769   1.213   0.476  10.173  1.6219 -1.3797 -0.4570
 4858TIP3    H238770   1.335   0.537  10.108  1.5791  0.0764  0.7869
 4859TIP3   OH238771   3.239   0.731  12.226  0.4043 -0.0565 -0.3405
 4859TIP3    H138772   3.150   0.742  12.193  0.1603  0.3342  0.4299
 4859TIP3    H238773   3.240   0.643  12.263  0.2973 -0.0184 -0.2447
 4860TIP3   OH238774   2.023   4.304  12.050 -0.6109  0.0503 -0.3744
 4860TIP3    H138775   1.975   4.374  12.006 -0.7306 -0.6779 -1.4457
 4860TIP3    H238776   2.028   4.332  12.141 -1.7750  0.8467 -0.5293
 4861TIP3   OH238777   6.548   4.045  12.826  0.2960 -0.4819 -0.3159
 4861TIP3    H138778   6.620   4.108  12.825 -0.0848 -0.0451 -0.3750
 4861TIP3    H238779   6.488   4.076  12.758  0.2528 -1.0842 -0.5595
 4862TIP3   OH238780   4.591   3.663  10.144 -0.1085  0.1129  0.4181
 4862TIP3    H138781   4.498   3.682  10.132 -0.6474 -2.2911  0.2351
 4862TIP3    H238782   4.627   3.668  10.056 -0.3974 -0.3887  0.2642
 4863TIP3   OH238783   0.509   5.789  12.473 -0.0257  0.0921 -0.0117
 4863TIP3    H138784   0.583   5.792  12.535  0.1278 -1.1717 -0.1044
 4863TIP3    H238785   0.546   5.822  12.391  0.5745 -0.9276 -0.1710
 4864TIP3   OH238786   0.725   1.102  10.527 -0.3742  0.1167 -0.2565
 4864TIP3    H138787   0.726   1.014  10.490 -0.2573 -1.0376  2.3280
 4864TIP3    H238788   0.816   1.130  10.523 -0.4051  0.1346 -1.0554
 4865TIP3   OH238789   0.085   6.665  12.003 -0.2163  0.5769  0.6149
 4865TIP3    H138790   0.148   6.600  12.034 -0.2493 -0.4442 -1.2470
 4865TIP3    H238791   0.004   6.616  11.989 -0.9368  1.5146  1.3324
 4866TIP3   OH238792   6.603   2.864  12.414 -0.5781 -0.4658 -0.2031
 4866TIP3    H138793   6.568   2.926  12.478 -0.8505 -0.0603 -0.7299
 4866TIP3    H238794   6.660   2.917  12.358 -0.6931 -0.7161 -0.5652
 4867TIP3   OH238795   5.869   0.110  12.457  1.4626 -0.1962 -0.6108
 4867TIP3    H138796   5.908   0.111  12.545  0.3873  0.2975 -0.1257
 4867TIP3    H238797   5.914   0.038  12.412  1.1475 -1.2920  0.7522
 4868TIP3   OH238798   2.138   1.318  11.951 -0.0626  0.6122 -0.3448
 4868TIP3    H138799   2.170   1.349  12.035  1.9590  0.8806 -1.1479
 4868TIP3    H238800   2.057   1.367  11.935 -1.1102 -0.2523  1.8948
 4869TIP3   OH238801   5.122   2.538  11.790  0.4935 -0.5395 -0.4181
 4869TIP3    H138802   5.109   2.536  11.695  0.9988 -0.4652 -0.4968
 4869TIP3    H238803   5.176   2.460  11.808 -1.1353 -1.6000  0.0690
 4870TIP3   OH238804   4.717   0.859  11.685  0.1790  0.5299 -0.0359
 4870TIP3    H138805   4.742   0.861  11.592  0.3426 -0.5215 -0.0239
 4870TIP3    H238806   4.732   0.949  11.715  0.8224  0.7123 -0.8455
 4871TIP3   OH238807   1.351   6.184  10.833  0.0770 -0.2843 -0.3683
 4871TIP3    H138808   1.420   6.214  10.773  1.6140 -2.0293  0.4016
 4871TIP3    H238809   1.376   6.219  10.918  0.6814 -1.8155  0.1236
 4872TIP3   OH238810   4.778   3.230  11.537  0.3138  0.2015  0.5287
 4872TIP3    H138811   4.693   3.226  11.492 -0.4985  1.2571  1.8760
 4872TIP3    H238812   4.757   3.263  11.624  1.9260 -1.1133  1.4654
 4873TIP3   OH238813   3.415   6.447  11.411 -0.1118 -0.5871 -0.0564
 4873TIP3    H138814   3.405   6.435  11.317 -1.1323  2.0376 -0.3699
 4873TIP3    H238815   3.392   6.362  11.449 -0.5374 -1.4440 -2.1020
 4874TIP3   OH238816   6.712   4.104  11.166 -0.3544 -0.2302 -0.7678
 4874TIP3    H138817   6.794   4.055  11.176 -0.6641 -0.8683 -1.2816
 4874TIP3    H238818   6.739   4.191  11.137  0.3019  0.3462  1.3807
 4875TIP3   OH238819   5.387   1.288   9.879 -0.2096  0.0695 -0.1623
 4875TIP3    H138820   5.323   1.326   9.940  0.8965  1.1022  0.4068
 4875TIP3    H238821   5.348   1.205   9.852 -0.6937 -0.4952  2.0612
 4876TIP3   OH238822   6.218   0.969  10.305  0.4902  0.0467 -0.5758
 4876TIP3    H138823   6.205   0.983  10.399  0.6444  1.1432 -0.7038
 4876TIP3    H238824   6.228   0.874  10.296 -0.9547 -0.2210  0.3319
 4877TIP3   OH238825   4.071   0.519  11.720 -0.5468 -0.4146 -0.2776
 4877TIP3    H138826   4.112   0.536  11.805 -1.5665 -0.0534  0.1470
 4877TIP3    H238827   4.120   0.573  11.658  1.2054 -1.8242 -0.2002
 4878TIP3   OH238828   5.535   6.264  10.760 -0.0640  0.1167  0.2816
 4878TIP3    H138829   5.502   6.296  10.843  1.1295  1.1014  0.3996
 4878TIP3    H238830   5.541   6.169  10.772 -1.6593  0.0350  0.6446
 4879TIP3   OH238831   1.935   0.707  12.555 -0.0921  0.1794 -0.3587
 4879TIP3    H138832   1.861   0.743  12.506  0.3159 -0.2897 -1.3439
 4879TIP3    H238833   1.902   0.699  12.645 -1.5239 -0.7867 -0.9309
 4880TIP3   OH238834   5.930   4.942  10.331  0.2586  0.1366  0.0639
 4880TIP3    H138835   5.880   4.873  10.375 -0.0486  0.0757 -0.3750
 4880TIP3    H238836   5.906   4.934  10.239  0.1201  0.9147  0.0242
 4881TIP3   OH238837   6.298   4.124  12.681 -0.3435  0.5214  0.0443
 4881TIP3    H138838   6.272   4.129  12.589 -1.0955 -0.7729  0.1631
 4881TIP3    H238839   6.282   4.213  12.715  0.3141  1.1205 -1.1402
 4882TIP3   OH238840   4.485   4.674  11.240 -0.4812  0.1573 -0.5478
 4882TIP3    H138841   4.577   4.661  11.261 -0.7689  0.7464  1.2165
 4882TIP3    H238842   4.460   4.753  11.287 -2.3465 -1.0259  0.6045
 4883TIP3   OH238843   3.698   4.379  12.351  0.2320  0.0376  0.0390
 4883TIP3    H138844   3.626   4.351  12.295 -0.1886  0.1856  0.5014
 4883TIP3    H238845   3.728   4.461  12.312 -0.1094  0.1797  0.0746
 4884TIP3   OH238846   3.836   2.594  11.575 -0.0957  0.1216  0.2978
 4884TIP3    H138847   3.790   2.596  11.491 -0.3385  0.5579  0.4368
 4884TIP3    H238848   3.924   2.626  11.554  0.0223 -0.3172  0.1086
 4885TIP3   OH238849   0.917   5.972   9.863 -0.0901 -0.0884  0.1134
 4885TIP3    H138850   0.885   5.950   9.776 -0.3887  1.0352 -0.0744
 4885TIP3    H238851   1.013   5.968   9.855 -0.1253 -0.9620  0.0101
 4886TIP3   OH238852   2.294   6.070  11.605  0.1766 -0.8339 -0.7906
 4886TIP3    H138853   2.279   6.164  11.606 -2.6444 -1.2083  0.6042
 4886TIP3    H238854   2.385   6.060  11.635  0.9221  1.4189 -2.0609
 4887TIP3   OH238855   0.637   5.690  12.846 -0.2110 -0.1564 -0.2064
 4887TIP3    H138856   0.680   5.767  12.808  0.6844 -0.7494 -0.4342
 4887TIP3    H238857   0.546   5.716  12.857 -0.0539  0.7208 -0.8750
 4888TIP3   OH238858   1.534   4.445  13.221 -0.3115  0.3021 -0.4333
 4888TIP3    H138859   1.575   4.517  13.172  0.6935  0.2122  0.2634
 4888TIP3    H238860   1.604   4.380  13.231 -1.1284 -0.6610 -0.7992
 4889TIP3   OH238861   2.100   3.957  11.613 -0.3001  0.2090  0.6105
 4889TIP3    H138862   2.121   4.033  11.667 -3.1866  0.6440  1.2778
 4889TIP3    H238863   2.076   3.995  11.528 -1.1710  0.0361  0.7676
 4890TIP3   OH238864   1.021   1.598  12.468 -0.5066 -0.2370  0.3269
 4890TIP3    H138865   1.005   1.657  12.394  1.8123  0.6859  0.4487
 4890TIP3    H238866   1.078   1.530  12.433  0.2351 -0.0535  1.1331
 4891TIP3   OH238867   1.985   6.726  11.258 -0.2433  0.4964 -0.9428
 4891TIP3    H138868   2.056   6.695  11.202  0.4600  0.4625 -0.0390
 4891TIP3    H238869   1.907   6.721  11.202  0.2483 -0.6596 -1.5550
 4892TIP3   OH238870   0.927   2.473  12.496  0.3174 -0.3008  0.0651
 4892TIP3    H138871   1.008   2.516  12.522  0.4118  0.2125 -1.0538
 4892TIP3    H238872   0.935   2.459  12.402 -2.1306  2.5712 -0.7246
 4893TIP3   OH238873   1.061   3.466  11.185 -0.0544 -0.4043  0.0187
 4893TIP3    H138874   1.047   3.520  11.263 -1.0539 -1.5050  0.6368
 4893TIP3    H238875   1.015   3.384  11.204 -0.2646 -0.7277 -1.7089
 4894TIP3   OH238876   1.658   4.651  13.043 -0.4199  0.2010  0.2499
 4894TIP3    H138877   1.604   4.697  12.979 -0.8507 -0.3413  0.2180
 4894TIP3    H238878   1.666   4.713  13.116  0.4148  0.9834 -0.4791
 4895TIP3   OH238879   1.420   3.258  10.427 -0.5599 -0.3388 -0.9312
 4895TIP3    H138880   1.364   3.307  10.366 -0.1139 -0.5386 -1.5135
 4895TIP3    H238881   1.508   3.291  10.410 -0.3803 -0.6880 -0.6740
 4896TIP3   OH238882   0.111   2.036   9.580 -0.3830  0.0805 -0.2123
 4896TIP3    H138883   0.095   1.942   9.585  1.0478 -0.3025 -1.8683
 4896TIP3    H238884   0.199   2.044   9.542 -0.2350  2.0889  0.4039
 4897TIP3   OH238885   2.041   4.712  12.019 -0.4016 -0.0051 -0.1842
 4897TIP3    H138886   1.988   4.633  12.028 -0.2809 -0.0004  0.7169
 4897TIP3    H238887   2.125   4.681  11.986 -0.1242 -0.3664  0.8081
 4898TIP3   OH238888   1.198   5.958   9.842 -0.0558 -0.6021  0.0728
 4898TIP3    H138889   1.261   5.910   9.896 -0.7414 -0.4928  0.9851
 4898TIP3    H238890   1.251   6.023   9.795  0.3520  0.4678  1.9266
 4899TIP3   OH238891   2.224   3.092  12.321  0.1413  0.4236  0.1464
 4899TIP3    H138892   2.238   3.182  12.352 -0.4446  0.1376  1.2976
 4899TIP3    H238893   2.283   3.039  12.374  0.7228  0.1494 -0.7565
 4900TIP3   OH238894   1.819   4.340  12.765  0.4596  0.0487  0.1986
 4900TIP3    H138895   1.860   4.363  12.849  0.2639  1.0416  0.0342
 4900TIP3    H238896   1.784   4.423  12.732  0.2848 -0.3866 -0.7351
 4901TIP3   OH238897   5.873   1.792  12.891  0.5632 -0.5875 -0.3875
 4901TIP3    H138898   5.894   1.699  12.892  1.7559 -0.3502 -1.1372
 4901TIP3    H238899   5.783   1.796  12.858  1.5329 -1.3448 -3.4029
 4902TIP3   OH238900   0.550   2.317  13.121  0.3700  0.8345  0.1964
 4902TIP3    H138901   0.601   2.237  13.108 -1.9958 -0.8875  0.8064
 4902TIP3    H238902   0.593   2.382  13.067  1.5894 -1.2124 -1.4525
 4903TIP3   OH238903   5.584   5.810  11.706  0.2454  0.5040 -0.1992
 4903TIP3    H138904   5.655   5.861  11.745  0.5188  0.3713 -0.5172
 4903TIP3    H238905   5.538   5.771  11.780  0.3606  0.7762  0.0194
 4904TIP3   OH238906   5.953   1.254   9.608  0.0013  0.3889 -0.5671
 4904TIP3    H138907   6.034   1.227   9.652 -0.5029 -2.0998 -1.0351
 4904TIP3    H238908   5.982   1.291   9.524  0.6888 -0.1861 -0.5914
 4905TIP3   OH238909   4.231   5.289  10.857 -0.3326 -0.2095 -0.2771
 4905TIP3    H138910   4.275   5.287  10.942  0.4264 -0.0227 -0.6627
 4905TIP3    H238911   4.301   5.280  10.793 -1.0967 -3.2288 -0.8564
 4906TIP3   OH238912   5.323   0.429  10.005 -0.2733 -0.0551  0.4288
 4906TIP3    H138913   5.314   0.421   9.910  0.6167 -2.9797  0.4965
 4906TIP3    H238914   5.349   0.520  10.019 -0.2430  0.3999 -2.1454
 4907TIP3   OH238915   2.650   1.502  10.764 -0.4988 -0.5049  0.0206
 4907TIP3    H138916   2.700   1.451  10.700  0.1568 -0.5245  0.5408
 4907TIP3    H238917   2.577   1.445  10.788 -0.0713 -0.9867  0.1903
 4908TIP3   OH238918   2.660   2.254  11.389  0.0272 -0.0004  0.4716
 4908TIP3    H138919   2.697   2.341  11.372  1.2196 -0.4631  0.6296
 4908TIP3    H238920   2.629   2.258  11.479  0.0785  0.2501  0.4788
 4909TIP3   OH238921   1.365   2.527  10.474 -0.2444  0.2531 -0.2385
 4909TIP3    H138922   1.431   2.542  10.407  1.7490 -0.8092  1.3737
 4909TIP3    H238923   1.334   2.438  10.457 -0.1634  0.1959 -0.0835
 4910TIP3   OH238924   1.906   3.379  11.105 -0.3283 -0.2322  0.8168
 4910TIP3    H138925   1.857   3.405  11.027  0.1505 -1.4397  0.0826
 4910TIP3    H238926   1.970   3.316  11.072  0.1409 -0.4607  2.1375
 4911TIP3   OH238927   4.200   6.380   9.710  0.4211  0.1872 -0.5261
 4911TIP3    H138928   4.253   6.311   9.670  0.4471  0.1057 -0.3501
 4911TIP3    H238929   4.264   6.444   9.742  0.4705 -0.4027  0.6056
 4912TIP3   OH238930   2.924   2.344  12.397 -0.9186  0.1886 -0.9516
 4912TIP3    H138931   2.994   2.287  12.430 -0.7437  0.9253 -0.0020
 4912TIP3    H238932   2.902   2.400  12.472 -2.8229 -0.3103 -1.1033
 4913TIP3   OH238933   3.770   3.340  11.543 -0.5575  0.1632 -0.0631
 4913TIP3    H138934   3.734   3.293  11.468  1.8229 -0.2647 -1.0337
 4913TIP3    H238935   3.851   3.379  11.510 -0.8955  2.4165  1.5401
 4914TIP3   OH238936   6.713   2.062   9.724 -0.3063  0.0479  0.2901
 4914TIP3    H138937   6.671   2.148   9.721 -0.3254  0.0522  0.6115
 4914TIP3    H238938   6.793   2.072   9.672  0.3653  0.6430  1.3848
 4915TIP3   OH238939   4.543   4.093   9.662 -0.7783  0.0959  0.1011
 4915TIP3    H138940   4.477   4.027   9.680  1.0202 -1.6650  0.6080
 4915TIP3    H238941   4.525   4.163   9.724 -2.0023 -0.4315  0.3725
 4916TIP3   OH238942   2.418   5.994  11.355 -0.2002  0.3521 -0.2330
 4916TIP3    H138943   2.476   6.066  11.380 -0.6238  0.4275  0.5856
 4916TIP3    H238944   2.358   5.985  11.429 -1.2563  0.2926 -1.0739
 4917TIP3   OH238945   3.391   3.651  11.297  0.5074 -0.3685  0.0152
 4917TIP3    H138946   3.461   3.653  11.231  2.5754  0.8363  2.0680
 4917TIP3    H238947   3.403   3.568  11.342 -0.8202 -1.1326 -0.9937
 4918TIP3   OH238948   5.966   2.786  11.374 -1.0176  0.5440 -0.4333
 4918TIP3    H138949   6.012   2.730  11.312  0.4870 -1.2223  2.1244
 4918TIP3    H238950   5.945   2.865  11.323  1.2248 -0.2530 -2.8264
 4919TIP3   OH238951   2.990   1.566  11.691  0.0610 -0.1344 -0.0331
 4919TIP3    H138952   3.001   1.558  11.786 -1.9658 -1.5677  0.1431
 4919TIP3    H238953   2.908   1.615  11.680  0.7575  0.8560 -1.0846
 4920TIP3   OH238954   5.433   0.699  10.899  0.2786 -0.4523 -0.2155
 4920TIP3    H138955   5.399   0.783  10.868  1.2322  0.1455  0.3566
 4920TIP3    H238956   5.511   0.683  10.846 -0.9981 -2.0014 -1.7792
 4921TIP3   OH238957   4.320   3.772  11.173  0.4946 -0.2008 -0.1828
 4921TIP3    H138958   4.306   3.678  11.159  2.4843 -0.6757  0.6575
 4921TIP3    H238959   4.353   3.804  11.089  0.8877 -0.4912 -0.1407
 4922TIP3   OH238960   0.600   0.840  11.536 -0.3555  0.0532 -0.2866
 4922TIP3    H138961   0.596   0.910  11.602  1.3963 -0.5588  0.5141
 4922TIP3    H238962   0.675   0.864  11.481 -2.5018  1.2306 -2.9325
 4923TIP3   OH238963   6.669   0.957  10.653 -0.1763  0.0449 -0.0191
 4923TIP3    H138964   6.746   0.990  10.607  0.3578  0.6284  1.2486
 4923TIP3    H238965   6.678   0.991  10.742 -1.4677 -0.5853  0.3731
 4924TIP3   OH238966   1.334   3.839  10.785  0.2009 -0.2277 -0.0264
 4924TIP3    H138967   1.382   3.756  10.783 -0.6285 -0.7543  1.0857
 4924TIP3    H238968   1.385   3.894  10.845 -0.2547 -0.5863  0.6985
 4925TIP3   OH238969   0.673   0.327  10.379  0.1607  0.1105 -0.8308
 4925TIP3    H138970   0.725   0.391  10.329 -0.5583  1.6079  0.2479
 4925TIP3    H238971   0.677   0.359  10.469  0.0452 -1.5930 -0.1930
 4926TIP3   OH238972   2.515   1.329  12.025  0.5662 -0.0004  0.2812
 4926TIP3    H138973   2.503   1.384  11.948  1.6199  0.1283  0.1839
 4926TIP3    H238974   2.610   1.326  12.038  0.5554 -1.8682  0.2352
 4927TIP3   OH238975   0.268   5.445  11.550 -0.0954 -0.1485 -0.2917
 4927TIP3    H138976   0.295   5.390  11.624  0.7163 -0.4474 -0.7976
 4927TIP3    H238977   0.346   5.452  11.495  0.0243  2.0454  0.0671
 4928TIP3   OH238978   0.357   6.286  12.891 -1.2002 -0.1277 -0.1136
 4928TIP3    H138979   0.420   6.219  12.918 -0.9876 -0.1613 -0.6789
 4928TIP3    H238980   0.336   6.264  12.800 -3.2827 -1.0965  0.5158
 4929TIP3   OH238981   3.678   5.883   9.695  0.0052 -0.5852  0.4826
 4929TIP3    H138982   3.623   5.904   9.620  0.7069  0.1115  0.1453
 4929TIP3    H238983   3.616   5.867   9.766 -0.6714 -1.3165 -0.2469
 4930TIP3   OH238984   3.602   4.743   2.598  0.0277  0.0569  0.2127
 4930TIP3    H138985   3.588   4.760   2.505  0.6373 -0.1740  0.0742
 4930TIP3    H238986   3.695   4.763   2.612 -0.1060  0.2751  0.8122
 4931TIP3   OH238987   6.022   1.757  12.236 -0.2518 -0.1072 -0.3432
 4931TIP3    H138988   5.962   1.799  12.175  2.1819  1.9180 -1.5315
 4931TIP3    H238989   6.033   1.821  12.307  0.5840 -0.3822 -0.2149
 4932TIP3   OH238990   2.312   1.444  13.396 -0.5615  0.3480  0.4620
 4932TIP3    H138991   2.270   1.386  13.333 -0.5573 -0.8692  1.5370
 4932TIP3    H238992   2.378   1.389  13.439 -1.3806  0.7634  2.3662
 4933TIP3   OH238993   0.273   1.460  10.552 -0.3156  0.7448  0.0989
 4933TIP3    H138994   0.366   1.483  10.548  0.1632 -1.2487 -1.8154
 4933TIP3    H238995   0.265   1.381  10.499 -2.8986  0.0746  1.3338
 4934TIP3   OH238996   3.855   0.891  13.165  0.0159 -0.1076  0.0263
 4934TIP3    H138997   3.762   0.880  13.187  0.5916 -2.9342  1.5064
 4934TIP3    H238998   3.882   0.968  13.213 -1.4393  0.5056 -0.0725
 4935TIP3   OH238999   0.693   0.981  13.118  0.1543  0.1618  0.1780
 4935TIP3    H139000   0.724   0.918  13.053 -1.3475 -0.6276  0.1822
 4935TIP3    H239001   0.766   1.042  13.129  1.0294 -0.6154 -1.0541
 4936TIP3   OH239002   2.028   6.147  11.722 -0.0122  0.2309  0.2675
 4936TIP3    H139003   2.062   6.058  11.716  0.0419  0.2724 -0.0255
 4936TIP3    H239004   2.077   6.187  11.794 -0.0767  0.0081  0.4363
 4937TIP3   OH239005   5.237   1.638  11.772  0.0058  0.0267  0.0880
 4937TIP3    H139006   5.291   1.589  11.710 -0.3594  0.2713 -0.4302
 4937TIP3    H239007   5.269   1.728  11.766  1.8697 -0.3863  2.3140
 4938TIP3   OH239008   2.691   6.786  10.371 -0.7274 -0.3472  0.5544
 4938TIP3    H139009   2.692   6.801  10.466 -1.4888 -1.5356  0.7807
 4938TIP3    H239010   2.599   6.782  10.348 -0.5532  0.5677 -0.3661
 4939TIP3   OH239011   2.221   3.623  12.587 -0.3097  0.1782  0.2154
 4939TIP3    H139012   2.164   3.629  12.510 -1.1302  1.5694  0.8967
 4939TIP3    H239013   2.227   3.529  12.604 -0.2780 -0.1462 -1.4108
 4940TIP3   OH239014   4.671   2.475  12.280 -0.4432  0.2572  0.2814
 4940TIP3    H139015   4.596   2.420  12.303 -0.1814 -0.0122  0.5061
 4940TIP3    H239016   4.650   2.510  12.194 -0.0197 -1.2764 -0.4838
 4941TIP3   OH239017   3.485   0.200  11.197 -0.2421  0.5328 -0.1293
 4941TIP3    H139018   3.439   0.233  11.275 -0.5061  1.9953 -0.8804
 4941TIP3    H239019   3.445   0.246  11.124  0.6196 -0.1641 -1.0666
 4942TIP3   OH239020   2.776   0.984  12.091  0.2798  0.2718 -0.3328
 4942TIP3    H139021   2.717   1.009  12.021 -0.6656  0.0595  0.3560
 4942TIP3    H239022   2.854   1.036  12.078  0.0848  0.2897 -1.4864
 4943TIP3   OH239023   0.502   3.757  10.466  0.3165 -0.1835  0.3048
 4943TIP3    H139024   0.505   3.847  10.435  0.4708 -0.8129 -1.6694
 4943TIP3    H239025   0.592   3.736  10.490  0.4486 -0.0714 -0.0846
 4944TIP3   OH239026   6.763   5.990  12.388 -0.4460 -0.7397 -0.1899
 4944TIP3    H139027   6.681   6.006  12.434 -0.5643 -1.1410 -0.2556
 4944TIP3    H239028   6.831   6.013  12.451 -0.5842  1.0595 -0.6341
 4945TIP3   OH239029   3.998   4.925  11.743 -0.6118 -0.4378 -0.0428
 4945TIP3    H139030   3.927   4.879  11.698 -1.1976  0.8386 -0.4674
 4945TIP3    H239031   3.988   4.899  11.835 -0.8970 -1.1804 -0.2752
 4946TIP3   OH239032   1.140   5.986  10.933  0.1907  0.5452 -0.0290
 4946TIP3    H139033   1.148   5.999  10.839  2.6439  0.7283  0.1361
 4946TIP3    H239034   1.047   5.997  10.952 -0.1631  1.7364 -2.2391
 4947TIP3   OH239035   0.819   2.939  11.293  0.1186 -0.2751 -0.4024
 4947TIP3    H139036   0.734   2.912  11.258 -0.6429  0.2943  0.9593
 4947TIP3    H239037   0.799   2.981  11.376  1.9042 -2.0101  1.0036
 4948TIP3   OH239038   5.583   1.060  11.846  0.1005  0.5702 -0.4457
 4948TIP3    H139039   5.625   1.052  11.760 -1.9876 -0.0427 -1.4865
 4948TIP3    H239040   5.655   1.070  11.908  1.8276 -1.3273 -2.0080
 4949TIP3   OH239041   1.462   0.636  12.145 -0.5104  0.0415  0.3837
 4949TIP3    H139042   1.530   0.619  12.211  0.5686  1.5723 -0.2774
 4949TIP3    H239043   1.395   0.686  12.193  0.3490  1.3039  0.3389
 4950TIP3   OH239044   6.008   6.541  12.083 -0.0234 -0.2582  0.2906
 4950TIP3    H139045   6.011   6.634  12.107  0.3596  0.0025 -0.7436
 4950TIP3    H239046   5.926   6.509  12.120  0.5290  0.1210  1.9534
 4951TIP3   OH239047   3.290   2.929  11.281 -0.0667 -0.5945  0.9868
 4951TIP3    H139048   3.276   2.990  11.353  0.3344 -0.2846  0.8100
 4951TIP3    H239049   3.223   2.953  11.216 -0.2160 -0.6557  1.1183
 4952TIP3   OH239050   6.311   0.944  11.569 -0.0740 -0.1634 -0.9091
 4952TIP3    H139051   6.310   0.863  11.619 -0.4693  0.5969  0.3822
 4952TIP3    H239052   6.239   0.996  11.606 -0.2625  0.5085 -2.1626
 4953TIP3   OH239053   0.416   2.240  12.883 -0.1946 -0.0559  0.0334
 4953TIP3    H139054   0.392   2.147  12.889 -1.3126  0.2746  0.8836
 4953TIP3    H239055   0.466   2.257  12.962  0.7431 -0.1207 -0.5286
 4954TIP3   OH239056   5.715   0.627  10.905 -0.7938  0.1299  0.5528
 4954TIP3    H139057   5.733   0.628  10.811 -0.4030 -1.0559  0.6033
 4954TIP3    H239058   5.674   0.542  10.921  0.2059 -0.1765  1.6329
 4955TIP3   OH239059   5.140   4.689  11.582  0.0171 -0.6551  0.0974
 4955TIP3    H139060   5.086   4.619  11.618  0.0090 -0.1558  1.0827
 4955TIP3    H239061   5.078   4.750  11.543 -0.1842  0.0349  1.4284
 4956TIP3   OH239062   2.546   6.604  11.409  0.1158 -0.5997  0.2889
 4956TIP3    H139063   2.599   6.628  11.485  2.2932  1.5052 -1.7203
 4956TIP3    H239064   2.458   6.634  11.430  1.0271  1.5328  1.3513
 4957TIP3   OH239065   2.082   4.895   9.730  0.6308  0.2504 -0.0572
 4957TIP3    H139066   2.043   4.951   9.663  2.8595  1.2881 -0.5986
 4957TIP3    H239067   2.132   4.830   9.681  2.7086  1.3305  0.4868
 4958TIP3   OH239068   1.771   1.286  10.427 -0.0852  0.1591 -0.0167
 4958TIP3    H139069   1.845   1.347  10.434 -0.2451  0.5585 -1.4482
 4958TIP3    H239070   1.808   1.209  10.383 -0.2826 -0.0707  0.2182
 4959TIP3   OH239071   0.786   6.155  10.449  0.0425 -0.3106 -0.1982
 4959TIP3    H139072   0.711   6.151  10.389  0.6104  0.0043 -0.9548
 4959TIP3    H239073   0.838   6.078  10.427 -0.9677 -1.5901  1.6188
 4960TIP3   OH239074   4.528   3.186  11.385 -0.0925  0.4928 -0.2490
 4960TIP3    H139075   4.472   3.162  11.458 -0.6913 -0.0616 -0.8686
 4960TIP3    H239076   4.533   3.106  11.331  1.1724  0.5708 -0.2888
 4961TIP3   OH239077   3.819   3.811  12.092  0.0152  0.1229  0.0820
 4961TIP3    H139078   3.815   3.767  12.007  2.1723 -0.6417  0.2991
 4961TIP3    H239079   3.755   3.765  12.146  0.2439 -0.9190 -0.5050
 4962TIP3   OH239080   5.365   1.090  12.584  0.0116 -0.0034 -0.0877
 4962TIP3    H139081   5.292   1.034  12.558 -1.7572  1.6119  1.1653
 4962TIP3    H239082   5.327   1.178  12.591  2.0620  0.8895  0.7135
 4963TIP3   OH239083   0.838   4.177  12.602 -0.4674 -0.4286  0.2142
 4963TIP3    H139084   0.805   4.252  12.651 -1.3198  0.7099 -1.9329
 4963TIP3    H239085   0.786   4.103  12.633 -1.3613  0.3485  0.6241
 4964TIP3   OH239086   5.302   1.125  10.570 -0.1784 -0.2897 -0.3202
 4964TIP3    H139087   5.219   1.159  10.605  0.7178  0.3848  1.2606
 4964TIP3    H239088   5.329   1.190  10.505  0.1961  0.6828  0.7760
 4965TIP3   OH239089   1.914   2.213   9.705  0.0626  0.3938 -0.5600
 4965TIP3    H139090   1.910   2.298   9.748 -0.5258  1.0609 -1.8707
 4965TIP3    H239091   1.870   2.227   9.621  0.3989 -1.0798 -1.0047
 4966TIP3   OH239092   1.502   1.575  12.083 -0.0911 -0.2126 -0.0406
 4966TIP3    H139093   1.542   1.489  12.073  0.4848 -0.0896  1.1214
 4966TIP3    H239094   1.564   1.635  12.040  1.0189 -0.0239  1.7500
 4967TIP3   OH239095   5.006   2.556  11.054 -0.4622 -0.1638  0.4358
 4967TIP3    H139096   5.062   2.484  11.084 -1.4612 -0.8502  0.6862
 4967TIP3    H239097   5.001   2.615  11.129 -0.8061 -0.5493  0.7141
 4968TIP3   OH239098   2.182   0.052  12.114 -0.7629  0.4519  0.5125
 4968TIP3    H139099   2.238  -0.025  12.118  1.1391  1.6983 -0.5508
 4968TIP3    H239100   2.104   0.022  12.067 -1.1475 -1.3567  2.1572
 4969TIP3   OH239101   4.051   0.595   9.861  0.3830  0.1816 -0.0460
 4969TIP3    H139102   3.976   0.595   9.803  0.4657 -0.5532 -0.1575
 4969TIP3    H239103   4.020   0.638   9.941 -0.6907 -1.6887  0.5848
 4970TIP3   OH239104   3.724   1.784  12.919 -0.5986 -0.1971 -0.4475
 4970TIP3    H139105   3.763   1.859  12.966 -0.6316 -0.1350 -0.5193
 4970TIP3    H239106   3.637   1.815  12.894  0.3236  0.7197 -2.8284
 4971TIP3   OH239107   4.458   5.408  12.244  0.3968 -0.1098 -0.9337
 4971TIP3    H139108   4.491   5.435  12.158 -2.1255 -0.9577 -2.2434
 4971TIP3    H239109   4.383   5.352  12.225 -0.2880 -0.2758  1.8468
 4972TIP3   OH239110   5.257   3.868  12.327  0.3743 -0.1328  0.1097
 4972TIP3    H139111   5.308   3.845  12.250 -0.2096 -1.3699  0.0628
 4972TIP3    H239112   5.274   3.961  12.340  0.4158  0.1323 -1.5629
 4973TIP3   OH239113   5.404   2.254  10.507 -0.2762  0.1487  0.2960
 4973TIP3    H139114   5.376   2.282  10.420 -1.1986 -0.2068  0.4671
 4973TIP3    H239115   5.472   2.317  10.532  2.3214 -1.4906 -1.9498
 4974TIP3   OH239116   3.733   5.469  11.001  0.0644 -0.0795 -0.0049
 4974TIP3    H139117   3.720   5.375  10.991 -0.2815 -0.0684  0.3169
 4974TIP3    H239118   3.828   5.479  11.011  0.0440 -0.4638  0.6320
 4975TIP3   OH239119   6.725   4.295  12.629  0.5027  0.2271  0.7071
 4975TIP3    H139120   6.818   4.309  12.610  0.0063  1.5125 -1.1208
 4975TIP3    H239121   6.710   4.342  12.711  0.9865  2.2572 -0.2878
 4976TIP3   OH239122   2.004   6.588  12.155  0.0252  0.6430  0.5885
 4976TIP3    H139123   1.965   6.513  12.110 -2.0102  1.4586  0.9263
 4976TIP3    H239124   1.965   6.665  12.114  1.7386  1.5462  0.5587
 4977TIP3   OH239125   5.344   2.944  12.365 -0.0631 -0.2745 -0.0581
 4977TIP3    H139126   5.430   2.960  12.324  0.2497 -0.4185  0.5239
 4977TIP3    H239127   5.328   2.851  12.351 -0.8636  0.0619 -1.5333
 4978TIP3   OH239128   2.582   2.705  11.665 -0.3749 -1.1174 -0.1823
 4978TIP3    H139129   2.675   2.701  11.685 -0.4362 -0.6957  0.2185
 4978TIP3    H239130   2.547   2.621  11.694 -0.1183 -1.2792 -0.3418
 4979TIP3   OH239131   0.124   1.061  11.513  0.1221  0.1461 -0.2767
 4979TIP3    H139132   0.158   1.151  11.510  1.2549 -0.2802 -0.9417
 4979TIP3    H239133   0.121   1.034  11.421 -0.1074 -0.5381 -0.0747
 4980TIP3   OH239134   4.155   2.746  11.985  0.2042 -0.1170 -0.2663
 4980TIP3    H139135   4.191   2.809  12.049  0.7662 -0.2247 -0.4679
 4980TIP3    H239136   4.087   2.795  11.939 -0.4587 -0.1489  0.6601
 4981TIP3   OH239137   2.786   3.471  10.339 -0.5515  0.2722 -0.3922
 4981TIP3    H139138   2.774   3.458  10.433 -0.8127  0.3603 -0.4127
 4981TIP3    H239139   2.795   3.566  10.328 -1.9117  0.4016 -0.6051
 4982TIP3   OH239140   3.653   5.399  12.462 -0.1756 -0.1458  0.0287
 4982TIP3    H139141   3.713   5.448  12.517 -0.7087  0.0744  0.4118
 4982TIP3    H239142   3.607   5.341  12.522 -0.0283 -0.6427 -0.3292
 4983TIP3   OH239143   2.392   3.221  11.423 -0.1184 -0.5420 -0.5126
 4983TIP3    H139144   2.351   3.243  11.507  1.5954 -0.4401  0.3294
 4983TIP3    H239145   2.401   3.126  11.425  0.3956 -0.4945 -0.3342
 4984TIP3   OH239146   2.260   2.687  11.119  0.7944 -0.1095  0.6790
 4984TIP3    H139147   2.235   2.757  11.180  1.2305 -0.1058  0.8559
 4984TIP3    H239148   2.233   2.606  11.164  2.1404 -0.1835  1.4034
 4985TIP3   OH239149   1.743   4.221  12.011  0.7686 -0.8674  0.3985
 4985TIP3    H139150   1.785   4.293  11.964  0.9398 -1.6000 -0.6161
 4985TIP3    H239151   1.762   4.144  11.958 -0.3982 -1.4828  0.8471
 4986TIP3   OH239152   4.166   2.361  10.980  0.6785 -0.2614  0.8733
 4986TIP3    H139153   4.236   2.312  11.023  1.5063  0.1506  0.0126
 4986TIP3    H239154   4.095   2.298  10.970  2.6558 -2.2296 -2.7501
 4987TIP3   OH239155   1.568   2.490  10.276 -0.2320  0.0252 -0.3668
 4987TIP3    H139156   1.647   2.437  10.289  1.4904  2.3260 -0.9047
 4987TIP3    H239157   1.563   2.502  10.182 -0.6701  0.7152 -0.2581
 4988TIP3   OH239158   2.326   4.013  11.100  0.3838 -0.1471  0.3874
 4988TIP3    H139159   2.395   4.078  11.112  0.5361 -0.1575 -0.3499
 4988TIP3    H239160   2.249   4.064  11.076  1.0036 -0.3009 -2.3003
 4989TIP3   OH239161   6.235   4.847  11.094 -0.4166 -0.5217 -0.2292
 4989TIP3    H139162   6.176   4.781  11.130 -1.1109 -0.4594 -1.1992
 4989TIP3    H239163   6.302   4.797  11.047  0.3898 -0.5965  0.9622
 4990TIP3   OH239164   1.884   6.636   9.812 -0.0236 -0.2660  0.0814
 4990TIP3    H139165   1.926   6.550   9.813 -1.1316 -0.8364  1.4207
 4990TIP3    H239166   1.792   6.617   9.829 -0.5194  1.0917 -0.9328
 4991TIP3   OH239167   6.208   2.190  12.012  0.1389 -0.1924 -0.1775
 4991TIP3    H139168   6.259   2.270  11.999 -0.9790  0.9245  1.8024
 4991TIP3    H239169   6.134   2.198  11.952  0.6168 -0.2805 -0.7782
 4992TIP3   OH239170   6.851   2.515  12.707  0.4618  0.1969 -0.3015
 4992TIP3    H139171   6.811   2.428  12.706 -0.3400  0.5361  0.7849
 4992TIP3    H239172   6.780   2.573  12.681  0.4321  0.7328  0.9345
 4993TIP3   OH239173   0.762   3.188  12.519  0.6468 -0.1428 -0.1832
 4993TIP3    H139174   0.751   3.103  12.562 -0.1166 -0.1984 -0.4734
 4993TIP3    H239175   0.851   3.186  12.484  0.4053 -1.1068 -0.7843
 4994TIP3   OH239176   6.735   5.427  10.120  0.2260 -0.2368  0.2331
 4994TIP3    H139177   6.683   5.387  10.050 -0.8305 -1.7932  1.8228
 4994TIP3    H239178   6.819   5.448  10.079  0.6928 -3.6500 -0.8748
 4995TIP3   OH239179   0.362   1.381  12.109  0.1662  0.3911  0.4228
 4995TIP3    H139180   0.406   1.304  12.145 -2.0556 -0.6721  1.0595
 4995TIP3    H239181   0.360   1.365  12.014  2.8465  1.4651  0.0964
 4996TIP3   OH239182   4.829   1.789  11.807 -0.9020 -0.0863  0.0928
 4996TIP3    H139183   4.793   1.790  11.896  0.1678 -1.9882  0.5976
 4996TIP3    H239184   4.900   1.854  11.810  0.3625 -1.4349  1.2407
 4997TIP3   OH239185   3.284   1.010  12.941 -0.9767  0.1278 -0.4553
 4997TIP3    H139186   3.193   1.030  12.923 -0.5071  4.1355  0.5083
 4997TIP3    H239187   3.295   1.030  13.034  0.8241 -0.4129 -0.5127
 4998TIP3   OH239188   6.682   5.548  12.083 -0.5459  0.1625 -0.0747
 4998TIP3    H139189   6.679   5.634  12.124 -0.0711 -1.0815  2.8752
 4998TIP3    H239190   6.742   5.497  12.138 -1.9109 -2.4629 -0.8066
 4999TIP3   OH239191   4.588   3.962  12.047 -0.6713 -0.1817 -0.0141
 4999TIP3    H139192   4.645   3.929  12.116 -0.6924 -1.2125 -0.4745
 4999TIP3    H239193   4.577   4.055  12.067  0.0991 -0.2619  0.8185
 5000TIP3   OH239194   4.435   2.094  13.150  0.4747  1.2080  0.3062
 5000TIP3    H139195   4.345   2.068  13.166  0.1191  1.7136 -0.8292
 5000TIP3    H239196   4.433   2.190  13.146  0.9949  1.2049 -0.1493
 5001TIP3   OH239197   5.692   2.897  11.166 -0.2773 -0.3078 -0.2850
 5001TIP3    H139198   5.621   2.955  11.192  0.0249  0.4718 -1.1551
 5001TIP3    H239199   5.772   2.941  11.195  0.1289  0.9201 -2.9420
 5002TIP3   OH239200   4.468   2.920  10.743 -0.6341  0.2596  0.5007
 5002TIP3    H139201   4.549   2.886  10.704 -0.1338  0.7872  1.0708
 5002TIP3    H239202   4.399   2.867  10.702 -0.1286  0.7195 -1.0218
 5003TIP3   OH239203   0.482   4.376  10.622  0.6080  0.1132  0.0737
 5003TIP3    H139204   0.474   4.284  10.646 -0.2497  0.1771  0.0462
 5003TIP3    H239205   0.563   4.405  10.664  0.6644 -0.5476  0.4224
 5004TIP3   OH239206   5.072   0.405  11.187  0.4815  0.3865 -0.1919
 5004TIP3    H139207   4.983   0.441  11.184  0.0161 -0.7127 -0.1367
 5004TIP3    H239208   5.125   0.469  11.140  0.0136  1.9820  1.3305
 5005TIP3   OH239209   4.042   5.923  10.686 -0.3580  0.1970 -0.3415
 5005TIP3    H139210   4.118   5.972  10.718 -0.7690  0.2703  0.5651
 5005TIP3    H239211   4.079   5.845  10.645  0.1882 -1.0685  2.3048
 5006TIP3   OH239212   0.112   6.346  12.991  0.1517 -0.4072  0.3574
 5006TIP3    H139213   0.194   6.302  12.969  0.9601  0.2141  1.9176
 5006TIP3    H239214   0.140   6.432  13.023 -1.2800  0.6618 -1.1254
 5007TIP3   OH239215   6.585   1.519  12.266 -0.1041  0.4081 -0.0836
 5007TIP3    H139216   6.556   1.428  12.265 -1.0689  0.6994  0.2067
 5007TIP3    H239217   6.665   1.518  12.318  0.2331 -0.3626 -0.5976
 5008TIP3   OH239218   0.402   0.778  12.636 -0.2029 -0.0560 -0.4411
 5008TIP3    H139219   0.434   0.727  12.711  0.3162  0.7183 -0.1327
 5008TIP3    H239220   0.334   0.834  12.673 -0.4722 -0.2031 -0.7036
 5009TIP3   OH239221   5.946   6.555  10.940 -0.0783  0.3217 -0.8133
 5009TIP3    H139222   5.858   6.517  10.943 -0.8207  2.0342  0.6263
 5009TIP3    H239223   5.944   6.625  11.004  2.4975  0.1473 -0.4495
 5010TIP3   OH239224   6.128   1.183  10.944 -0.2210 -0.7158  0.8130
 5010TIP3    H139225   6.118   1.234  10.864  2.3256 -1.2473  0.0681
 5010TIP3    H239226   6.051   1.126  10.947 -0.9674  0.1802 -0.5788
 5011TIP3   OH239227   1.113   5.734  10.386  0.1114  0.2758  0.3652
 5011TIP3    H139228   1.116   5.747  10.291  0.4929 -0.0953  0.3247
 5011TIP3    H239229   1.189   5.782  10.419  0.9287 -0.9492  0.3151
 5012TIP3   OH239230   2.934   2.001  11.975  0.3381 -0.3366 -0.3170
 5012TIP3    H139231   2.875   1.950  12.031  0.9490 -1.0217 -0.2856
 5012TIP3    H239232   2.878   2.032  11.904  0.0924 -1.6731 -0.7368
 5013TIP3   OH239233   1.694   4.832  12.324  0.2010  0.3645 -0.0993
 5013TIP3    H139234   1.785   4.806  12.340  0.5336  0.7389 -1.3055
 5013TIP3    H239235   1.675   4.895  12.394  0.2197 -1.1308  1.3121
 5014TIP3   OH239236   5.613   4.604  10.563  0.7004 -0.3467  0.3500
 5014TIP3    H139237   5.630   4.635  10.652  0.4882  0.2805  0.1785
 5014TIP3    H239238   5.565   4.522  10.574 -0.3808  0.3312  0.8089
 5015TIP3   OH239239   1.505   0.618  10.340 -0.4938 -0.0091 -0.0556
 5015TIP3    H139240   1.478   0.595  10.429 -0.5162 -0.4489 -0.1762
 5015TIP3    H239241   1.426   0.608  10.288 -0.4912  0.2922 -0.1192
 5016TIP3   OH239242   0.545   0.101  11.972  0.0276 -0.1013 -0.1416
 5016TIP3    H139243   0.593   0.059  11.900 -0.1306 -1.2064  0.3853
 5016TIP3    H239244   0.480   0.037  11.999 -1.1841  1.0362 -0.2465
 5017TIP3   OH239245   2.015   4.670  10.134  0.6478  0.1312 -0.0725
 5017TIP3    H139246   1.941   4.617  10.105 -0.5113  0.9485  1.2570
 5017TIP3    H239247   2.070   4.680  10.056 -0.6931 -0.3922 -1.1190
 5018TIP3   OH239248   6.847   4.754  12.211 -0.1266  0.1865  0.1968
 5018TIP3    H139249   6.897   4.811  12.153  0.8500  0.9189  1.6800
 5018TIP3    H239250   6.868   4.786  12.299 -3.2796  0.5763  0.9202
 5019TIP3   OH239251   5.188   5.599   9.931 -0.3454 -0.6073 -0.6403
 5019TIP3    H139252   5.205   5.629   9.842  1.7660  0.9568  0.1958
 5019TIP3    H239253   5.198   5.678   9.985  0.9057 -1.9531  1.2269
 5020TIP3   OH239254   1.939   0.884  12.198  0.0459 -0.1458  0.1887
 5020TIP3    H139255   1.865   0.823  12.194 -1.2016  1.1935  1.8134
 5020TIP3    H239256   1.927   0.942  12.123 -0.8885  0.4162  0.7620
 5021TIP3   OH239257   6.698   6.551  12.543 -0.1443 -0.0834  0.2009
 5021TIP3    H139258   6.733   6.633  12.509  0.1645 -0.3775 -0.2059
 5021TIP3    H239259   6.607   6.571  12.566  0.5144  0.9224  2.1212
 5022TIP3   OH239260   5.763   1.279  12.485  0.5440 -0.3705  0.4385
 5022TIP3    H139261   5.797   1.259  12.572  0.8719  0.4161  0.4990
 5022TIP3    H239262   5.838   1.314  12.437  0.0613  0.4983  0.2839
 5023TIP3   OH239263   5.396   4.784  11.499 -0.1163 -0.1389 -0.1169
 5023TIP3    H139264   5.392   4.854  11.434  0.4434 -1.4121 -1.5618
 5023TIP3    H239265   5.306   4.778  11.532 -0.6175 -0.0346 -1.3997
 5024TIP3   OH239266   2.644   4.029  12.321 -0.1181  0.1334 -0.3469
 5024TIP3    H139267   2.579   3.960  12.325  0.2826 -0.2649 -0.5925
 5024TIP3    H239268   2.709   4.004  12.387 -0.8199  1.1744  0.7924
 5025TIP3   OH239269   5.960   2.835  12.747  0.0311  0.7138  0.0271
 5025TIP3    H139270   5.870   2.824  12.778  0.5125  1.6296  1.9013
 5025TIP3    H239271   5.976   2.758  12.693 -1.3474 -0.2960  0.9810
 5026TIP3   OH239272   2.634   1.628  10.440  0.2382  0.7827 -0.2374
 5026TIP3    H139273   2.599   1.550  10.483  0.6844  0.5118 -0.3621
 5026TIP3    H239274   2.556   1.677  10.412 -0.0423  0.3736 -0.1794
 5027TIP3   OH239275   3.644   5.532  12.879  0.0494  0.0911  0.0100
 5027TIP3    H139276   3.739   5.526  12.889 -0.1115 -0.4480  1.4280
 5027TIP3    H239277   3.616   5.443  12.858 -0.1097  0.3418 -0.8887
 5028TIP3   OH239278   4.183   0.046  12.479  0.2855 -1.3344 -0.0048
 5028TIP3    H139279   4.183   0.085  12.566 -0.5231 -0.8331 -0.2101
 5028TIP3    H239280   4.137   0.111  12.424  2.7264 -0.5728 -1.2983
 5029TIP3   OH239281   4.397   6.465  12.286 -0.0335 -0.3156  0.2957
 5029TIP3    H139282   4.357   6.412  12.217 -0.4207  0.1654  0.1415
 5029TIP3    H239283   4.326   6.482  12.347  0.0572  0.1128  0.2862
 5030TIP3   OH239284   6.559   4.398  12.060 -0.6076  0.0430  0.2906
 5030TIP3    H139285   6.469   4.410  12.088 -0.5487  0.1133  0.4496
 5030TIP3    H239286   6.552   4.371  11.968 -0.7683  0.7101  0.1022
 5031TIP3   OH239287   0.444   0.773  11.870 -0.5446 -0.0581 -0.1680
 5031TIP3    H139288   0.503   0.765  11.945 -1.4284 -0.4869  0.4902
 5031TIP3    H239289   0.480   0.847  11.820  0.1536  0.1286  0.5771
 5032TIP3   OH239290   3.551   6.332  12.731 -0.3007  0.0308 -0.2456
 5032TIP3    H139291   3.457   6.337  12.749 -0.3711  1.4255 -0.9038
 5032TIP3    H239292   3.581   6.255  12.780 -2.0333 -1.2674 -1.1316
 5033TIP3   OH239293   1.451   5.831  10.712 -0.0364 -0.2346 -0.2665
 5033TIP3    H139294   1.543   5.854  10.720 -0.6302  1.8070  1.6030
 5033TIP3    H239295   1.448   5.737  10.733  1.5943 -0.3753 -0.5110
 5034TIP3   OH239296   1.936   6.126  12.536 -0.4711  0.4267  0.2023
 5034TIP3    H139297   1.850   6.085  12.543  0.3618 -1.5223 -0.3000
 5034TIP3    H239298   1.918   6.214  12.503 -2.2421 -0.0413 -0.1804
 5035TIP3   OH239299   1.694   2.885  12.598 -0.0087 -0.4517  0.3974
 5035TIP3    H139300   1.724   2.947  12.532 -1.9600 -1.6836 -1.7887
 5035TIP3    H239301   1.684   2.803  12.551  1.0059 -2.0853  2.8595
 5036TIP3   OH239302   0.684   5.930  10.608 -0.2221 -0.1912  0.0831
 5036TIP3    H139303   0.647   6.019  10.612 -1.4418 -0.6592 -0.2060
 5036TIP3    H239304   0.712   5.913  10.698 -0.3801  0.3343  0.2391
 5037TIP3   OH239305   0.632   5.992   9.803 -0.2226 -0.6815 -0.3373
 5037TIP3    H139306   0.565   5.995   9.734 -1.2375 -0.2727  0.6296
 5037TIP3    H239307   0.707   5.951   9.762 -0.9815 -0.9118 -1.5443
 5038TIP3   OH239308   3.812   3.057  12.989 -0.0713  0.7199 -0.0457
 5038TIP3    H139309   3.886   3.013  12.945  0.4250 -0.9213  2.2860
 5038TIP3    H239310   3.828   3.150  12.972  0.0017  0.2397 -3.3707
 5039TIP3   OH239311   0.236   1.034  11.800  0.5232  0.2582  0.5812
 5039TIP3    H139312   0.314   0.978  11.792 -0.7799 -1.5895  0.1361
 5039TIP3    H239313   0.206   1.046  11.710  0.3286  1.0277  0.7431
 5040TIP3   OH239314   0.674   1.773  11.271  0.0357 -0.0205 -0.3265
 5040TIP3    H139315   0.581   1.757  11.287 -0.0758 -0.1432 -1.0432
 5040TIP3    H239316   0.715   1.688  11.286  0.3478  0.4759  2.0034
 5041TIP3   OH239317   2.298   5.214  11.421  0.0287  0.0886  0.7500
 5041TIP3    H139318   2.356   5.251  11.354 -0.5072  0.4610  0.4918
 5041TIP3    H239319   2.296   5.282  11.489 -2.6532  1.5610 -0.6563
 5042TIP3   OH239320   4.270   4.246   9.988  0.1371  0.4317 -0.0693
 5042TIP3    H139321   4.232   4.162  10.012  0.3933  0.6820  1.3170
 5042TIP3    H239322   4.197   4.295   9.949 -1.3660  1.2284  3.3083
 5043TIP3   OH239323   5.246   3.123  12.146  0.1488  0.3147 -0.2129
 5043TIP3    H139324   5.261   3.076  12.228 -0.2432  0.6322  0.0392
 5043TIP3    H239325   5.327   3.171  12.131  0.4850 -0.2917 -0.3774
 5044TIP3   OH239326   4.799   3.104  12.911  0.4089 -0.2330  0.0559
 5044TIP3    H139327   4.816   3.191  12.945  0.8676 -0.9924  1.8620
 5044TIP3    H239328   4.751   3.059  12.981  1.7647 -1.9873 -0.0704
 5045TIP3   OH239329   1.095   0.471  12.715 -0.0571 -0.0908  0.0708
 5045TIP3    H139330   1.092   0.468  12.810  0.0688  0.1181  0.0827
 5045TIP3    H239331   1.094   0.379  12.687  2.0553 -0.2539  0.3476
 5046TIP3   OH239332   6.804   2.477  10.170  0.4694 -0.4859  0.0013
 5046TIP3    H139333   6.795   2.383  10.184  2.4248 -0.9118 -1.1281
 5046TIP3    H239334   6.723   2.503  10.127 -1.1117 -1.1342  2.4019
 5047TIP3   OH239335   2.430   4.756  11.646 -0.0372  0.2918  0.4881
 5047TIP3    H139336   2.520   4.758  11.613  0.2033 -0.0803  1.1123
 5047TIP3    H239337   2.392   4.839  11.616  0.2440  0.0712 -0.5099
 5048TIP3   OH239338   5.478   4.214  11.196 -0.4665 -0.2370  0.0413
 5048TIP3    H139339   5.390   4.186  11.172  0.3632 -2.0841 -1.0616
 5048TIP3    H239340   5.536   4.151  11.154  1.3880  0.6812  1.0752
 5049TIP3   OH239341   0.042   3.363  10.514  0.1164 -0.2731  0.7591
 5049TIP3    H139342   0.105   3.395  10.579  0.8715 -0.0762 -0.0536
 5049TIP3    H239343   0.076   3.277  10.488 -1.0366 -1.0686  1.7563
 5050TIP3   OH239344   6.503   0.884   9.835 -0.2085  0.2759 -0.3800
 5050TIP3    H139345   6.546   0.825   9.896  0.6719 -0.1922 -1.4175
 5050TIP3    H239346   6.553   0.965   9.840  0.2191  0.0478 -0.8880
 5051TIP3   OH239347   6.180   6.219  12.579 -0.4735  0.9519  0.4827
 5051TIP3    H139348   6.257   6.226  12.635  0.9530 -0.2437 -1.2378
 5051TIP3    H239349   6.199   6.277  12.505 -0.5980 -0.3858 -0.6240
 5052TIP3   OH239350   0.977   3.524  10.401  0.4514  0.2883  0.3163
 5052TIP3    H139351   0.898   3.546  10.451 -1.1406 -2.4000 -0.7924
 5052TIP3    H239352   1.047   3.524  10.466 -0.6642  1.4690  1.5947
 5053TIP3   OH239353   5.239   4.272  10.218  0.3300 -0.3753  0.2235
 5053TIP3    H139354   5.302   4.205  10.243  1.7467  0.9406  0.3605
 5053TIP3    H239355   5.286   4.355  10.231 -1.8627  0.7363  1.5440
 5054TIP3   OH239356   6.432   4.042  12.356 -0.0404  0.3411 -0.0034
 5054TIP3    H139357   6.473   4.084  12.280  2.1070  0.9286  1.4187
 5054TIP3    H239358   6.367   4.106  12.386 -1.2214 -0.0629 -1.5097
 5055TIP3   OH239359   6.813   5.237  11.943  0.3477  0.0903 -0.2039
 5055TIP3    H139360   6.734   5.230  11.890  0.6801 -1.2207 -0.5561
 5055TIP3    H239361   6.879   5.188  11.894  0.7543 -0.8698  1.2432
 5056TIP3   OH239362   1.742   3.709  13.243  0.9990  0.1474 -0.5992
 5056TIP3    H139363   1.721   3.638  13.304  0.2642 -0.0249 -1.0434
 5056TIP3    H239364   1.795   3.666  13.175  3.8014  0.7720  1.0360
 5057TIP3   OH239365   6.400   5.698  12.757 -0.6434 -0.3027 -1.1182
 5057TIP3    H139366   6.451   5.644  12.818 -0.4662  2.2621  1.2282
 5057TIP3    H239367   6.361   5.765  12.813 -0.7384  2.0757 -3.8236
 5058TIP3   OH239368   1.410   6.205  12.782  0.6389 -0.1410  0.3682
 5058TIP3    H139369   1.468   6.191  12.857  0.2451 -0.3521  0.6340
 5058TIP3    H239370   1.329   6.161  12.806  0.2855  0.3640  0.0929
 5059TIP3   OH239371   3.639   0.727  11.350  0.0644 -0.0398 -0.1710
 5059TIP3    H139372   3.662   0.820  11.357 -0.3751  0.4039 -3.0693
 5059TIP3    H239373   3.545   0.725  11.368  0.0961  0.0623  0.0119
 5060TIP3   OH239374   4.794   0.954  12.722  0.0574 -0.0634 -0.1975
 5060TIP3    H139375   4.784   0.867  12.761  0.3308  0.5044  1.2038
 5060TIP3    H239376   4.757   1.014  12.786 -1.0766  0.8072 -1.6023
 5061TIP3   OH239377   1.014   0.040  10.756 -0.3407 -0.3851 -0.1326
 5061TIP3    H139378   1.035   0.128  10.789 -0.1985  0.2370 -1.7509
 5061TIP3    H239379   0.958   0.056  10.680  0.0550 -1.6739 -0.7214
 5062TIP3   OH239380   6.826   5.516  11.851 -0.0722 -0.0435  0.3206
 5062TIP3    H139381   6.770   5.442  11.824 -1.3260  0.3553  1.7320
 5062TIP3    H239382   6.805   5.530  11.943  0.7329  1.5861  0.2833
 5063TIP3   OH239383   3.891   1.677  11.848 -0.3126 -0.4036  0.0603
 5063TIP3    H139384   3.823   1.730  11.806  0.4935  0.3863 -0.2742
 5063TIP3    H239385   3.933   1.630  11.777 -1.3067 -1.8787  0.3997
 5064TIP3   OH239386   4.540   1.565  10.135 -0.0150  0.7239  0.4452
 5064TIP3    H139387   4.620   1.518  10.155  0.2927  0.8977 -0.3432
 5064TIP3    H239388   4.470   1.504  10.159  0.3730 -0.4321 -1.1322
 5065TIP3   OH239389   3.902   4.937  10.921  1.6112 -0.7766 -0.2008
 5065TIP3    H139390   3.975   4.994  10.897 -0.7423  2.9704  0.5834
 5065TIP3    H239391   3.837   4.951  10.853  0.7388 -2.1747  0.3036
 5066TIP3   OH239392   3.595   3.631  11.614  0.6062 -0.6244 -0.8196
 5066TIP3    H139393   3.602   3.557  11.554 -1.3926 -1.4883 -0.0654
 5066TIP3    H239394   3.656   3.610  11.685  2.2722 -0.0527 -2.0218
 5067TIP3   OH239395   6.735   6.209  12.760  0.0917 -0.6409 -0.8798
 5067TIP3    H139396   6.708   6.117  12.764  0.9303 -0.8585  1.9662
 5067TIP3    H239397   6.722   6.241  12.850  2.5084  1.2067 -1.1100
 5068TIP3   OH239398   5.019   0.762  11.732 -0.1908  0.4138 -0.0233
 5068TIP3    H139399   4.949   0.733  11.673 -0.4821  0.8880  0.0780
 5068TIP3    H239400   4.982   0.838  11.777  0.0711  0.1343  0.6847
 5069TIP3   OH239401   5.329   2.798  12.827 -0.4677 -0.0472 -1.1065
 5069TIP3    H139402   5.314   2.880  12.876 -0.5126  0.2139 -1.5548
 5069TIP3    H239403   5.353   2.827  12.739  0.2264 -0.5064 -1.0706
 5070TIP3   OH239404   0.855   3.072  13.061  0.7171 -0.3053  0.1729
 5070TIP3    H139405   0.776   3.119  13.088  1.2167 -1.3902  3.9820
 5070TIP3    H239406   0.900   3.133  13.003 -2.5438  0.5704 -1.6937
 5071TIP3   OH239407   1.150   1.849  10.796 -0.1467 -0.4814 -0.2660
 5071TIP3    H139408   1.209   1.831  10.869  0.3182 -1.0472 -0.7808
 5071TIP3    H239409   1.155   1.944  10.784 -0.3474 -0.3623  0.5371
 5072TIP3   OH239410   4.158   6.691  12.326 -0.8239 -0.1765  1.3264
 5072TIP3    H139411   4.238   6.685  12.275  0.0518  0.7032  2.5163
 5072TIP3    H239412   4.165   6.776  12.371 -3.2307  0.7323  0.1797
 5073TIP3   OH239413   1.608   2.412  10.880 -0.4377  0.1182  0.3197
 5073TIP3    H139414   1.636   2.331  10.837 -0.3554 -0.4213  1.3650
 5073TIP3    H239415   1.689   2.455  10.906 -0.5114 -0.2215  1.1276
 5074TIP3   OH239416   5.168   3.071  12.766  0.3763 -0.1976  0.8133
 5074TIP3    H139417   5.080   3.107  12.758  0.3744 -0.3914 -0.2941
 5074TIP3    H239418   5.218   3.116  12.697  0.3340 -2.3506 -0.7292
 5075TIP3   OH239419   3.356   5.649  10.486  0.1402  0.3007 -0.1280
 5075TIP3    H139420   3.315   5.689  10.409 -0.7975 -2.2011 -1.0366
 5075TIP3    H239421   3.394   5.567  10.453  0.7607 -0.2531  1.8472
 5076TIP3   OH239422   3.904   3.329  12.840 -0.2208 -0.2336 -0.7566
 5076TIP3    H139423   3.919   3.239  12.813  1.8789 -0.4335  0.8921
 5076TIP3    H239424   3.895   3.377  12.757  1.5368 -1.4952 -1.7301
 5077TIP3   OH239425   0.125   2.092  12.032 -0.4596  0.3143  0.0714
 5077TIP3    H139426   0.066   2.153  12.077  0.1264 -0.5417  2.1181
 5077TIP3    H239427   0.075   2.010  12.029 -1.1237  0.7222 -2.3904
 5078TIP3   OH239428   5.182   3.888  11.904 -0.2756 -0.1860 -0.4301
 5078TIP3    H139429   5.123   3.831  11.953  0.7667 -0.8074  0.1467
 5078TIP3    H239430   5.126   3.956  11.869 -1.2875 -0.5947  0.3444
 5079TIP3   OH239431   5.384   3.853  11.347 -0.7114 -0.8317  0.2776
 5079TIP3    H139432   5.469   3.894  11.328 -0.7925 -0.1102  1.3688
 5079TIP3    H239433   5.371   3.869  11.440 -0.8969 -3.1121  0.6848
 5080TIP3   OH239434   1.051   4.142  13.045 -0.2556  0.0356  0.4987
 5080TIP3    H139435   1.101   4.221  13.026 -0.7224  0.2777  0.2623
 5080TIP3    H239436   0.964   4.175  13.069 -0.4847 -0.4161  0.2800
 5081TIP3   OH239437   0.106   3.103  13.282  0.3271  0.2024 -0.0979
 5081TIP3    H139438   0.140   3.192  13.292  2.3762 -0.6558  1.5301
 5081TIP3    H239439   0.168   3.061  13.222  0.6680 -0.6692  0.8248
 5082TIP3   OH239440   3.372   1.018  11.548 -0.4922 -0.4011 -0.1819
 5082TIP3    H139441   3.335   1.057  11.628  1.7731  1.2401  0.1575
 5082TIP3    H239442   3.466   1.016  11.564 -0.1141 -1.4023 -2.2732
 5083TIP3   OH239443   3.463   2.473  11.243  0.2867  0.3758  0.0518
 5083TIP3    H139444   3.432   2.502  11.157 -0.4015 -2.0287 -0.5798
 5083TIP3    H239445   3.391   2.494  11.303  0.3041  1.0311 -0.1506
 5084TIP3   OH239446   1.923   3.718  12.505 -0.2979 -0.2815 -0.0628
 5084TIP3    H139447   1.899   3.721  12.597 -1.9832 -0.7110 -0.4559
 5084TIP3    H239448   1.887   3.635  12.473 -0.5693  0.2912 -1.3214
 5085TIP3   OH239449   4.956   6.116  10.640 -0.0910 -0.2511  0.2239
 5085TIP3    H139450   5.028   6.052  10.634 -0.6587 -1.1943  2.3686
 5085TIP3    H239451   4.976   6.166  10.719 -0.5362  1.1359 -0.5263
 5086TIP3   OH239452   2.790   2.178  12.779 -1.1023  0.3525 -0.1189
 5086TIP3    H139453   2.765   2.265  12.812 -1.8686 -0.6947  2.2809
 5086TIP3    H239454   2.717   2.122  12.804 -0.7206 -0.9737 -1.8483
 5087TIP3   OH239455   3.050   6.387  11.428 -0.1856  0.3083 -0.0015
 5087TIP3    H139456   3.066   6.394  11.522  1.3831 -0.6010 -0.1548
 5087TIP3    H239457   3.116   6.325  11.397 -2.0774 -1.1300 -1.3689
 5088TIP3   OH239458   6.045   2.308  11.118  0.7157 -0.0326  0.1255
 5088TIP3    H139459   6.118   2.251  11.093 -0.3898 -1.9928  1.1251
 5088TIP3    H239460   6.036   2.296  11.212 -0.1083  1.1660  0.2278
 5089TIP3   OH239461   5.084   0.752  10.674  0.3659  0.4587  0.4181
 5089TIP3    H139462   5.036   0.832  10.695  0.9673  0.5810  1.4008
 5089TIP3    H239463   5.019   0.695  10.633 -0.4087  0.9516  0.9340
 5090TIP3   OH239464   4.823   2.479  11.733  0.1683  0.2001 -0.4585
 5090TIP3    H139465   4.790   2.397  11.768  1.4988 -0.2279 -0.1931
 5090TIP3    H239466   4.911   2.488  11.768  0.2889  1.4190 -1.0067
 5091TIP3   OH239467   5.154   6.099  11.755  0.1237 -0.1434 -0.7975
 5091TIP3    H139468   5.154   6.091  11.850  1.8964  0.6242 -0.6834
 5091TIP3    H239469   5.195   6.018  11.725  4.0676  1.5101 -0.5285
 5092TIP3   OH239470   1.004   0.698  12.594  0.6322 -0.7356 -0.4940
 5092TIP3    H139471   1.092   0.735  12.601  0.2939 -0.1001  0.5389
 5092TIP3    H239472   1.013   0.609  12.628  0.5343 -0.0976  1.2602
 5093TIP3   OH239473   6.578   4.600  11.289 -0.5044 -0.1881 -0.0807
 5093TIP3    H139474   6.560   4.529  11.351  0.4068  1.8382  2.7607
 5093TIP3    H239475   6.670   4.623  11.304 -0.7084  1.4491 -1.0152
 5094TIP3   OH239476   2.233   3.630   9.671 -0.3626  0.3802 -0.3242
 5094TIP3    H139477   2.152   3.679   9.656 -0.9712 -0.0250  1.3496
 5094TIP3    H239478   2.206   3.555   9.725  1.2325  0.7517  1.0870
 5095TIP3   OH239479   5.712   0.062  12.738 -0.0693 -0.1275 -0.4225
 5095TIP3    H139480   5.678  -0.015  12.784 -0.5913  0.5848  0.3875
 5095TIP3    H239481   5.673   0.056  12.651 -3.6879  1.4974  0.9027
 5096TIP3   OH239482   2.401   3.339  10.582  0.4563 -0.0168 -0.8435
 5096TIP3    H139483   2.400   3.250  10.546 -0.2730 -0.9151  1.2521
 5096TIP3    H239484   2.396   3.327  10.677  2.1926  2.2199 -0.3581
 5097TIP3   OH239485   3.650   2.491  13.340 -0.0363  0.3072  0.0075
 5097TIP3    H139486   3.632   2.408  13.297  0.7906  1.0443 -1.8582
 5097TIP3    H239487   3.574   2.546  13.321 -0.5381  0.0380  1.1529
 5098TIP3   OH239488   3.784   0.325  10.762 -0.2955 -0.4627 -0.3063
 5098TIP3    H139489   3.828   0.259  10.815 -2.0604 -0.6801  0.9807
 5098TIP3    H239490   3.698   0.288  10.743 -1.4149  1.4931  0.6041
 5099TIP3   OH239491   1.994   6.793  12.577  0.0819  0.5205 -0.5689
 5099TIP3    H139492   1.928   6.858  12.601 -0.3696 -1.0634  3.0439
 5099TIP3    H239493   2.063   6.803  12.642  0.5548 -1.8058 -0.6496
 5100TIP3   OH239494   0.055   0.577  10.561  0.2290 -0.7092 -0.1609
 5100TIP3    H139495  -0.020   0.526  10.590  0.6438 -1.6668 -0.7243
 5100TIP3    H239496   0.017   0.656  10.523 -0.5487 -1.4715 -1.0287
 5101TIP3   OH239497   3.103   2.053  12.189  0.2219 -0.4866 -0.2062
 5101TIP3    H139498   3.118   1.958  12.191 -3.2065 -1.1548  0.4691
 5101TIP3    H239499   3.052   2.068  12.110 -0.3616  0.5686  0.3424
 5102TIP3   OH239500   5.661   2.690  11.695 -0.3347  0.5408 -0.0894
 5102TIP3    H139501   5.740   2.680  11.748 -0.6064 -0.3210  0.1786
 5102TIP3    H239502   5.670   2.775  11.653  0.8743  0.3277 -0.2937
 5103TIP3   OH239503   5.653   5.221  12.605  0.9557  0.0876  0.5734
 5103TIP3    H139504   5.745   5.197  12.593  1.5263  1.9125  1.0785
 5103TIP3    H239505   5.646   5.308  12.568 -1.2337 -1.0205 -1.9425
 5104TIP3   OH239506   2.499   1.125  12.891  0.1442 -0.0042 -0.2751
 5104TIP3    H139507   2.516   1.065  12.818 -1.9084 -0.1611 -0.6878
 5104TIP3    H239508   2.473   1.207  12.849 -1.4232 -0.2066  0.2462
 5105TIP3   OH239509   1.844   1.793  11.028  0.0478  0.1136 -0.2192
 5105TIP3    H139510   1.928   1.829  11.002 -0.0601 -0.0744 -0.8594
 5105TIP3    H239511   1.837   1.710  10.980 -0.4617  0.0878 -0.1133
 5106TIP3   OH239512   0.793   6.689  10.491  0.8836  0.6265 -0.0764
 5106TIP3    H139513   0.811   6.646  10.575  0.3463 -0.6998 -0.6091
 5106TIP3    H239514   0.701   6.668  10.473  1.1175  0.4845 -1.2062
 5107TIP3   OH239515   2.114   0.319  11.582 -0.3789 -0.2029  0.3731
 5107TIP3    H139516   2.126   0.225  11.570  1.6570 -0.0398  0.8200
 5107TIP3    H239517   2.186   0.359  11.533 -0.5999  1.0688  1.0562
 5108TIP3   OH239518   1.019   6.561  10.402  0.1898  0.0889  0.6452
 5108TIP3    H139519   1.019   6.551  10.307 -0.7354 -1.8387  0.8084
 5108TIP3    H239520   0.950   6.625  10.419 -0.2983 -0.2793  0.0742
 5109TIP3   OH239521   1.710   2.281  11.845 -0.4233  0.3016  0.5059
 5109TIP3    H139522   1.736   2.198  11.804  0.4178  0.4472  0.7258
 5109TIP3    H239523   1.762   2.347  11.800  0.6459  0.4471  1.8886
 5110TIP3   OH239524   5.692   3.350  12.766  0.4264  0.5476 -0.5068
 5110TIP3    H139525   5.665   3.421  12.708  1.3175  1.6641  0.4032
 5110TIP3    H239526   5.738   3.393  12.837 -2.0274 -0.5672  1.9653
 5111TIP3   OH239527   0.952   2.549  11.386 -0.1293  0.2108  0.1799
 5111TIP3    H139528   0.992   2.492  11.451 -1.0739 -2.2716 -1.2565
 5111TIP3    H239529   0.995   2.524  11.303 -0.9876  1.1929 -0.5843
 5112TIP3   OH239530   0.950   4.284  10.014  0.8931 -0.2683 -0.7395
 5112TIP3    H139531   0.979   4.209   9.962  2.3072  0.8479 -1.6228
 5112TIP3    H239532   0.898   4.337   9.954  0.8790  0.0525 -0.4511
 5113TIP3   OH239533   5.091   4.337  12.304 -0.0046 -0.1289 -0.7861
 5113TIP3    H139534   5.071   4.423  12.342  0.0041 -0.1594 -0.7133
 5113TIP3    H239535   5.044   4.275  12.360  2.0288 -0.3970  0.7182
 5114TIP3   OH239536   4.623   5.131  12.678  0.4739 -0.1620  0.3730
 5114TIP3    H139537   4.661   5.195  12.738  1.4754 -0.2054 -0.1934
 5114TIP3    H239538   4.690   5.063  12.670 -0.2319 -0.8668  0.3123
 5115TIP3   OH239539   1.166   6.562  11.404  0.0291  0.3784  0.5642
 5115TIP3    H139540   1.262   6.568  11.406  0.0647  1.2502 -1.2997
 5115TIP3    H239541   1.148   6.468  11.400  0.7912  0.1905  1.3044
 5116TIP3   OH239542   6.214   1.662  10.940 -0.0994  0.4159  0.0311
 5116TIP3    H139543   6.251   1.747  10.964 -1.9010  0.8102  1.5835
 5116TIP3    H239544   6.151   1.682  10.871 -0.3018  0.2777  0.1778
 5117TIP3   OH239545   5.220   6.691  12.440 -0.4906  0.3360 -0.3038
 5117TIP3    H139546   5.140   6.732  12.407  0.1886 -0.6581 -3.6186
 5117TIP3    H239547   5.217   6.602  12.404  1.4525 -0.1511  0.6210
 5118TIP3   OH239548   2.688   1.933  10.702 -0.0283 -0.1007  0.1359
 5118TIP3    H139549   2.715   1.937  10.794  0.8635  0.6479 -0.1447
 5118TIP3    H239550   2.766   1.906  10.655 -0.5020 -0.5451 -0.4052
 5119TIP3   OH239551   1.868   2.003   9.332 -0.2519 -0.3040  0.1269
 5119TIP3    H139552   1.957   2.003   9.368  0.1953 -0.8382 -0.9332
 5119TIP3    H239553   1.816   1.955   9.397  0.1407  0.3231  0.9314
 5120TIP3   OH239554   0.194   2.433  11.051  0.1919 -0.4542  0.6215
 5120TIP3    H139555   0.279   2.470  11.026 -0.9271 -0.3271 -3.7528
 5120TIP3    H239556   0.201   2.340  11.028 -1.1406 -0.2088 -0.9620
 5121TIP3   OH239557   4.722   0.448   9.541 -0.0226 -0.3213  0.3023
 5121TIP3    H139558   4.717   0.407   9.454  1.1320  1.4221 -0.6669
 5121TIP3    H239559   4.806   0.421   9.576  0.3006  0.3706  0.0860
 5122TIP3   OH239560   3.752   0.559  10.397  0.2275  0.0423  0.0965
 5122TIP3    H139561   3.682   0.619  10.422  0.6542  0.4971  0.2012
 5122TIP3    H239562   3.711   0.501  10.332 -0.2841  0.2057  0.2654
 5123TIP3   OH239563   2.168   4.082  12.656 -0.0177  0.1088  0.5792
 5123TIP3    H139564   2.262   4.069  12.667  0.5035  1.5324 -1.5841
 5123TIP3    H239565   2.140   4.011  12.599  0.3224  1.1719 -0.9617
 5124TIP3   OH239566   2.852   3.747  11.887 -0.7900 -0.2218  0.1853
 5124TIP3    H139567   2.876   3.730  11.978  0.7830 -0.2275 -0.2035
 5124TIP3    H239568   2.767   3.789  11.892 -1.2168 -1.1790  1.6019
 5125TIP3   OH239569   1.610   3.757  12.879  0.2444 -0.2768  0.1525
 5125TIP3    H139570   1.591   3.683  12.937  0.5486 -0.2939  0.2346
 5125TIP3    H239571   1.559   3.830  12.916  0.7101 -0.1959  0.6622
 5126TIP3   OH239572   0.379   2.831   9.824 -0.2034 -0.1402 -0.2479
 5126TIP3    H139573   0.398   2.744   9.790  0.5367  0.5474 -1.7081
 5126TIP3    H239574   0.367   2.819   9.918  0.0693 -1.7707 -0.4023
 5127TIP3   OH239575   3.931   0.791  12.767 -0.3868  0.8369  0.1916
 5127TIP3    H139576   3.918   0.882  12.792  1.4465  1.1969 -0.0089
 5127TIP3    H239577   3.940   0.793  12.672  1.9904  0.8439  0.3454
 5128TIP3   OH239578   6.448   3.388   9.987 -0.6481  0.1521 -1.1652
 5128TIP3    H139579   6.454   3.399  10.082 -1.9328 -0.9014 -0.9268
 5128TIP3    H239580   6.450   3.477   9.953  0.4436  0.5167 -0.2014
 5129TIP3   OH239581   2.961   6.645  10.670 -0.1233 -0.4035  0.2137
 5129TIP3    H139582   2.937   6.679  10.757 -2.0433 -0.7499 -0.1308
 5129TIP3    H239583   2.968   6.551  10.683 -2.4957 -0.7289 -0.3625
 5130TIP3   OH239584   4.528   3.286  12.827 -0.1853  0.0101 -0.2195
 5130TIP3    H139585   4.600   3.319  12.880  0.1514  0.5061 -0.9825
 5130TIP3    H239586   4.464   3.357  12.826 -0.3184 -0.1091 -0.2539
 5131TIP3   OH239587   3.658   4.135  10.398  0.1709 -0.3278 -0.4176
 5131TIP3    H139588   3.613   4.215  10.374  1.6204  0.0542 -2.1208
 5131TIP3    H239589   3.624   4.069  10.337  0.5711 -0.4636 -0.4992
 5132TIP3   OH239590   5.757   3.046  13.279 -0.4711  0.1068 -0.3441
 5132TIP3    H139591   5.729   3.135  13.300  1.8031  0.3300  2.3491
 5132TIP3    H239592   5.676   2.995  13.280 -1.5085  1.6338  1.3651
 5133TIP3   OH239593   1.498   2.757  10.970 -0.5610 -0.0866  0.2088
 5133TIP3    H139594   1.449   2.719  10.897  0.3660  0.1357 -0.5527
 5133TIP3    H239595   1.587   2.723  10.960 -0.5459 -0.5173  1.5908
 5134TIP3   OH239596   6.168   6.813  12.082 -0.0736  0.5466 -0.2316
 5134TIP3    H139597   6.092   6.812  12.024 -0.9435  0.5882  0.8660
 5134TIP3    H239598   6.144   6.874  12.152  1.6815  1.9051 -0.7515
 5135TIP3   OH239599   5.384   1.391  12.830 -0.4764 -0.5892 -0.3198
 5135TIP3    H139600   5.294   1.374  12.803 -0.2152 -0.4652 -1.3163
 5135TIP3    H239601   5.409   1.469  12.780 -0.7795  1.2214  2.1569
 5136TIP3   OH239602   1.891   1.693  10.576  0.3028  0.0164  0.0612
 5136TIP3    H139603   1.883   1.729  10.488 -0.9563 -1.6908 -0.5791
 5136TIP3    H239604   1.812   1.723  10.622  0.2199 -0.3062  0.1330
 5137TIP3   OH239605   1.074   2.062  12.030  0.1055  0.0203  1.0655
 5137TIP3    H139606   1.139   2.132  12.034 -1.7452  1.8449  0.8196
 5137TIP3    H239607   1.038   2.059  12.119  0.8076 -1.3127  1.3294
 5138TIP3   OH239608   5.466   6.152  12.684  0.0466  0.2745 -0.1558
 5138TIP3    H139609   5.526   6.077  12.682  2.1215  1.8343  0.0141
 5138TIP3    H239610   5.503   6.214  12.622 -0.8759  1.6854  0.6397
 5139TIP3   OH239611   1.978   3.605  12.126  0.1880  0.1011 -0.4466
 5139TIP3    H139612   1.955   3.515  12.103  3.9164 -0.8198 -1.2299
 5139TIP3    H239613   2.055   3.596  12.183  0.3777  2.7829 -0.1744
 5140TIP3   OH239614   1.468   4.957  12.113 -0.3632  0.0281 -0.8504
 5140TIP3    H139615   1.482   4.887  12.049  0.1452 -0.1150 -0.5829
 5140TIP3    H239616   1.537   4.945  12.177 -0.1215  0.9375 -0.9325
 5141TIP3   OH239617   1.747   2.044  10.957 -0.2154 -0.4371 -0.5860
 5141TIP3    H139618   1.778   1.954  10.969 -0.0449 -0.3678 -0.5002
 5141TIP3    H239619   1.824   2.098  10.976 -0.8528 -0.1716  1.4911
 5142TIP3   OH239620   0.017   5.106  10.952  0.6005  0.1035  0.3744
 5142TIP3    H139621  -0.015   5.125  11.040  2.7805  0.9099  1.0631
 5142TIP3    H239622   0.056   5.188  10.922  0.6089 -0.3826 -1.0150
 5143TIP3   OH239623   3.945   1.387  13.056  0.3069  0.4277 -0.0053
 5143TIP3    H139624   4.021   1.334  13.032 -0.4052  0.1957 -2.0110
 5143TIP3    H239625   3.970   1.477  13.034  0.0149  0.3437 -0.7278
 5144TIP3   OH239626   1.892   1.339  11.783 -0.3092  0.0874  0.4179
 5144TIP3    H139627   1.921   1.294  11.704 -0.0095  0.5266  0.2763
 5144TIP3    H239628   1.796   1.342  11.774 -0.1715  2.4727 -1.2594
 5145TIP3   OH239629   0.580   1.952  10.478  0.2886 -0.3308  0.1477
 5145TIP3    H139630   0.524   1.877  10.458 -1.2809  0.7278  0.3612
 5145TIP3    H239631   0.641   1.956  10.404 -2.0208  0.3780 -1.8713
 5146TIP3   OH239632   1.923   2.409  10.792  0.1452 -0.1749  0.2283
 5146TIP3    H139633   1.901   2.369  10.709 -1.9386 -0.5662  0.9145
 5146TIP3    H239634   1.968   2.491  10.768 -3.6027  1.6349 -1.4848
 5147TIP3   OH239635   5.263   0.344  10.780  0.4710  0.2345 -0.2498
 5147TIP3    H139636   5.252   0.252  10.757 -1.9627  0.6670 -1.1255
 5147TIP3    H239637   5.325   0.378  10.716 -0.1056 -0.3769 -1.1487
 5148TIP3   OH239638   6.554   4.769  12.515  0.5084 -0.0320  0.2639
 5148TIP3    H139639   6.616   4.792  12.446 -0.0775  0.1065 -0.2266
 5148TIP3    H239640   6.486   4.837  12.511 -0.8831 -1.4092 -0.7410
 5149TIP3   OH239641   6.065   3.119  10.107 -0.4369  0.4402  0.0514
 5149TIP3    H139642   6.080   3.098  10.200 -1.3754 -0.8276 -0.0679
 5149TIP3    H239643   6.009   3.197  10.109 -0.1347  0.6537  0.5377
 5150TIP3   OH239644   0.303   2.256  13.253 -0.4041 -0.8095  0.0233
 5150TIP3    H139645   0.394   2.268  13.227 -0.8706  1.1337 -0.8644
 5150TIP3    H239646   0.253   2.260  13.172 -1.2563 -2.7700  0.3881
 5151TIP3   OH239647   2.085   2.926  12.915  0.2845  0.4860 -0.1027
 5151TIP3    H139648   1.993   2.943  12.897  0.2493 -0.8366 -1.4490
 5151TIP3    H239649   2.132   2.970  12.844  0.5385 -0.3229 -0.4562
 5152TIP3   OH239650   5.962   0.989  11.580 -0.0310  0.6678  0.5457
 5152TIP3    H139651   5.957   0.972  11.486  0.9469  1.3417  0.3474
 5152TIP3    H239652   6.022   1.064  11.587 -0.4916  0.9516  1.6690
 5153TIP3   OH239653   3.570   3.106  10.326 -0.0068  0.0462  0.0210
 5153TIP3    H139654   3.641   3.133  10.268 -0.9320 -2.3608 -2.4714
 5153TIP3    H239655   3.502   3.172  10.313 -0.4375 -0.7507 -2.2506
 5154TIP3   OH239656   2.177   4.990  11.268 -0.1865 -0.3494  0.0627
 5154TIP3    H139657   2.247   5.045  11.301 -0.1842  0.4031 -1.1451
 5154TIP3    H239658   2.101   5.012  11.322  0.2903 -0.5499  0.8156
 5155TIP3   OH239659   0.568   4.912  12.600 -0.0510  0.2978 -0.2021
 5155TIP3    H139660   0.485   4.883  12.637  0.1369  0.0259  0.0083
 5155TIP3    H239661   0.635   4.864  12.649  0.1837 -0.5785 -1.3360
 5156TIP3   OH239662   0.016   3.812   9.691  0.1210 -0.1353 -0.1267
 5156TIP3    H139663   0.084   3.787   9.628 -0.1539 -2.5174  0.4142
 5156TIP3    H239664  -0.062   3.766   9.661  0.1132 -1.7807  2.1481
 5157TIP3   OH239665   2.759   4.360  10.257 -0.1264 -0.8920 -0.1497
 5157TIP3    H139666   2.728   4.397  10.340  0.7866 -1.3078  0.3896
 5157TIP3    H239667   2.853   4.377  10.258 -0.1779 -0.4500 -1.3429
 5158TIP3   OH239668   5.681   2.378  12.364 -0.3242 -0.8872  0.1061
 5158TIP3    H139669   5.604   2.332  12.332 -0.6951 -1.6546  1.9699
 5158TIP3    H239670   5.651   2.468  12.376 -0.6391 -0.9591 -0.1097
 5159TIP3   OH239671   1.160   1.137  11.414  0.4882  0.1198  0.4945
 5159TIP3    H139672   1.173   1.230  11.429 -0.0298 -0.0229  2.0257
 5159TIP3    H239673   1.244   1.105  11.382  1.0203  0.9201  1.0575
 5160TIP3   OH239674   1.856   2.993  10.955  0.1381 -0.1322 -0.3426
 5160TIP3    H139675   1.909   3.070  10.975  1.0885 -1.2140  1.5993
 5160TIP3    H239676   1.890   2.960  10.872 -0.1284  1.3785 -1.0697
 5161TIP3   OH239677   6.596   4.532  10.760  0.0684  0.1878 -0.2020
 5161TIP3    H139678   6.528   4.467  10.743  0.5582 -0.1720 -0.8105
 5161TIP3    H239679   6.573   4.568  10.846  0.8315 -2.1296  1.0573
 5162TIP3   OH239680   4.826   0.310  12.299 -0.4477 -0.4781  0.3548
 5162TIP3    H139681   4.804   0.361  12.221 -1.0679 -1.0940  0.1195
 5162TIP3    H239682   4.922   0.313  12.303 -0.4486  0.1775 -0.0063
 5163TIP3   OH239683   5.825   0.296  12.821 -0.3436 -0.1983  0.5678
 5163TIP3    H139684   5.763   0.344  12.876  1.3074  0.7300  1.6892
 5163TIP3    H239685   5.770   0.231  12.776 -1.9753 -0.1952  2.3657
 5164TIP3   OH239686   6.400   3.749  12.625 -0.1417  0.6967  0.1459
 5164TIP3    H139687   6.308   3.752  12.651  0.3255 -0.7808  2.2469
 5164TIP3    H239688   6.447   3.777  12.703  1.2500 -0.2989 -0.3005
 5165TIP3   OH239689   6.697   2.907  13.293 -0.3584  0.3587 -0.3199
 5165TIP3    H139690   6.776   2.954  13.321 -0.4791  0.1027  0.4768
 5165TIP3    H239691   6.723   2.861  13.213  0.9624 -1.4478  1.0641
 5166TIP3   OH239692   0.375   3.627  10.853 -0.3706 -0.1684 -0.5050
 5166TIP3    H139693   0.441   3.625  10.921 -1.4435 -0.1559  0.5762
 5166TIP3    H239694   0.353   3.720  10.842 -0.9089 -0.2429 -0.1305
 5167TIP3   OH239695   4.076   6.004  11.315 -0.4192 -0.0969 -0.0164
 5167TIP3    H139696   4.117   5.934  11.365  1.1307  0.2874 -0.6773
 5167TIP3    H239697   4.147   6.039  11.261 -1.6780  0.4880 -1.3666
 5168TIP3   OH239698   3.303   4.382  11.427  0.0776 -0.0704  0.2730
 5168TIP3    H139699   3.262   4.359  11.344  0.1463  2.6659 -0.6028
 5168TIP3    H239700   3.334   4.298  11.462 -2.4113 -1.6710 -1.0605
 5169TIP3   OH239701   5.588   6.232  11.202  0.4967  0.0706 -0.0746
 5169TIP3    H139702   5.576   6.154  11.257  1.3098  0.5486  0.8002
 5169TIP3    H239703   5.659   6.209  11.143 -0.4543 -0.4859 -1.0324
 5170TIP3   OH239704   0.900   2.110  10.484  0.1163  0.0618 -0.6030
 5170TIP3    H139705   0.869   2.079  10.399 -0.7111  0.6738 -0.5376
 5170TIP3    H239706   0.974   2.052  10.506 -2.8326 -3.6239  0.6995
 5171TIP3   OH239707   6.216   3.525  11.063  0.1559  0.0256 -0.4744
 5171TIP3    H139708   6.253   3.446  11.026 -1.1750 -1.8292  1.8765
 5171TIP3    H239709   6.289   3.568  11.107  0.7843 -0.1192 -1.3484
 5172TIP3   OH239710   3.900   3.531  10.189  0.5636  0.4456  0.0722
 5172TIP3    H139711   3.953   3.541  10.110  2.2284 -3.0799  0.5331
 5172TIP3    H239712   3.941   3.589  10.253  1.6878  0.4218 -0.5915
 5173TIP3   OH239713   1.756   0.534  11.642 -0.9423  0.3786  0.6447
 5173TIP3    H139714   1.767   0.474  11.716 -0.8363 -0.8522 -0.3379
 5173TIP3    H239715   1.681   0.500  11.595  0.3187 -0.2034 -1.0414
 5174TIP3   OH239716   0.263   2.561  13.241 -0.3126 -0.4404 -0.5010
 5174TIP3    H139717   0.241   2.470  13.222 -2.6257 -0.3306  1.2058
 5174TIP3    H239718   0.296   2.560  13.332 -0.1525  0.4057 -0.5377
 5175TIP3   OH239719   3.087   2.665  11.748 -0.5529  0.4259  0.1986
 5175TIP3    H139720   3.076   2.668  11.843  1.1672 -1.7784  0.5423
 5175TIP3    H239721   3.182   2.669  11.735 -0.6504 -1.1740 -1.2924
 5176TIP3   OH239722   6.290   6.764  11.612 -0.6759 -0.2846  0.2940
 5176TIP3    H139723   6.283   6.833  11.678 -0.5526  0.0866 -0.0801
 5176TIP3    H239724   6.281   6.683  11.662 -0.5364 -0.0091  0.7756
 5177TIP3   OH239725   1.472   1.087  10.228  0.0418  0.5389 -0.1715
 5177TIP3    H139726   1.407   1.017  10.230 -0.4582  1.0085  0.4894
 5177TIP3    H239727   1.529   1.065  10.154 -0.8409  0.0966 -0.7329
 5178TIP3   OH239728   4.120   5.102  11.921  0.2759 -0.0213  0.0078
 5178TIP3    H139729   4.037   5.137  11.956  0.4757 -0.5621  1.0594
 5178TIP3    H239730   4.094   5.056  11.841 -0.1336  1.5993 -0.8461
 5179TIP3   OH239731   0.614   1.074  12.819  0.1761 -0.1445 -0.2666
 5179TIP3    H139732   0.644   0.987  12.845 -0.3566 -0.2648 -0.0395
 5179TIP3    H239733   0.545   1.096  12.882  0.2122  0.3852 -0.4015
 5180TIP3   OH239734   0.794   1.093  10.831 -0.5439  0.3111  0.5301
 5180TIP3    H139735   0.741   1.158  10.878 -0.5811  2.2534 -1.9950
 5180TIP3    H239736   0.754   1.087  10.745  0.9030 -1.3188 -0.0910
 5181TIP3   OH239737   6.188   2.950   9.942  0.1019 -0.9611 -0.4382
 5181TIP3    H139738   6.178   3.015  10.012  0.6026 -0.2462 -1.0148
 5181TIP3    H239739   6.197   3.002   9.862  1.0261 -1.7238 -0.8515
 5182TIP3   OH239740   3.369   5.381  12.189 -0.2733 -0.4826 -0.0836
 5182TIP3    H139741   3.293   5.367  12.134  0.8171  1.5986 -2.2864
 5182TIP3    H239742   3.427   5.307  12.170 -1.3192 -1.5872  0.9214
 5183TIP3   OH239743   6.237   5.761  11.763 -0.0658  0.0924  0.4615
 5183TIP3    H139744   6.231   5.736  11.855 -0.2320 -0.3489  0.3322
 5183TIP3    H239745   6.146   5.771  11.735 -0.1456 -2.2805 -0.3303
 5184TIP3   OH239746   6.349   3.834   9.483  0.1989 -0.0832 -1.0930
 5184TIP3    H139747   6.335   3.740   9.469 -1.6758 -0.0100 -0.1346
 5184TIP3    H239748   6.336   3.846   9.577  1.2510  1.0243 -1.0676
 5185TIP3   OH239749   2.172   2.470  11.271  0.2132 -0.0633 -0.0236
 5185TIP3    H139750   2.241   2.404  11.271 -0.1071 -0.4063  0.2321
 5185TIP3    H239751   2.155   2.487  11.364  0.6911  0.8069 -0.0881
 5186TIP3   OH239752   2.641   2.847  11.059 -0.5505 -0.5081 -0.1605
 5186TIP3    H139753   2.651   2.926  11.006  0.3352  0.8245  1.8512
 5186TIP3    H239754   2.560   2.862  11.108 -0.8380 -1.2637 -0.3934
 5187TIP3   OH239755   0.164   0.936  10.699 -0.7369 -0.1612  0.7158
 5187TIP3    H139756   0.253   0.969  10.686  0.0730 -1.6221  2.1154
 5187TIP3    H239757   0.138   0.902  10.614  0.0617  0.2488  0.3001
 5188TIP3   OH239758   6.443   1.057  13.113 -0.0721 -0.1050 -0.0485
 5188TIP3    H139759   6.510   1.107  13.067 -1.7090  2.0151 -0.3016
 5188TIP3    H239760   6.391   1.016  13.043 -0.4340  0.1863  0.0473
 5189TIP3   OH239761   0.309   5.299  11.780  0.3452  0.3632  0.1103
 5189TIP3    H139762   0.282   5.207  11.769 -0.5247  0.4584  1.2532
 5189TIP3    H239763   0.302   5.315  11.874  1.2770  1.3781  0.0229
 5190TIP3   OH239764   6.850   5.585   9.597 -0.0110 -0.5646  0.1842
 5190TIP3    H139765   6.944   5.600   9.585  0.0279 -1.2475 -0.4570
 5190TIP3    H239766   6.833   5.505   9.549 -1.2414  0.4326 -1.1136
 5191TIP3   OH239767   0.734   1.616  10.470 -0.3217 -0.0241  0.3732
 5191TIP3    H139768   0.743   1.632  10.376  0.1339 -0.8779  0.2571
 5191TIP3    H239769   0.803   1.668  10.511  0.4432 -0.7831  0.0936
 5192TIP3   OH239770   4.749   5.422   9.823  0.1232  0.8231  0.2728
 5192TIP3    H139771   4.803   5.384   9.753 -1.6148  0.7944 -1.1149
 5192TIP3    H239772   4.779   5.513   9.829  0.4675  0.7579 -0.3325
 5193TIP3   OH239773   0.153   3.111  10.439  0.3811 -0.7573  0.0725
 5193TIP3    H139774   0.188   3.023  10.428  3.0608  0.0029  1.7386
 5193TIP3    H239775   0.228   3.169  10.430 -1.1052  1.3178  0.1599
 5194TIP3   OH239776   1.768   4.621  12.110  0.5503  0.3396  0.6509
 5194TIP3    H139777   1.724   4.680  12.171  0.0793  0.0864  0.5633
 5194TIP3    H239778   1.791   4.545  12.164  0.9431  0.4974  0.7111
 5195TIP3   OH239779   4.386   2.031  11.120  0.0349  0.6424  0.5068
 5195TIP3    H139780   4.393   2.119  11.158 -0.0969  0.9004 -0.0496
 5195TIP3    H239781   4.476   2.001  11.113  0.3671  1.9473 -2.0422
 5196TIP3   OH239782   2.665   4.775  11.520  0.1397  0.3300 -0.9361
 5196TIP3    H139783   2.755   4.783  11.549 -0.0307  0.3182 -0.3963
 5196TIP3    H239784   2.663   4.819  11.434  0.6917  0.1746 -1.0300
 5197TIP3   OH239785   4.171   2.013  13.185  0.0038 -0.1402  0.8896
 5197TIP3    H139786   4.172   1.996  13.279 -0.6638  0.3292  0.9892
 5197TIP3    H239787   4.110   2.086  13.174  0.6461  0.3038  0.1684
 5198TIP3   OH239788   4.245   3.623  11.694  0.2763  0.6226 -0.0320
 5198TIP3    H139789   4.219   3.714  11.680 -0.0258  0.2688 -2.1123
 5198TIP3    H239790   4.205   3.599  11.778  0.8060  2.5330  0.8253
 5199TIP3   OH239791   2.583   2.922  12.072 -0.3062 -0.1241 -0.5273
 5199TIP3    H139792   2.652   2.988  12.081  1.0442 -1.4807 -0.5895
 5199TIP3    H239793   2.590   2.869  12.151 -0.4000 -1.0762 -1.1423
 5200TIP3   OH239794   2.476   6.434  11.846  0.1342 -1.2172  0.3472
 5200TIP3    H139795   2.472   6.340  11.866  2.3373 -1.0463  1.9096
 5200TIP3    H239796   2.531   6.439  11.768 -0.3188 -1.2439  0.0242
 5201TIP3   OH239797   6.448   0.046  13.202  0.0347 -0.1389  0.0633
 5201TIP3    H139798   6.493   0.131  13.200 -0.3219  0.0456 -0.3324
 5201TIP3    H239799   6.358   0.066  13.173 -0.2864 -0.5118  0.7789
 5202TIP3   OH239800   4.524   2.363  12.503  0.2678  0.1779  0.3046
 5202TIP3    H139801   4.497   2.434  12.561  0.9172  1.1313 -0.5123
 5202TIP3    H239802   4.611   2.338  12.536 -0.2716 -0.7891  1.0565
 5203TIP3   OH239803   0.038   6.013  12.060  0.3980  1.0531  0.2661
 5203TIP3    H139804   0.037   5.941  12.123  0.7567  0.5558 -0.2789
 5203TIP3    H239805   0.093   5.981  11.989  1.6642  2.3873  0.6059
 5204TIP3   OH239806   0.868   1.239  11.740  0.0455  0.2019 -0.2279
 5204TIP3    H139807   0.930   1.176  11.702 -2.6030 -3.6004  1.0870
 5204TIP3    H239808   0.883   1.234  11.834 -0.9297  0.7205 -0.0360
 5205TIP3   OH239809   0.803   1.549  11.343 -0.0716  0.2032 -0.3884
 5205TIP3    H139810   0.801   1.462  11.383 -1.9394  0.1140 -0.5734
 5205TIP3    H239811   0.846   1.535  11.258  1.8646 -0.0293  0.5779
 5206TIP3   OH239812   3.355   0.502  12.037  0.1914 -0.1476 -0.5068
 5206TIP3    H139813   3.381   0.526  12.126 -1.5341 -2.2276  0.6446
 5206TIP3    H239814   3.334   0.585  11.995 -0.7374  0.7581  1.6265
 5207TIP3   OH239815   0.700   0.547  12.126 -0.7283  0.3769  0.2557
 5207TIP3    H139816   0.658   0.463  12.145 -1.1120  0.5537  0.1952
 5207TIP3    H239817   0.711   0.588  12.211  1.1291 -0.5072  0.4899
 5208TIP3   OH239818   4.310   1.530  12.946 -0.0450  0.1939  0.0871
 5208TIP3    H139819   4.403   1.552  12.937  0.3948 -1.0294  1.3025
 5208TIP3    H239820   4.265   1.613  12.933  1.2181  0.8157 -0.5049
 5209TIP3   OH239821   2.890   4.583  10.883  0.0924 -0.1506  0.1879
 5209TIP3    H139822   2.882   4.490  10.902 -1.4618 -0.1094 -0.1599
 5209TIP3    H239823   2.882   4.589  10.788 -1.0990  0.4362  0.3109
 5210TIP3   OH239824   4.255   4.072  10.684 -0.0451  0.1882 -0.0232
 5210TIP3    H139825   4.277   4.071  10.591 -0.4936 -1.4362 -0.1573
 5210TIP3    H239826   4.166   4.034  10.687 -0.7225  1.7744  0.9282
 5211TIP3   OH239827   1.262   1.721  11.754  0.0033  0.3423 -0.1430
 5211TIP3    H139828   1.202   1.661  11.799  1.5102 -2.0183 -1.0561
 5211TIP3    H239829   1.266   1.798  11.810 -2.8716  0.0978  0.5640
 5212TIP3   OH239830   4.984   2.183  12.408  0.2213  0.2305 -0.4955
 5212TIP3    H139831   5.054   2.241  12.438 -1.7897  2.3415  0.3983
 5212TIP3    H239832   4.946   2.229  12.332  0.9431 -1.8033 -2.1762
 5213TIP3   OH239833   0.438   0.502  11.009 -0.0549  0.1703 -0.0249
 5213TIP3    H139834   0.422   0.594  11.030 -1.2897 -0.3635  1.6001
 5213TIP3    H239835   0.440   0.499  10.913  0.9829  2.0148 -0.1068
 5214TIP3   OH239836   3.451   0.782   9.597 -0.3158 -0.3635 -0.1268
 5214TIP3    H139837   3.362   0.800   9.627  0.6954  1.7957  1.9793
 5214TIP3    H239838   3.497   0.751   9.676  1.3203  0.7916 -0.5604
 5215TIP3   OH239839   6.430   5.401  10.823 -0.9200  0.3455  0.3279
 5215TIP3    H139840   6.455   5.336  10.889 -0.5220  0.2491  0.0857
 5215TIP3    H239841   6.339   5.421  10.843 -1.7686 -1.9256 -0.9370
 5216TIP3   OH239842   0.288   1.808  12.203 -0.5531  0.1845  0.3421
 5216TIP3    H139843   0.333   1.772  12.279  0.6485  0.7401 -0.0826
 5216TIP3    H239844   0.207   1.758  12.197  0.1677 -1.0906  0.9140
 5217TIP3   OH239845   1.139   1.520  10.556  0.5321 -0.1006 -0.4968
 5217TIP3    H139846   1.061   1.570  10.579  1.6919  1.5653  0.0430
 5217TIP3    H239847   1.155   1.463  10.632  0.1438 -0.0594 -0.3853
 5218TIP3   OH239848   6.337   3.545  11.419  0.2747 -0.1326  0.4587
 5218TIP3    H139849   6.388   3.570  11.342 -0.5142  1.8383  0.5411
 5218TIP3    H239850   6.385   3.584  11.492  1.4371 -2.6045  1.1404
 5219TIP3   OH239851   6.182   0.751  12.123  0.5945 -0.3318 -0.0243
 5219TIP3    H139852   6.191   0.799  12.041  0.7234 -0.2486  0.0377
 5219TIP3    H239853   6.136   0.671  12.100  2.5231 -1.3339 -0.5589
 5220TIP3   OH239854   3.092   3.861  10.222  0.4798 -0.1627 -0.9599
 5220TIP3    H139855   3.153   3.804  10.176  0.9670 -1.0860  0.7408
 5220TIP3    H239856   3.006   3.822  10.207  0.8673 -1.7913  0.6941
 5221TIP3   OH239857   2.742   2.262  12.003  0.6937 -0.0421  0.2966
 5221TIP3    H139858   2.814   2.288  12.060  1.1872 -1.2198  0.2463
 5221TIP3    H239859   2.712   2.179  12.039  0.7751 -0.6293 -0.9365
 5222TIP3   OH239860   2.432   2.184  11.777  0.3615  0.3844  0.2873
 5222TIP3    H139861   2.424   2.229  11.861 -0.9405 -0.7189  0.8062
 5222TIP3    H239862   2.509   2.223  11.736  0.5435  1.5325  1.6256
 5223TIP3   OH239863   5.545   5.993  12.071  0.1064  0.1128  0.3461
 5223TIP3    H139864   5.570   5.937  12.144 -0.8415 -0.4058  0.2819
 5223TIP3    H239865   5.610   5.974  12.003 -0.8411 -1.7632 -0.0877
 5224TIP3   OH239866   1.566   5.497  10.258  0.0427 -0.8059 -0.6463
 5224TIP3    H139867   1.579   5.429  10.192  1.9005  0.2965 -1.4838
 5224TIP3    H239868   1.615   5.572  10.226 -2.3752  1.1842 -0.0284
 5225TIP3   OH239869   5.294   2.136  12.770 -0.4924 -0.0110 -0.2622
 5225TIP3    H139870   5.263   2.218  12.810  0.7314  0.7434 -0.8022
 5225TIP3    H239871   5.359   2.164  12.706 -0.5267 -1.3829 -0.9264
 5226TIP3   OH239872   2.655   6.384  11.294 -0.2472  0.6496 -0.2418
 5226TIP3    H139873   2.739   6.392  11.248 -0.4638  0.1074 -0.7406
 5226TIP3    H239874   2.632   6.474  11.317  1.7118  0.6367  2.2016
 5227TIP3   OH239875   1.545   0.913  10.829 -0.1817 -0.0408  0.2143
 5227TIP3    H139876   1.630   0.906  10.786 -0.1376  1.0386  0.0934
 5227TIP3    H239877   1.483   0.924  10.757 -0.3198  0.0482  0.3479
 5228TIP3   OH239878   2.576   5.293  11.602 -0.0041  0.0234 -0.1513
 5228TIP3    H139879   2.584   5.246  11.519  1.4907  0.9220 -0.5499
 5228TIP3    H239880   2.662   5.332  11.617 -0.4284  0.4174  1.5104
 5229TIP3   OH239881   0.151   1.692  10.305 -0.0216  0.0030 -0.2322
 5229TIP3    H139882   0.154   1.640  10.225 -0.8822 -0.4791  0.0268
 5229TIP3    H239883   0.241   1.691  10.338  0.3239  0.1295 -1.1298
 5230TIP3   OH239884   4.470   0.731  11.898  0.3912  0.3621  0.0791
 5230TIP3    H139885   4.492   0.721  11.990 -0.4216 -2.8476  0.0363
 5230TIP3    H239886   4.549   0.766  11.857  1.9420 -1.3564  1.4750
 5231TIP3   OH239887   4.390   2.465  10.442 -0.0043  0.3503  0.1055
 5231TIP3    H139888   4.295   2.471  10.452 -0.1069 -0.4015 -0.3139
 5231TIP3    H239889   4.402   2.415  10.361  0.7487  0.4073  0.1780
 5232TIP3   OH239890   2.982   6.832  12.526 -0.1655  0.4088  0.0166
 5232TIP3    H139891   2.950   6.906  12.473 -1.7906 -0.7275 -0.7003
 5232TIP3    H239892   2.903   6.779  12.542  1.0946 -1.7175 -0.4078
 5233TIP3   OH239893   1.969   1.542  12.738 -0.4087  0.2223 -0.3337
 5233TIP3    H139894   1.900   1.582  12.792 -1.2231  1.2564 -2.0517
 5233TIP3    H239895   1.927   1.527  12.653  0.5696 -2.2158 -0.4480
 5234TIP3   OH239896   4.342   5.020  12.660  0.2922 -0.0302 -0.6552
 5234TIP3    H139897   4.286   5.096  12.675  0.8063  0.3434 -0.5815
 5234TIP3    H239898   4.429   5.058  12.647  1.4538 -0.7362  3.5794
 5235TIP3   OH239899   2.481   1.577  11.540  0.2654 -0.5277 -0.5060
 5235TIP3    H139900   2.439   1.647  11.589 -1.6873 -0.8316 -1.6753
 5235TIP3    H239901   2.512   1.516  11.607  0.1024  0.4057  0.4366
 5236TIP3   OH239902   5.056   6.033  12.581  0.7147  0.0852 -0.4198
 5236TIP3    H139903   5.004   5.975  12.524  1.6838 -1.1811 -0.0664
 5236TIP3    H239904   5.088   5.975  12.650  1.7386  1.0641 -0.0559
 5237TIP3   OH239905   0.114   6.631  10.492  0.2530 -0.1186 -0.6374
 5237TIP3    H139906   0.024   6.600  10.493  0.7313 -1.6496 -1.4054
 5237TIP3    H239907   0.108   6.724  10.513 -1.4070 -0.3985  0.2989
 5238TIP3   OH239908   2.522   0.515  12.553  0.6003  0.0221 -0.2750
 5238TIP3    H139909   2.523   0.462  12.473  1.5532  1.2159 -1.0904
 5238TIP3    H239910   2.576   0.466  12.615 -0.8309 -1.3427 -0.0116
 5239TIP3   OH239911   0.788   5.971  11.127 -0.1914  0.3053  1.0443
 5239TIP3    H139912   0.693   5.970  11.129 -0.4725 -1.5501 -3.1394
 5239TIP3    H239913   0.811   6.057  11.092 -0.9827 -1.1899 -3.9426
 5240TIP3   OH239914   3.210   4.280  13.139  0.0360  0.3066 -0.9785
 5240TIP3    H139915   3.174   4.216  13.200 -1.3460  1.4474 -0.5532
 5240TIP3    H239916   3.291   4.239  13.107  1.3141 -0.0040  2.2373
 5241TIP3   OH239917   5.793   4.114  11.203 -0.7056  0.3400 -0.0602
 5241TIP3    H139918   5.722   4.107  11.139 -1.1360  1.4566  0.2754
 5241TIP3    H239919   5.869   4.076  11.159 -1.2836  0.0112 -0.7852
 5242TIP3   OH239920   5.536   2.799  10.380 -0.2519 -0.1465 -0.7565
 5242TIP3    H139921   5.574   2.781  10.466 -1.0693 -0.2762 -0.4096
 5242TIP3    H239922   5.597   2.860  10.339  0.1477 -0.0763 -0.0749
 5243TIP3   OH239923   4.778   5.192  10.361 -0.0982 -0.0829  0.2211
 5243TIP3    H139924   4.806   5.243  10.286  1.2555  0.5349  1.1096
 5243TIP3    H239925   4.812   5.240  10.437 -0.5583 -1.2202  1.1782
 5244TIP3   OH239926   1.782   6.555  11.751  0.2149  0.3674  0.2170
 5244TIP3    H139927   1.728   6.496  11.804  1.4793 -1.8389 -0.7850
 5244TIP3    H239928   1.867   6.556  11.795  0.2238  1.4730  0.2045
 5245TIP3   OH239929   1.676   4.654  10.704 -0.3564  0.1200 -0.3600
 5245TIP3    H139930   1.666   4.693  10.617 -2.1219 -0.7813 -0.5974
 5245TIP3    H239931   1.745   4.589  10.693  1.7226  2.1973 -0.2628
 5246TIP3   OH239932   5.012   1.663  12.005  0.2930 -0.1391 -0.1732
 5246TIP3    H139933   5.086   1.651  11.946  0.0577  1.1858 -0.7706
 5246TIP3    H239934   4.989   1.574  12.033  0.3911 -0.8087 -2.0820
 5247TIP3   OH239935   5.380   6.573  10.878 -0.0437 -0.4470  0.0283
 5247TIP3    H139936   5.445   6.641  10.894  0.2353 -0.5272 -0.6927
 5247TIP3    H239937   5.411   6.498  10.927 -0.6463  0.0950  1.2842
 5248TIP3   OH239938   1.465   1.771  12.445 -0.1537  0.2588 -0.2833
 5248TIP3    H139939   1.544   1.803  12.402  0.4592 -0.3755  0.3562
 5248TIP3    H239940   1.395   1.787  12.381  0.2602  2.0237 -0.3292
 5249TIP3   OH239941   6.661   6.688  10.089 -0.3612  0.0883 -0.7173
 5249TIP3    H139942   6.701   6.600  10.095  1.6703  1.0028  0.2867
 5249TIP3    H239943   6.697   6.724  10.008  0.3428  0.6754 -0.1530
 5250TIP3   OH239944   3.030   2.829  10.722 -0.0507  0.1448  0.0839
 5250TIP3    H139945   2.985   2.747  10.702  0.7535  0.1011 -1.7659
 5250TIP3    H239946   3.088   2.844  10.647  1.1936  1.4599  1.2362
 5251TIP3   OH239947   0.956   6.372  10.853 -0.2389 -0.2320  0.4503
 5251TIP3    H139948   0.957   6.314  10.777 -0.3182  1.1060 -0.6260
 5251TIP3    H239949   0.913   6.452  10.821 -0.2213  0.3889  1.8938
 5252TIP3   OH239950   1.808   3.738  11.986  0.1873 -0.8275 -0.2433
 5252TIP3    H139951   1.864   3.746  11.909  0.5960 -3.0561 -0.2604
 5252TIP3    H239952   1.862   3.692  12.050 -0.9679 -1.2292  0.4708
 5253TIP3   OH239953   2.585   0.419  12.301  0.4900 -0.1380 -0.0580
 5253TIP3    H139954   2.658   0.372  12.263  0.3007 -0.8082  0.3857
 5253TIP3    H239955   2.529   0.441  12.227  0.7990 -0.2234 -0.3169
 5254TIP3   OH239956   3.979   5.180  10.792 -0.2190  0.1205  0.6020
 5254TIP3    H139957   4.031   5.256  10.818 -0.4019  0.7128 -0.6618
 5254TIP3    H239958   4.013   5.155  10.707 -0.2739 -1.1356  0.9286
 5255TIP3   OH239959   5.428   2.081  12.149  0.3880 -0.0996 -0.3464
 5255TIP3    H139960   5.472   2.003  12.180 -1.3426 -1.8755 -2.0288
 5255TIP3    H239961   5.336   2.055  12.140 -0.1209  1.8760 -1.6937
 5256TIP3   OH239962   3.406   5.841  12.269 -0.0178  0.0172  0.2629
 5256TIP3    H139963   3.311   5.839  12.278 -0.2932  0.5607 -1.8490
 5256TIP3    H239964   3.434   5.750  12.284 -1.1554 -0.6193 -1.1689
 5257TIP3   OH239965   2.941   3.218  11.989 -0.2344 -0.4512  0.5637
 5257TIP3    H139966   2.847   3.208  11.981 -0.3816  0.0711  1.4432
 5257TIP3    H239967   2.966   3.159  12.060  0.0452 -0.3243  0.5740
 5258TIP3   OH239968   0.933   0.049  12.066  0.1382 -0.0783  0.2070
 5258TIP3    H139969   0.858   0.022  12.012  0.6478 -1.4977  0.1608
 5258TIP3    H239970   0.894   0.096  12.139 -1.0238 -2.4373  1.2048
 5259TIP3   OH239971   2.724   2.240  10.895  0.3941 -0.6231 -0.1268
 5259TIP3    H139972   2.744   2.261  10.804  1.1159  0.3384  0.2342
 5259TIP3    H239973   2.630   2.221  10.895  0.0307  0.9693 -0.8070
 5260TIP3   OH239974   2.669   3.065  11.625  0.1484  0.1796 -0.5771
 5260TIP3    H139975   2.731   2.998  11.653 -0.5106 -0.3932 -0.4696
 5260TIP3    H239976   2.585   3.020  11.619 -0.0576  0.6927 -1.8047
 5261TIP3   OH239977   2.135   4.316  11.617  0.6352  0.2454  0.3631
 5261TIP3    H139978   2.108   4.407  11.635  0.0087 -0.1275  1.4198
 5261TIP3    H239979   2.102   4.299  11.529  0.6537  1.0112  0.1997
 5262TIP3   OH239980   3.499   4.749  10.231 -0.0440 -0.3543 -0.8103
 5262TIP3    H139981   3.572   4.736  10.170  0.4212 -0.8583 -0.1628
 5262TIP3    H239982   3.472   4.840  10.218  0.0776 -0.4401 -1.7318
 5263TIP3   OH239983   2.842   2.121  11.197 -0.2130  0.6538 -0.0006
 5263TIP3    H139984   2.785   2.141  11.271  0.4532 -0.1853  0.7613
 5263TIP3    H239985   2.823   2.190  11.133 -0.9000  1.3188  0.8898
 5264TIP3   OH239986   6.433   2.648  11.813 -0.7673 -0.2745 -0.0152
 5264TIP3    H139987   6.384   2.567  11.800 -0.4693 -0.4760  0.1202
 5264TIP3    H239988   6.525   2.622  11.812 -0.6311  0.1964 -0.9506
 5265TIP3   OH239989   0.133   0.562  12.460 -0.3937 -0.6669  0.0531
 5265TIP3    H139990   0.089   0.531  12.380  0.7509 -0.4461 -0.6881
 5265TIP3    H239991   0.175   0.484  12.496 -0.3901 -0.6449  0.0966
 5266TIP3   OH239992   2.676   1.568  11.093  0.3701  0.2192  0.0321
 5266TIP3    H139993   2.694   1.639  11.155  0.3209  1.4660 -1.3105
 5266TIP3    H239994   2.607   1.603  11.036 -2.7337 -2.4716  1.8032
 5267TIP3   OH239995   2.248   5.728  12.317 -0.6202 -0.5923 -0.4379
 5267TIP3    H139996   2.270   5.693  12.231 -0.8627 -1.5872 -0.1125
 5267TIP3    H239997   2.315   5.692  12.375 -0.2094  0.4138 -0.2746
 5268TIP3   OH239998   3.197   3.634  11.078 -0.4346  0.8703  0.0556
 5268TIP3    H139999   3.236   3.547  11.085  0.9430  1.4727  0.2563
 5268TIP3    H240000   3.241   3.685  11.145 -1.9159  1.4931  0.5843
 5269TIP3   OH240001   3.981   4.550  11.669 -0.5965 -0.1445 -0.1179
 5269TIP3    H140002   3.980   4.477  11.607 -0.0277  0.7776 -1.2648
 5269TIP3    H240003   3.930   4.619  11.626 -1.1461  0.1473  0.9500
 5270TIP3   OH240004   5.180   0.802  11.079  0.6219  0.4184 -0.1352
 5270TIP3    H140005   5.102   0.828  11.029  0.9514 -0.0066 -0.8676
 5270TIP3    H240006   5.193   0.710  11.058  0.1516 -0.0674  1.5564
 5271TIP3   OH240007   1.562   0.414  11.485  0.6024 -0.3608 -0.3345
 5271TIP3    H140008   1.501   0.340  11.487  1.1528 -0.8312 -0.4517
 5271TIP3    H240009   1.614   0.399  11.405 -0.0938  0.8195 -1.0354
 5272TIP3   OH240010   4.239   2.606  12.739  0.5896 -0.6078 -0.2153
 5272TIP3    H140011   4.331   2.620  12.717  0.3765 -1.1728 -1.5886
 5272TIP3    H240012   4.191   2.658  12.675 -0.0495 -0.4941  0.3550
 5273TIP3   OH240013   2.536   2.484   9.811 -0.1752  0.2014  0.2890
 5273TIP3    H140014   2.596   2.531   9.752 -0.7483  0.4187 -0.1311
 5273TIP3    H240015   2.575   2.397   9.819  0.5781  0.5618  0.5967
 5274TIP3   OH240016   0.121   1.193  11.996 -0.6184  0.0685  0.2200
 5274TIP3    H140017   0.121   1.282  11.959 -0.6560  0.2561  0.6609
 5274TIP3    H240018   0.144   1.137  11.923  1.9035  0.6589  0.4802
 5275TIP3   OH240019   1.034   4.991  11.640 -0.0496 -0.3401 -0.1354
 5275TIP3    H140020   0.943   4.997  11.612  0.0198  0.0882 -0.2709
 5275TIP3    H240021   1.031   5.000  11.735  0.2273  4.6964 -0.3596
 5276TIP3   OH240022   5.536   1.771  12.047  0.0506  0.0253  0.7580
 5276TIP3    H140023   5.553   1.686  12.007  1.6983  0.0686  1.2846
 5276TIP3    H240024   5.489   1.821  11.980  0.4032 -0.7868 -0.1128
 5277TIP3   OH240025   3.656   4.302  13.331  0.4733  0.3788 -0.0351
 5277TIP3    H140026   3.677   4.393  13.314  1.0579  0.2337 -0.1300
 5277TIP3    H240027   3.578   4.284  13.278 -0.2511  1.0910  0.7662
 5278TIP3   OH240028   4.652   4.731  12.962 -0.1351 -0.2564  0.5869
 5278TIP3    H140029   4.605   4.673  13.022 -0.4823  0.3745  0.9438
 5278TIP3    H240030   4.583   4.770  12.908  0.1819 -0.8613 -0.2693
 5279TIP3   OH240031   0.888   3.589  12.482 -0.4628  0.2360 -0.3528
 5279TIP3    H140032   0.817   3.573  12.419 -1.8608  2.1925  0.6489
 5279TIP3    H240033   0.862   3.668  12.528  3.1242  1.9776 -0.9775
 5280TIP3   OH240034   0.525   5.154  11.465 -0.2582  0.1781  0.4149
 5280TIP3    H140035   0.549   5.095  11.393  0.0528  0.4628  0.2804
 5280TIP3    H240036   0.543   5.241  11.430 -1.7211  0.4279  0.2201
 5281TIP3   OH240037   5.911   1.889  11.857  0.6426  0.1134 -0.2487
 5281TIP3    H140038   5.888   1.837  11.780  0.4687 -0.4669  0.1799
 5281TIP3    H240039   6.005   1.873  11.870  0.4613 -0.6125  0.2470
 5282TIP3   OH240040   4.900   3.093  12.659  0.0736 -0.0348 -0.0821
 5282TIP3    H140041   4.857   3.075  12.742  0.3234 -0.2643  0.0016
 5282TIP3    H240042   4.937   3.009  12.632  0.1624  0.0800 -0.3268
 5283TIP3   OH240043   0.506   4.706  11.106  0.4189 -0.1567  0.0058
 5283TIP3    H140044   0.575   4.642  11.088  3.1704  2.5827 -0.0652
 5283TIP3    H240045   0.504   4.761  11.027 -3.2035 -1.1381 -0.7500
 5284TIP3   OH240046   1.721   0.394  10.588  0.3931  0.1945  0.2198
 5284TIP3    H140047   1.676   0.352  10.515  2.6534  0.0767 -1.2085
 5284TIP3    H240048   1.814   0.381  10.569  1.0688  0.5121  2.9510
 5285TIP3   OH240049   0.998   0.091  12.964 -0.3420  0.1880 -0.3029
 5285TIP3    H140050   0.904   0.077  12.966 -0.1903 -0.7655  0.3957
 5285TIP3    H240051   1.036   0.004  12.952  0.4389  0.6296 -1.2536
 5286TIP3   OH240052   6.522   1.940  12.048  0.0583 -0.4380  0.2174
 5286TIP3    H140053   6.453   1.949  11.982 -1.5536  0.2911  1.9047
 5286TIP3    H240054   6.491   1.870  12.105  1.2331 -0.7983  0.4266
 5287TIP3   OH240055   6.635   3.687  10.974  0.0008 -0.4931  0.1888
 5287TIP3    H140056   6.678   3.691  10.889  0.2612  0.2561  0.3523
 5287TIP3    H240057   6.706   3.697  11.037 -0.1250 -1.5166  0.5119
 5288TIP3   OH240058   6.292   4.361  11.289  0.2341  0.3632  0.7141
 5288TIP3    H140059   6.343   4.442  11.282  0.3614  0.2808  0.7047
 5288TIP3    H240060   6.354   4.295  11.317  0.2320  0.1587  0.2346
 5289TIP3   OH240061   1.974   1.708   9.608 -0.2349  0.4570  0.1835
 5289TIP3    H140062   2.032   1.646   9.652 -1.3180 -0.4014  0.4464
 5289TIP3    H240063   1.965   1.673   9.519 -0.1881  0.6981  0.0843
 5290TIP3   OH240064   4.038   6.803  10.458 -0.3237 -0.6718  0.0662
 5290TIP3    H140065   3.966   6.782  10.517 -1.9127  1.1180 -1.1418
 5290TIP3    H240066   4.001   6.794  10.370  0.4318  1.6895 -0.5719
 5291TIP3   OH240067   4.530   5.101  12.223 -0.3380 -0.7719 -0.1665
 5291TIP3    H140068   4.528   5.189  12.184  0.5504 -1.0493 -0.8887
 5291TIP3    H240069   4.613   5.099  12.271  0.5259 -1.7668 -1.5879
 5292TIP3   OH240070   2.273   5.068  10.415  0.1705 -0.2716 -0.2444
 5292TIP3    H140071   2.332   5.035  10.347 -0.1834 -0.9025 -0.2534
 5292TIP3    H240072   2.186   5.058  10.378  0.0299  0.2573 -0.0610
 5293TIP3   OH240073   6.541   2.205  12.176  0.3237 -0.2732  0.1902
 5293TIP3    H140074   6.494   2.127  12.148 -0.0637 -0.1176  0.4043
 5293TIP3    H240075   6.532   2.206  12.271  0.2204  0.1029  0.1771
 5294TIP3   OH240076   6.640   5.275  12.636  0.7357 -0.2815 -0.0578
 5294TIP3    H140077   6.602   5.224  12.564  0.3198 -0.7214  0.4621
 5294TIP3    H240078   6.600   5.239  12.715 -0.5521  1.7039  0.2614
 5295TIP3   OH240079   4.539   0.590  11.374  0.4809 -0.0305  0.0121
 5295TIP3    H140080   4.558   0.645  11.299 -2.5704  1.0338 -0.1126
 5295TIP3    H240081   4.550   0.500  11.342  1.3648  0.4164 -1.0055
 5296TIP3   OH240082   1.644   0.999  12.417  0.0663  0.1426 -0.0121
 5296TIP3    H140083   1.588   1.057  12.469 -1.2076 -0.5975 -0.5204
 5296TIP3    H240084   1.624   0.911  12.448 -1.4600 -0.4247 -2.2997
 5297TIP3   OH240085   5.435   2.818  11.414  0.2636 -0.5268  0.0576
 5297TIP3    H140086   5.514   2.769  11.389  0.7415 -0.3822  1.1842
 5297TIP3    H240087   5.434   2.894  11.357 -0.6568 -1.9519 -1.9426
 5298TIP3   OH240088   3.203   3.934  11.079 -0.5968  0.0788  0.1913
 5298TIP3    H140089   3.108   3.948  11.078 -0.5206  0.8123  1.2900
 5298TIP3    H240090   3.219   3.894  11.165  0.0931  0.0094  0.0298
 5299TIP3   OH240091   6.559   1.049  11.535 -1.1330  0.0494 -0.0416
 5299TIP3    H140092   6.634   0.993  11.555 -0.2562  0.3564 -2.1888
 5299TIP3    H240093   6.483   0.992  11.546 -0.4608 -0.7678  0.4720
 5300TIP3   OH240094   2.454   1.642  12.598 -0.3912  0.3444  0.4536
 5300TIP3    H140095   2.539   1.679  12.619  0.8081 -0.8595 -1.9407
 5300TIP3    H240096   2.426   1.598  12.678  0.0238  2.8224  2.0658
 5301TIP3   OH240097   0.794   1.232  11.199 -0.3644 -0.1430 -0.0892
 5301TIP3    H140098   0.864   1.173  11.170  0.6699  0.9666  0.0364
 5301TIP3    H240099   0.821   1.260  11.286 -2.2105 -1.5386  0.9720
 5302TIP3   OH240100   0.769   1.405   9.481  0.2777 -0.4925 -0.5110
 5302TIP3    H140101   0.692   1.448   9.518 -1.0098 -0.7756 -2.6664
 5302TIP3    H240102   0.762   1.314   9.510  0.9519 -0.0982  0.9672
 5303TIP3   OH240103   4.067   6.486  12.663 -0.6916  0.3097 -0.2338
 5303TIP3    H140104   4.056   6.566  12.713 -0.9303  0.9316 -1.2424
 5303TIP3    H240105   4.069   6.515  12.572  2.3065 -0.4685 -0.5427
 5304TIP3   OH240106   0.573   4.734  10.518  0.0123 -0.1472 -0.2248
 5304TIP3    H140107   0.583   4.821  10.557 -0.2018 -0.1007 -0.2737
 5304TIP3    H240108   0.630   4.737  10.441 -0.5438  0.1982 -0.6316
 5305TIP3   OH240109   0.090   0.167  12.477 -0.3391 -0.4826  0.3153
 5305TIP3    H140110   0.111   0.075  12.490 -0.2179 -0.4891  0.0864
 5305TIP3    H240111   0.010   0.167  12.425  1.6793 -0.5213 -3.1159
 5306TIP3   OH240112   4.133   1.251  12.681  0.3558  0.3009  0.0822
 5306TIP3    H140113   4.192   1.258  12.606 -0.8212 -1.3621 -1.0953
 5306TIP3    H240114   4.045   1.260  12.642 -0.2981 -1.0184  1.1681
 5307TIP3   OH240115   1.643   1.013  11.051  0.3953 -0.2264 -0.0706
 5307TIP3    H140116   1.587   0.968  10.988  0.3336 -0.3716  0.0905
 5307TIP3    H240117   1.661   0.949  11.119  0.8666 -0.2234 -0.1876
 5308TIP3   OH240118   0.972   1.199  10.525 -0.0602 -0.1829  0.8163
 5308TIP3    H140119   1.036   1.155  10.581 -0.9867 -1.5826  0.8411
 5308TIP3    H240120   1.014   1.205  10.440  2.3350  4.1246  2.0183
 5309TIP3   OH240121   5.180   2.046   9.787  0.2818 -0.2136  0.2073
 5309TIP3    H140122   5.143   2.003   9.710 -0.9732  1.2656 -0.0760
 5309TIP3    H240123   5.273   2.055   9.766  0.3106 -1.4906 -0.3129
 5310TIP3   OH240124   5.305   0.332  12.796 -0.0392  0.6775 -0.1206
 5310TIP3    H140125   5.395   0.330  12.764  0.0724 -0.8462  0.2215
 5310TIP3    H240126   5.257   0.380  12.729  0.6923 -0.0908 -1.2286
 5311TIP3   OH240127   1.877   3.155  10.620 -0.1871 -0.3048 -0.7666
 5311TIP3    H140128   1.956   3.112  10.588 -0.1749 -1.4516  0.7403
 5311TIP3    H240129   1.895   3.248  10.608  1.3426 -0.5442 -0.5989
 5312TIP3   OH240130   3.225   3.375  11.206  0.8726  0.3009  0.5100
 5312TIP3    H140131   3.317   3.348  11.207  1.1833  1.3038  1.3973
 5312TIP3    H240132   3.187   3.330  11.281  0.4928 -0.5512 -0.1840
 5313TIP3   OH240133   1.431   5.932  12.949 -0.2579  0.0014  0.2428
 5313TIP3    H140134   1.508   5.878  12.965 -0.5964 -0.1844  1.3091
 5313TIP3    H240135   1.393   5.946  13.036  0.2598  2.6306  0.1092
 5314TIP3   OH240136   1.634   2.310  12.379  0.0021 -0.4559  0.3579
 5314TIP3    H140137   1.600   2.371  12.315 -1.7573 -2.0412 -0.3015
 5314TIP3    H240138   1.729   2.326  12.380 -0.1809  0.9197 -1.1905
 5315TIP3   OH240139   2.212   2.404  10.928  0.0173 -0.5613  0.0380
 5315TIP3    H140140   2.120   2.392  10.950  0.0498 -1.2153 -0.1523
 5315TIP3    H240141   2.211   2.446  10.842 -0.0998  0.1379  0.3751
 5316TIP3   OH240142   2.155   5.784  11.917  0.1052  0.1670  0.2989
 5316TIP3    H140143   2.145   5.876  11.945  1.7822  0.6787 -0.6595
 5316TIP3    H240144   2.069   5.761  11.881 -1.3456  0.3266  3.2783
 5317TIP3   OH240145   0.967   1.751  10.555  0.6096 -0.9001 -0.2611
 5317TIP3    H140146   1.024   1.802  10.612 -1.1296  0.5067  0.3085
 5317TIP3    H240147   1.015   1.747  10.472  1.7247 -0.1550  0.3160
 5318TIP3   OH240148   0.629   3.450  13.063 -0.1333  0.5514  0.0487
 5318TIP3    H140149   0.571   3.526  13.056 -0.8732 -0.0240 -0.2246
 5318TIP3    H240150   0.602   3.393  12.991  0.6423  0.1766  0.0425
 5319TIP3   OH240151   0.507   6.115  12.546  0.3477  0.1224 -0.0825
 5319TIP3    H140152   0.455   6.055  12.493  1.5301 -0.9745 -0.0490
 5319TIP3    H240153   0.444   6.159  12.603 -0.7290  0.0632 -1.1945
 5320TIP3   OH240154   4.749   0.666  12.793 -0.2671 -0.0679  0.3925
 5320TIP3    H140155   4.664   0.659  12.836 -0.2141 -0.9174  0.3630
 5320TIP3    H240156   4.785   0.578  12.795  0.0845  0.0352 -0.6989
 5321TIP3   OH240157   0.953   5.743  11.193 -0.0810  0.1078 -0.2705
 5321TIP3    H140158   1.030   5.779  11.237  0.8440 -1.2196 -0.7439
 5321TIP3    H240159   0.906   5.820  11.161  0.7186  0.9693  0.5635
 5322TIP3   OH240160   5.324   0.905  10.776  0.0989  0.2162 -0.6158
 5322TIP3    H140161   5.247   0.850  10.763 -1.3364  2.0633 -0.3113
 5322TIP3    H240162   5.305   0.985  10.726  1.2012  1.2714  0.5747
 5323TIP3   OH240163   6.024   0.419  10.937  0.7868  0.1197 -0.0012
 5323TIP3    H140164   6.007   0.400  10.845  1.5772  1.1359 -0.3788
 5323TIP3    H240165   6.039   0.513  10.939  1.3242  0.0206  1.0812
 5324TIP3   OH240166   3.701   2.761  10.263 -0.2600  0.4930 -0.1273
 5324TIP3    H140167   3.661   2.828  10.208 -0.0533  1.4625  0.8499
 5324TIP3    H240168   3.655   2.680  10.241 -0.8203  1.0432 -1.0218
 5325TIP3   OH240169   6.365   3.196  10.316 -0.4815  0.5450 -0.4358
 5325TIP3    H140170   6.391   3.287  10.304 -1.3753  0.7213 -1.1947
 5325TIP3    H240171   6.274   3.201  10.347 -0.2743 -0.0730  0.3054
 5326TIP3   OH240172   5.448   0.985   9.920  0.0146 -0.5767  0.2789
 5326TIP3    H140173   5.457   0.903   9.872  1.6657 -0.6711  0.6867
 5326TIP3    H240174   5.356   1.010   9.907 -0.0752 -1.5601 -1.3095
 5327TIP3   OH240175   6.232   5.016  10.900  0.6100  0.3804 -0.7873
 5327TIP3    H140176   6.326   5.021  10.887  0.5902  0.1334 -1.0526
 5327TIP3    H240177   6.221   4.959  10.976  0.6599 -0.0164 -1.0754
 5328TIP3   OH240178   3.949   2.973  12.761  0.4828 -0.6910  0.1766
 5328TIP3    H140179   4.017   2.999  12.698  0.0882 -0.2125 -0.0530
 5328TIP3    H240180   3.917   2.890  12.727 -0.1996 -0.1095 -0.6403
 5329TIP3   OH240181   6.526   6.675  10.989  0.1063  0.3592  0.1502
 5329TIP3    H140182   6.616   6.651  10.968 -0.5077 -1.9801 -0.0860
 5329TIP3    H240183   6.531   6.717  11.075  1.5477  1.5134 -0.4559
 5330TIP3   OH240184   2.800   5.815  12.176  0.2843 -0.3665 -0.4425
 5330TIP3    H140185   2.793   5.797  12.269 -1.1233 -0.2819 -0.5002
 5330TIP3    H240186   2.886   5.781  12.150  1.2886  0.8512  1.1324
 5331TIP3   OH240187   0.630   0.948  12.570  0.1514  0.2656 -0.0261
 5331TIP3    H140188   0.645   0.999  12.650 -0.4767 -0.0191  0.2823
 5331TIP3    H240189   0.551   0.898  12.588  0.1649 -0.0212 -0.7250
 5332TIP3   OH240190   6.791   1.517   9.920 -0.3413 -0.5933 -0.4373
 5332TIP3    H140191   6.768   1.593   9.973  0.2758 -0.8499  0.2095
 5332TIP3    H240192   6.707   1.477   9.898 -0.5863 -1.0610  1.2146
 5333TIP3   OH240193   4.365   6.273  10.956 -0.1440 -0.3547  0.3054
 5333TIP3    H140194   4.454   6.294  10.983 -0.0613  0.7774 -0.7961
 5333TIP3    H240195   4.328   6.356  10.926 -1.4660 -0.8674  0.4315
 5334TIP3   OH240196   0.288   1.216  10.071 -0.0857 -0.0182  0.0918
 5334TIP3    H140197   0.267   1.197  10.163 -0.3233  1.8991  0.4708
 5334TIP3    H240198   0.250   1.303  10.055  1.3893  0.4107 -1.3119
 5335TIP3   OH240199   1.748   0.374  12.686  0.2540 -0.0427 -0.2628
 5335TIP3    H140200   1.702   0.300  12.728 -1.7822  1.5342  0.4484
 5335TIP3    H240201   1.698   0.390  12.606 -1.2825  2.4046  1.0608
 5336TIP3   OH240202   1.608   4.511  12.419 -0.1354 -0.0296  0.1563
 5336TIP3    H140203   1.550   4.443  12.453 -1.0825  1.4193  1.5172
 5336TIP3    H240204   1.676   4.462  12.371  0.6431 -2.1250  3.1226
 5337TIP3   OH240205   1.826   4.432  11.596  0.0068  0.5531  0.5358
 5337TIP3    H140206   1.740   4.471  11.607 -0.5438  0.5153 -2.6361
 5337TIP3    H240207   1.880   4.502  11.561  0.3177 -0.2090 -0.6018
 5338TIP3   OH240208   6.109   1.202  11.675  0.6584 -0.6308  0.3634
 5338TIP3    H140209   6.192   1.243  11.652  0.3277  1.1503  2.0505
 5338TIP3    H240210   6.045   1.273  11.672 -0.5396 -1.6597  0.4756
 5339TIP3   OH240211   6.651   2.520  11.175  0.1316  0.4273 -0.4974
 5339TIP3    H140212   6.561   2.527  11.142  0.1346  1.4668 -0.3382
 5339TIP3    H240213   6.671   2.427  11.172 -1.3766  0.0255  0.5745
 5340TIP3   OH240214   0.302   3.792  12.627 -0.0793  0.0171  0.1354
 5340TIP3    H140215   0.375   3.794  12.688  0.6841  0.4727 -0.7779
 5340TIP3    H240216   0.241   3.729  12.665  1.3931 -1.4325  0.1947
 5341TIP3   OH240217   6.127   0.654  11.603  0.0367 -0.5003  0.0570
 5341TIP3    H140218   6.158   0.635  11.515  1.4659 -1.9902  0.8220
 5341TIP3    H240219   6.206   0.672  11.653 -0.6457 -0.7597  1.2753
 5342TIP3   OH240220   6.783   0.903  11.597  0.2379 -0.0512 -0.1379
 5342TIP3    H140221   6.852   0.962  11.568 -0.8635  1.7712  0.7607
 5342TIP3    H240222   6.825   0.817  11.600  1.9805  0.7055 -1.2167
 5343TIP3   OH240223   3.929   3.120  12.237 -0.2289  0.4320 -0.4199
 5343TIP3    H140224   3.833   3.114  12.239 -0.1882 -0.3039 -0.1178
 5343TIP3    H240225   3.953   3.139  12.328  0.0512 -2.4784  0.2074
 5344TIP3   OH240226   3.527   4.794  13.289  0.8130 -0.4931 -0.4862
 5344TIP3    H140227   3.504   4.840  13.370  0.8933 -2.0348  0.4452
 5344TIP3    H240228   3.461   4.824  13.225 -0.6502 -0.9417  0.7523
 5345TIP3   OH240229   0.568   4.147  11.443  0.1168 -0.9311  0.3481
 5345TIP3    H140230   0.483   4.191  11.442  0.2357 -0.6723  1.2747
 5345TIP3    H240231   0.605   4.165  11.356  0.0164  0.5130  0.5779
 5346TIP3   OH240232   2.014   3.195  11.370  0.2193  0.0664  0.2006
 5346TIP3    H140233   2.045   3.106  11.389 -2.2993 -1.2699 -1.5129
 5346TIP3    H240234   1.921   3.186  11.353  0.0114  2.9533 -0.8164
 5347TIP3   OH240235   4.384   4.886  10.425 -0.1025  0.0681 -0.4661
 5347TIP3    H140236   4.302   4.922  10.392 -0.6593 -0.0915  0.6726
 5347TIP3    H240237   4.449   4.954  10.410 -1.6207  2.9683  4.1060
 5348TIP3   OH240238   5.897   3.651  10.726 -0.0322 -0.0427  0.1027
 5348TIP3    H140239   5.874   3.744  10.715  0.5797  0.0816 -0.1714
 5348TIP3    H240240   5.977   3.640  10.675 -0.8278 -1.0389 -0.9965
 5349TIP3   OH240241   6.247   4.622  11.422 -0.1600  0.2619  0.3100
 5349TIP3    H140242   6.240   4.528  11.408 -0.8429  0.3677 -0.1324
 5349TIP3    H240243   6.341   4.640  11.418 -0.1019 -0.1885 -1.1212
 5350TIP3   OH240244   2.976   6.524   9.667  0.1462  0.6310  0.2099
 5350TIP3    H140245   2.883   6.503   9.674  0.1032  0.2144 -1.2975
 5350TIP3    H240246   2.981   6.618   9.686 -0.6378  0.7444 -0.1072
 5351TIP3   OH240247   6.024   2.326  12.193 -0.9753  0.8393 -0.6647
 5351TIP3    H140248   6.108   2.282  12.197 -0.9657  0.9186  0.2554
 5351TIP3    H240249   5.996   2.332  12.284 -1.2044  2.2782 -0.8075
 5352TIP3   OH240250   4.795   3.666  10.898 -0.3607 -0.0797 -0.5712
 5352TIP3    H140251   4.841   3.663  10.814  0.9926  0.2018  0.1374
 5352TIP3    H240252   4.801   3.576  10.931  0.1655  0.0703 -0.2408
 5353TIP3   OH240253   1.309   2.788  10.511 -0.1920 -0.2413  0.0522
 5353TIP3    H140254   1.402   2.807  10.522 -0.3297  0.9601 -0.6638
 5353TIP3    H240255   1.302   2.694  10.528  1.1221 -0.3247  0.2735
 5354TIP3   OH240256   6.349   4.033  10.686  0.3996  0.6817  0.0395
 5354TIP3    H140257   6.363   3.982  10.766 -0.2491 -0.1960 -0.3879
 5354TIP3    H240258   6.408   3.993  10.622  0.6601  1.1552 -0.0200
 5355TIP3   OH240259   0.794   1.872  10.729 -0.3367 -0.1886  0.1932
 5355TIP3    H140260   0.829   1.958  10.751 -0.6484  0.3236 -1.2075
 5355TIP3    H240261   0.855   1.838  10.663  0.2327 -1.4055  1.2879
 5356TIP3   OH240262   4.585   4.580  10.843  0.1684  0.2693 -0.1616
 5356TIP3    H140263   4.680   4.577  10.833  0.0938 -1.3650 -0.6366
 5356TIP3    H240264   4.560   4.666  10.810  1.5312  0.9710  0.5446
 5357TIP3   OH240265   0.232   2.582  10.220  0.7101 -0.5266  0.5561
 5357TIP3    H140266   0.230   2.596  10.315  1.9356  1.1649  0.3655
 5357TIP3    H240267   0.182   2.501  10.208  0.1234 -0.5431  2.5859
 5358TIP3   OH240268   3.198   3.820  11.375  1.1431  0.0154  0.3649
 5358TIP3    H140269   3.139   3.752  11.344  0.1263  1.3043 -0.6549
 5358TIP3    H240270   3.282   3.775  11.387  0.5518 -1.3754 -0.4291
 5359TIP3   OH240271   4.820   1.940  11.536 -0.4665 -0.2825 -0.1967
 5359TIP3    H140272   4.861   2.026  11.523 -0.0181 -0.3714  0.5752
 5359TIP3    H240273   4.752   1.956  11.602 -1.7442 -0.1248 -1.5072
 5360TIP3   OH240274   2.538   3.255  12.844 -0.2537 -0.2922  0.5329
 5360TIP3    H140275   2.480   3.330  12.831  0.4826  0.1562 -0.3272
 5360TIP3    H240276   2.626   3.290  12.830  0.1054 -1.3053  0.1540
 5361TIP3   OH240277   5.598   0.422  12.080  0.1440  0.4898 -0.1286
 5361TIP3    H140278   5.537   0.495  12.091 -0.3542  0.1416 -0.5399
 5361TIP3    H240279   5.575   0.361  12.150 -0.5817 -0.0504 -0.8306
 5362TIP3   OH240280   1.733   1.525  10.932  0.5260  0.0543 -0.0134
 5362TIP3    H140281   1.649   1.479  10.929  0.1577  0.6923  0.2603
 5362TIP3    H240282   1.787   1.482  10.866  0.5349 -1.4401  0.9297
 5363TIP3   OH240283   2.828   1.711  12.195 -0.3576 -0.1389 -0.2881
 5363TIP3    H140284   2.883   1.702  12.272 -1.9697  2.3388  1.2923
 5363TIP3    H240285   2.770   1.635  12.197  1.1402 -1.3445 -0.4827
 5364TIP3   OH240286   2.675   3.179  11.855 -0.4648  0.2534 -0.3162
 5364TIP3    H140287   2.583   3.156  11.865 -0.3356 -0.1697 -0.1133
 5364TIP3    H240288   2.691   3.173  11.761 -1.0483  1.8815 -0.5597
 5365TIP3   OH240289   2.045   4.467  10.943 -0.3945  0.1114  0.3004
 5365TIP3    H140290   1.982   4.510  11.001 -1.3238 -2.3430  1.2533
 5365TIP3    H240291   1.992   4.417  10.882  0.6134 -0.7611  0.1011
 5366TIP3   OH240292   4.531   4.306  10.794 -0.0632  0.0996  0.2169
 5366TIP3    H140293   4.555   4.384  10.844 -0.6957 -0.1997  0.9965
 5366TIP3    H240294   4.615   4.263  10.776  0.2229  0.5404  0.4666
 5367TIP3   OH240295   6.554   3.048  12.605  0.1248  0.4305  0.3283
 5367TIP3    H140296   6.460   3.051  12.587  0.2253 -0.3956 -0.3959
 5367TIP3    H240297   6.560   3.033  12.699 -0.4624  0.9644  0.4582
 5368TIP3   OH240298   5.783   6.540  12.479 -0.3101 -0.7807  0.3586
 5368TIP3    H140299   5.785   6.561  12.573  2.6565 -2.7549  0.8702
 5368TIP3    H240300   5.703   6.582  12.447 -0.4334  1.6279  3.3460
 5369TIP3   OH240301   6.247   6.552  11.957 -0.0992  0.2408 -0.2304
 5369TIP3    H140302   6.169   6.530  12.008  0.4296 -1.3743 -0.0543
 5369TIP3    H240303   6.253   6.647  11.961 -0.5247  0.2172  2.0424
 5370TIP3   OH240304   1.110   0.667  10.369  0.4052 -0.1598  0.2337
 5370TIP3    H140305   1.034   0.611  10.353  0.9212 -1.1116  0.9873
 5370TIP3    H240306   1.164   0.656  10.291  0.0074  0.1310 -0.0872
 5371TIP3   OH240307   1.593   0.213  10.406  0.0295 -0.0055 -0.4563
 5371TIP3    H140308   1.579   0.119  10.398  0.2622  0.0376 -1.5591
 5371TIP3    H240309   1.573   0.248  10.319 -0.7593  1.0640  0.1283
 5372TIP3   OH240310   4.514   1.737  10.587  0.2475  0.1100  0.4690
 5372TIP3    H140311   4.535   1.787  10.508 -0.6633  0.5066  0.4730
 5372TIP3    H240312   4.594   1.742  10.639  0.4116  0.9807  0.1586
 5373TIP3   OH240313   6.595   5.873  11.330  0.3182  0.0194 -0.2943
 5373TIP3    H140314   6.664   5.897  11.392  0.0991  2.1507 -0.7798
 5373TIP3    H240315   6.523   5.933  11.351 -0.0521  0.2565 -2.0699
 5374TIP3   OH240316   4.852   1.940  12.645  0.1561 -0.2316 -0.3844
 5374TIP3    H140317   4.769   1.988  12.641  1.5267  2.2236 -0.9516
 5374TIP3    H240318   4.878   1.929  12.553 -0.1368 -2.2431 -0.2886
 5375TIP3   OH240319   2.692   3.624  12.361 -0.0958 -0.1850 -0.1510
 5375TIP3    H140320   2.763   3.583  12.312  1.5737  0.2165  1.7960
 5375TIP3    H240321   2.674   3.563  12.433  1.2579  1.5996  1.8132
 5376TIP3   OH240322   2.411   4.541  11.425  0.2604  0.4254 -0.3479
 5376TIP3    H140323   2.498   4.501  11.421  0.9604  2.0030 -1.7390
 5376TIP3    H240324   2.426   4.628  11.462 -0.9076  0.3448  0.3881
 5377TIP3   OH240325   3.730   6.134  10.135 -0.0166  0.1411 -0.5664
 5377TIP3    H140326   3.710   6.042  10.121  0.6764 -0.3723  1.4195
 5377TIP3    H240327   3.823   6.135  10.160 -0.1938  1.2774  0.1381
 5378TIP3   OH240328   0.897   3.784  12.017  0.3243 -0.0620 -0.5583
 5378TIP3    H140329   0.823   3.838  12.046 -0.3142 -1.2057  0.0584
 5378TIP3    H240330   0.862   3.733  11.944  0.4959 -0.5764 -0.2932
 5379TIP3   OH240331   2.680   5.607  11.672 -0.0343 -0.0071  0.9675
 5379TIP3    H140332   2.603   5.614  11.729 -0.8752 -1.1964  0.0455
 5379TIP3    H240333   2.740   5.549  11.720 -0.6893 -0.9140  0.7231
 5380TIP3   OH240334   1.422   1.347  10.232  0.7134  0.5128  0.7063
 5380TIP3    H140335   1.348   1.341  10.172  1.3409  1.8345 -0.2430
 5380TIP3    H240336   1.450   1.257  10.245 -0.0904  0.1298 -0.1515
 5381TIP3   OH240337   2.016   3.995  12.169  0.1726 -0.6067  0.3844
 5381TIP3    H140338   2.046   3.930  12.106  3.4797 -0.6546  1.8062
 5381TIP3    H240339   1.978   4.065  12.115 -0.8697 -2.3978 -1.3207
 5382TIP3   OH240340   2.187   2.731  12.734 -0.5047  0.0020 -0.3398
 5382TIP3    H140341   2.111   2.724  12.676 -0.3614  0.7240 -0.6255
 5382TIP3    H240342   2.167   2.806  12.790 -1.5239 -1.8283  1.9035
 5383TIP3   OH240343   4.952   2.574  12.050  0.4725  0.3087 -0.0107
 5383TIP3    H140344   4.980   2.634  12.119 -1.3233  1.8588 -0.5460
 5383TIP3    H240345   5.023   2.576  11.986 -0.4147  3.7144 -1.0943
 5384TIP3   OH240346   2.668   3.119  10.946 -0.6133  0.3252  0.3332
 5384TIP3    H140347   2.685   3.193  11.005  0.5275 -0.2686  0.8008
 5384TIP3    H240348   2.753   3.102  10.905 -0.6040 -1.3191  0.9595
 5385TIP3   OH240349   2.387   4.260   9.656  0.0809 -0.4448  0.5055
 5385TIP3    H140350   2.371   4.181   9.706  0.4886 -1.4162 -0.8349
 5385TIP3    H240351   2.303   4.305   9.655 -0.5110 -1.5148  0.2207
 5386TIP3   OH240352   0.044   6.456  11.447 -0.1011 -0.4596 -0.2355
 5386TIP3    H140353   0.056   6.372  11.402 -0.0254  0.4848 -2.0766
 5386TIP3    H240354   0.133   6.488  11.462 -0.1315 -0.6530  0.3944
 5387TIP3   OH240355   6.241   4.366  12.795 -0.2489  0.0022 -0.9339
 5387TIP3    H140356   6.168   4.363  12.856 -0.3417 -0.8447 -1.0698
 5387TIP3    H240357   6.293   4.442  12.823 -1.1416  0.5810 -0.8089
 5388TIP3   OH240358   1.619   1.789  11.190  0.6319 -0.1034  0.0477
 5388TIP3    H140359   1.673   1.811  11.114  1.4906  0.8073  0.8793
 5388TIP3    H240360   1.655   1.705  11.221 -0.5686 -1.1487 -1.2751
 5389TIP3   OH240361   2.082   5.009  10.799 -0.4096 -0.2236  0.1916
 5389TIP3    H140362   2.061   4.952  10.873 -0.0175 -0.7595 -0.1068
 5389TIP3    H240363   2.058   4.958  10.722 -0.0871  0.0308 -0.0788
 5390TIP3   OH240364   5.013   6.418  11.338  0.3503 -0.3474  0.2081
 5390TIP3    H140365   5.074   6.397  11.409 -1.3374 -1.3020  1.4668
 5390TIP3    H240366   4.963   6.338  11.325 -2.8943  1.2061  1.6209
 5391TIP3   OH240367   0.820   1.141   4.945 -0.0586  0.2769  0.3504
 5391TIP3    H140368   0.878   1.176   5.012  0.7502  0.0756 -0.2333
 5391TIP3    H240369   0.861   1.060   4.917 -0.8217 -0.0659  0.1932
 5392TIP3   OH240370   2.337   5.468   3.217 -0.1021 -0.6603 -0.0878
 5392TIP3    H140371   2.337   5.563   3.214  1.1444 -0.6513 -0.6656
 5392TIP3    H240372   2.426   5.444   3.244 -0.6122 -1.6569  0.8030
 5393TIP3   OH240373   6.207   2.191   2.475 -0.1995  1.0560 -0.3765
 5393TIP3    H140374   6.209   2.148   2.390 -0.5560  0.9540 -0.3341
 5393TIP3    H240375   6.139   2.258   2.467 -0.3257  0.9598 -0.1333
 5394TIP3   OH240376   2.456   4.987   2.245 -0.5450 -0.1869  0.7601
 5394TIP3    H140377   2.457   5.064   2.301  1.2999 -0.4659  1.1976
 5394TIP3    H240378   2.428   5.019   2.159  1.3820  1.2449  0.6122
 5395TIP3   OH240379   5.526   2.306   4.453  0.1497  0.2290 -0.3119
 5395TIP3    H140380   5.510   2.231   4.395  0.3003 -1.1394  1.3280
 5395TIP3    H240381   5.602   2.350   4.414 -0.4983  0.0817 -1.8116
 5396TIP3   OH240382   2.948   4.939   5.892 -0.1509 -0.2008 -0.1326
 5396TIP3    H140383   2.865   4.968   5.853  0.4751  0.9384 -0.6684
 5396TIP3    H240384   2.958   4.993   5.970 -0.2336 -0.8199  0.3152
 5397TIP3   OH240385   4.192   5.816   4.170 -0.1970  0.3529 -0.0475
 5397TIP3    H140386   4.276   5.849   4.138 -1.4331  2.0357 -1.7737
 5397TIP3    H240387   4.211   5.727   4.200  2.0333  0.3956 -1.1270
 5398TIP3   OH240388   0.425   0.382   1.840  0.5283 -0.4943  0.0802
 5398TIP3    H140389   0.516   0.400   1.819  0.4161  1.1273  0.8626
 5398TIP3    H240390   0.401   0.449   1.904 -1.2135 -0.8784 -0.1134
 5399TIP3   OH240391   1.669   1.962   2.425  0.0080 -0.3819  0.1810
 5399TIP3    H140392   1.697   2.051   2.402  0.3809 -0.4183  0.4957
 5399TIP3    H240393   1.607   1.975   2.497  0.8878 -0.4383  0.9694
 5400TIP3   OH240394   4.707   2.866   3.340 -0.0469  0.1912  0.3941
 5400TIP3    H140395   4.633   2.806   3.343  0.2644 -0.3412 -1.3920
 5400TIP3    H240396   4.753   2.852   3.423 -0.9125 -0.7997  0.7241
 5401TIP3   OH240397   0.626   1.852   4.433  0.1916 -0.0077  0.1173
 5401TIP3    H140398   0.711   1.808   4.445 -0.7008 -1.2563  2.3951
 5401TIP3    H240399   0.567   1.782   4.404  0.3266  1.3152 -4.1271
 5402TIP3   OH240400   3.051   5.025   3.094 -0.5482 -0.2378 -0.3245
 5402TIP3    H140401   3.102   5.053   3.170 -0.7815  0.8959 -0.5708
 5402TIP3    H240402   3.104   4.956   3.054  0.7388  0.8318 -0.5050
 5403TIP3   OH240403   2.502   6.059   4.850 -0.0308  0.0183 -0.0756
 5403TIP3    H140404   2.551   6.109   4.914  0.6527 -0.2764 -0.3579
 5403TIP3    H240405   2.553   6.064   4.770  0.2787 -1.4469 -0.0102
 5404TIP3   OH240406   3.584   5.115   2.632 -0.2574  0.0462  0.2619
 5404TIP3    H140407   3.564   5.043   2.691 -0.6234  0.4420  0.6226
 5404TIP3    H240408   3.680   5.121   2.633 -0.0028 -2.2544 -1.9522
 5405TIP3   OH240409   5.996   3.224   4.637  0.3799 -0.7474  0.5346
 5405TIP3    H140410   6.036   3.230   4.724  0.1206  1.2435  0.5515
 5405TIP3    H240411   5.975   3.314   4.614 -1.6203 -1.4523 -0.6369
 5406TIP3   OH240412   5.778   1.713   3.435  0.3751 -0.1028  0.0571
 5406TIP3    H140413   5.866   1.686   3.462  0.6357 -0.9525 -1.5543
 5406TIP3    H240414   5.779   1.707   3.340 -1.7013 -0.9517  0.0434
 5407TIP3   OH240415   4.194   6.474   3.352  0.1595 -0.2157  0.3423
 5407TIP3    H140416   4.223   6.442   3.267  0.5804  0.2872  0.2874
 5407TIP3    H240417   4.172   6.566   3.337  2.1403  0.4471  1.1725
 5408TIP3   OH240418   0.169   2.249   4.257 -0.0732 -0.0558  0.2915
 5408TIP3    H140419   0.115   2.170   4.244 -1.0026  0.1445  2.3746
 5408TIP3    H240420   0.164   2.264   4.351  1.7962  1.3322  0.2031
 5409TIP3   OH240421   2.322   5.120   5.453  0.3888  0.1453  0.1571
 5409TIP3    H140422   2.266   5.163   5.517 -0.9598  0.2412 -1.0377
 5409TIP3    H240423   2.393   5.182   5.437 -0.6743  1.2718 -0.3686
 5410TIP3   OH240424   1.890   0.823   2.855 -0.3417 -0.2973  0.0253
 5410TIP3    H140425   1.844   0.841   2.937 -0.3716 -1.7003  0.3279
 5410TIP3    H240426   1.822   0.795   2.795  0.0422 -2.2052  0.4218
 5411TIP3   OH240427   4.762   6.015   3.329  0.0775  0.0254  0.2179
 5411TIP3    H140428   4.829   6.070   3.370  0.5144 -0.0757 -0.3608
 5411TIP3    H240429   4.790   5.926   3.345  0.7216 -0.0176 -1.0544
 5412TIP3   OH240430   3.929   4.793   3.060 -0.2981  0.1731  0.4971
 5412TIP3    H140431   3.950   4.826   3.147 -1.7847  2.6644  0.0303
 5412TIP3    H240432   3.907   4.701   3.073  3.8193 -0.7926  1.9866
 5413TIP3   OH240433   3.433   4.610   4.671  0.0442 -0.2557 -0.0296
 5413TIP3    H140434   3.527   4.628   4.677  0.0074 -0.3212  0.9431
 5413TIP3    H240435   3.392   4.692   4.698 -0.1706 -0.3717 -0.0039
 5414TIP3   OH240436   1.783   3.582   2.603  0.0688 -0.1277  0.4617
 5414TIP3    H140437   1.739   3.611   2.523  0.2445 -0.0306  0.4006
 5414TIP3    H240438   1.724   3.609   2.674  0.4635  0.8470  0.4452
 5415TIP3   OH240439   6.302   4.253   2.922  0.2929 -0.3544 -0.5605
 5415TIP3    H140440   6.277   4.162   2.912  0.1648 -0.4558  0.5564
 5415TIP3    H240441   6.389   4.250   2.963  1.0937  0.0206 -2.1567
 5416TIP3   OH240442   5.856   5.925   3.460 -0.2801 -0.8936 -0.1712
 5416TIP3    H140443   5.882   5.853   3.517 -0.2661 -0.5523  0.2612
 5416TIP3    H240444   5.897   6.003   3.500 -1.4619 -0.4310  0.1879
 5417TIP3   OH240445   2.222   2.555   4.818 -0.0483 -0.5308  0.1292
 5417TIP3    H140446   2.261   2.469   4.837  0.6884  0.0915  1.5330
 5417TIP3    H240447   2.244   2.570   4.726  1.8163 -0.8646  0.4607
 5418TIP3   OH240448   3.626   0.834   3.401 -0.1898 -0.0437 -0.0590
 5418TIP3    H140449   3.531   0.842   3.392 -0.1252  0.6369 -0.2042
 5418TIP3    H240450   3.651   0.904   3.462  0.0371 -1.2264  1.2506
 5419TIP3   OH240451   6.741   4.462   5.099 -0.6274  0.5320 -0.5141
 5419TIP3    H140452   6.759   4.554   5.121  0.5828 -0.0296  1.0737
 5419TIP3    H240453   6.709   4.424   5.181  0.0809 -0.7352 -0.7978
 5420TIP3   OH240454   2.406   1.673   2.230 -0.0145  0.0675  0.3433
 5420TIP3    H140455   2.364   1.594   2.263  1.1255 -0.9869 -0.6079
 5420TIP3    H240456   2.335   1.737   2.224 -0.4998 -0.0396  3.5279
 5421TIP3   OH240457   3.507   3.086   2.693 -0.4026 -0.1537 -0.2343
 5421TIP3    H140458   3.477   3.150   2.627 -1.9724  0.6230  1.1521
 5421TIP3    H240459   3.426   3.052   2.731  0.4545 -1.7976  0.1776
 5422TIP3   OH240460   4.797   4.165   4.430 -0.7554 -0.1317  0.2899
 5422TIP3    H140461   4.727   4.099   4.437 -0.1682 -0.7371  0.6641
 5422TIP3    H240462   4.857   4.143   4.502 -0.5450  0.8231  0.4222
 5423TIP3   OH240463   5.919   5.582   3.266  0.1584  0.2942  0.1095
 5423TIP3    H140464   5.918   5.556   3.358  0.1301  0.7736  0.2502
 5423TIP3    H240465   6.010   5.569   3.238 -0.0862 -0.9693 -0.1287
 5424TIP3   OH240466   4.073   2.933   5.105  0.4300  0.2390  0.0107
 5424TIP3    H140467   3.980   2.925   5.086  0.5588 -2.4338  0.0746
 5424TIP3    H240468   4.077   2.947   5.200  0.0868  0.8478 -0.0649
 5425TIP3   OH240469   6.697   4.097   3.950  0.1248  0.0289  0.6536
 5425TIP3    H140470   6.627   4.126   4.008 -1.0350  2.2207 -1.6316
 5425TIP3    H240471   6.682   4.003   3.940 -3.4732  0.5946 -0.7849
 5426TIP3   OH240472   6.297   1.294   3.670  0.1800  0.1070 -0.3142
 5426TIP3    H140473   6.349   1.279   3.749  1.8673  0.4680 -1.3150
 5426TIP3    H240474   6.332   1.375   3.633  0.3737 -0.7714 -2.1572
 5427TIP3   OH240475   3.782   0.001   2.757 -0.4930  0.5712 -0.1786
 5427TIP3    H140476   3.710  -0.007   2.694  0.8061  0.8425 -1.7460
 5427TIP3    H240477   3.797  -0.089   2.787  0.5181 -0.0101 -2.2166
 5428TIP3   OH240478   2.174   0.639   4.037 -0.9356  0.0453 -0.2781
 5428TIP3    H140479   2.106   0.576   4.062 -0.5876 -0.8241 -1.4384
 5428TIP3    H240480   2.150   0.666   3.948 -0.0647  0.1620 -0.4838
 5429TIP3   OH240481   2.024   4.894   4.230 -0.2123  0.3022  0.3170
 5429TIP3    H140482   1.929   4.890   4.240 -0.2058 -0.1817  0.2389
 5429TIP3    H240483   2.039   4.876   4.137  0.0010 -0.5283  0.5033
 5430TIP3   OH240484   0.944   3.569   4.279  0.1001  0.3298 -0.4795
 5430TIP3    H140485   0.924   3.476   4.268 -1.9696  0.5908  0.7025
 5430TIP3    H240486   0.996   3.573   4.360 -0.0991  0.2439 -0.3477
 5431TIP3   OH240487   2.679   5.559   4.544 -0.5016 -0.4070 -0.7831
 5431TIP3    H140488   2.763   5.523   4.516 -0.9669 -0.1561 -2.6715
 5431TIP3    H240489   2.671   5.641   4.495 -1.0618  0.4875  0.7299
 5432TIP3   OH240490   4.049   4.527   4.758 -0.2142  0.5299 -0.2196
 5432TIP3    H140491   4.130   4.578   4.759 -0.0194  0.2234  0.1605
 5432TIP3    H240492   4.037   4.500   4.849 -1.0372  1.0286 -0.1718
 5433TIP3   OH240493   0.891   6.523   3.215 -0.1771  0.0824  0.0524
 5433TIP3    H140494   0.875   6.559   3.127 -0.1015  0.4375  0.1831
 5433TIP3    H240495   0.891   6.599   3.272  1.3972  0.0397  0.1430
 5434TIP3   OH240496   4.241   0.479   4.931 -0.0125  0.0160 -0.1354
 5434TIP3    H140497   4.179   0.492   5.002 -1.2500  2.3126 -1.5120
 5434TIP3    H240498   4.187   0.448   4.858  0.6624  0.7227 -0.9535
 5435TIP3   OH240499   2.731   5.953   4.982  0.2907  0.5758  0.6465
 5435TIP3    H140500   2.804   5.893   4.974  0.4920  0.8288  0.5699
 5435TIP3    H240501   2.719   5.966   5.076  0.0261  0.1506  0.6748
 5436TIP3   OH240502   4.309   0.575   3.719 -0.5868 -0.4955 -0.1821
 5436TIP3    H140503   4.222   0.553   3.754  0.7343 -3.1835  1.7453
 5436TIP3    H240504   4.325   0.664   3.750 -2.7695  0.2084 -0.9065
 5437TIP3   OH240505   2.246   5.769   2.473 -0.4580  0.1889 -0.1246
 5437TIP3    H140506   2.211   5.742   2.388  0.1512 -1.6516  0.1594
 5437TIP3    H240507   2.322   5.713   2.487 -1.4907 -0.7379  2.3607
 5438TIP3   OH240508   0.807   6.315   2.030 -0.4407  0.0289 -0.3554
 5438TIP3    H140509   0.726   6.363   2.046  0.0201  0.9565 -0.6734
 5438TIP3    H240510   0.838   6.348   1.946 -0.2002 -0.9968 -0.6825
 5439TIP3   OH240511   4.992   3.055   3.621  0.1859  0.3921  0.9920
 5439TIP3    H140512   5.015   2.979   3.568  1.1426  0.5613  1.1418
 5439TIP3    H240513   5.021   3.130   3.570 -2.9014  0.8730 -0.2813
 5440TIP3   OH240514   6.642   6.599   2.815  0.3254 -0.3179 -0.1748
 5440TIP3    H140515   6.607   6.673   2.865 -1.0760 -1.2229  0.2352
 5440TIP3    H240516   6.683   6.543   2.881  2.3551  0.5802 -0.6162
 5441TIP3   OH240517   0.121   0.593   4.577  0.0080 -0.2328  0.5321
 5441TIP3    H140518   0.109   0.563   4.487  0.3842  0.0662  0.3792
 5441TIP3    H240519   0.133   0.688   4.569  3.5369 -0.5584  0.5418
 5442TIP3   OH240520   1.226   4.689   3.114  0.0797  0.2441  0.3685
 5442TIP3    H140521   1.157   4.735   3.161  0.4046  1.0781  0.0373
 5442TIP3    H240522   1.301   4.690   3.173 -0.4352 -1.4792  1.1213
 5443TIP3   OH240523   5.952   5.084   4.232  0.0306  0.1538  0.0510
 5443TIP3    H140524   5.875   5.059   4.283  0.9326 -2.4285  0.2505
 5443TIP3    H240525   5.917   5.143   4.165 -1.7279  0.8254  1.4811
 5444TIP3   OH240526   5.370   1.595   4.283  1.1065  0.0992 -0.0884
 5444TIP3    H140527   5.291   1.541   4.293 -0.7228  2.4777 -0.6348
 5444TIP3    H240528   5.378   1.641   4.367 -0.3863  2.6002 -1.1958
 5445TIP3   OH240529   0.284   6.721   2.879  0.1736  0.1356  0.2803
 5445TIP3    H140530   0.256   6.741   2.969  0.2490  1.3837  0.0443
 5445TIP3    H240531   0.207   6.742   2.826  0.5949  0.8004 -0.0807
 5446TIP3   OH240532   5.060   0.513   2.460  0.1061 -0.0784 -0.1798
 5446TIP3    H140533   5.074   0.442   2.397  0.9299  0.9795 -1.2314
 5446TIP3    H240534   5.016   0.581   2.410 -1.5707 -0.1727  1.0640
 5447TIP3   OH240535   4.838   5.908   3.977  0.3509 -0.0249 -0.0354
 5447TIP3    H140536   4.878   5.992   3.996  0.7404 -0.0270 -0.8220
 5447TIP3    H240537   4.911   5.845   3.982  0.0238 -0.3623  0.7830
 5448TIP3   OH240538   0.413   1.329   3.627  0.4366 -0.2659 -0.8449
 5448TIP3    H140539   0.415   1.267   3.554  2.2328 -2.3807  0.8572
 5448TIP3    H240540   0.506   1.342   3.649 -0.0153  1.3177  0.2962
 5449TIP3   OH240541   4.038   5.472   4.763 -0.3728 -0.1357  0.2483
 5449TIP3    H140542   4.021   5.563   4.788 -2.0760 -0.6927  1.2772
 5449TIP3    H240543   4.120   5.450   4.807  1.3084  1.5313 -1.8362
 5450TIP3   OH240544   0.179   0.233   1.873 -0.0963  0.3714  0.2417
 5450TIP3    H140545   0.218   0.156   1.914 -0.1128  0.6960  0.8832
 5450TIP3    H240546   0.245   0.265   1.811 -0.7330 -1.1218 -1.2847
 5451TIP3   OH240547   6.107   4.989   1.744 -0.3181  0.3122 -0.5341
 5451TIP3    H140548   6.193   4.968   1.708  0.4748  1.1973  0.7589
 5451TIP3    H240549   6.121   5.068   1.796 -1.6667 -0.1567  0.6340
 5452TIP3   OH240550   1.375   1.976   4.585 -0.4294 -0.8840 -0.4363
 5452TIP3    H140551   1.420   2.033   4.648 -0.6411 -0.8347 -0.3284
 5452TIP3    H240552   1.393   1.887   4.615  2.3582 -1.0433 -2.2276
 5453TIP3   OH240553   1.865   3.544   5.846 -0.2541  0.1211 -0.6325
 5453TIP3    H140554   1.869   3.467   5.789  0.0999 -0.3288 -0.0175
 5453TIP3    H240555   1.859   3.507   5.934 -2.2162  0.7852 -0.4347
 5454TIP3   OH240556   2.167   2.223   3.908 -0.3357  0.3291  0.2696
 5454TIP3    H140557   2.100   2.249   3.845  0.0876  1.3807  0.2352
 5454TIP3    H240558   2.174   2.128   3.898 -0.3352  0.4623 -1.1982
 5455TIP3   OH240559   3.605   5.182   5.025 -0.7978 -0.0657 -0.1456
 5455TIP3    H140560   3.568   5.126   4.957 -0.8556  0.4123 -0.5045
 5455TIP3    H240561   3.608   5.269   4.987  0.0484  0.0373  0.1201
 5456TIP3   OH240562   6.292   4.870   4.604 -0.0878  0.7364 -0.1970
 5456TIP3    H140563   6.253   4.817   4.673 -1.0644  0.6082 -0.8372
 5456TIP3    H240564   6.259   4.832   4.522  1.7299  0.3195 -0.8056
 5457TIP3   OH240565   0.065   6.045   3.935  0.2032  0.3779  0.7249
 5457TIP3    H140566  -0.024   6.025   3.965 -0.6893  1.1471 -1.2000
 5457TIP3    H240567   0.083   6.132   3.970  0.1757  0.2436  1.0733
 5458TIP3   OH240568   5.448   2.688   2.620 -0.1827 -0.5253  0.4493
 5458TIP3    H140569   5.352   2.696   2.614 -0.0517  0.0863 -1.3288
 5458TIP3    H240570   5.465   2.594   2.617 -0.7240 -0.6440  0.9138
 5459TIP3   OH240571   2.502   3.383   3.783  0.3367 -0.7028 -0.0009
 5459TIP3    H140572   2.491   3.351   3.873  0.0117 -1.9772 -0.4813
 5459TIP3    H240573   2.413   3.408   3.756  0.4650 -0.1325  0.0911
 5460TIP3   OH240574   3.780   0.659   4.165 -0.0406 -0.1587 -1.2891
 5460TIP3    H140575   3.796   0.749   4.196 -5.5551  0.7501 -0.0281
 5460TIP3    H240576   3.789   0.665   4.070 -0.6805  1.9148 -1.2787
 5461TIP3   OH240577   1.925   0.950   3.575 -0.4706 -0.5521  0.0512
 5461TIP3    H140578   1.873   1.012   3.525 -1.7620 -0.9408  0.8708
 5461TIP3    H240579   2.013   0.988   3.577 -0.8266  0.3621 -0.9273
 5462TIP3   OH240580   2.345   5.983   4.608  0.0386 -0.4652  0.4096
 5462TIP3    H140581   2.359   6.009   4.517 -1.4812 -0.0789  0.2547
 5462TIP3    H240582   2.427   6.004   4.652  0.6786 -0.3493 -0.7998
 5463TIP3   OH240583   4.958   0.110   2.532  0.5544 -0.1958 -0.6643
 5463TIP3    H140584   4.878   0.147   2.494  0.5879 -1.4023 -2.0044
 5463TIP3    H240585   4.926   0.048   2.598  0.4202 -0.0128 -0.5559
 5464TIP3   OH240586   3.672   5.078   5.433  0.0820  0.3857  0.3813
 5464TIP3    H140587   3.668   5.159   5.483  0.5184  1.2167 -0.8710
 5464TIP3    H240588   3.705   5.105   5.347  0.4014 -1.1489 -0.0042
 5465TIP3   OH240589   2.130   3.927   5.153  0.5878  0.1336  0.6388
 5465TIP3    H140590   2.215   3.970   5.151 -0.2620  2.0335 -2.6050
 5465TIP3    H240591   2.136   3.860   5.084 -0.0534 -0.9267  1.5697
 5466TIP3   OH240592   0.202   6.072   3.158 -0.3238 -0.5935  0.0114
 5466TIP3    H140593   0.187   6.104   3.069  1.3333  0.1689 -0.0436
 5466TIP3    H240594   0.289   6.033   3.155 -0.3866 -0.8734  1.2196
 5467TIP3   OH240595   4.545   1.168   3.469  0.0988  0.5832 -0.3517
 5467TIP3    H140596   4.592   1.175   3.386 -0.8055 -0.6741 -1.0085
 5467TIP3    H240597   4.458   1.202   3.450  0.0075  0.6615  0.1935
 5468TIP3   OH240598   2.281   3.469   2.373 -0.0210 -0.3672 -0.5010
 5468TIP3    H140599   2.221   3.544   2.376  0.8906  0.4564 -1.8478
 5468TIP3    H240600   2.230   3.397   2.411 -0.4508  1.1937  2.1343
 5469TIP3   OH240601   6.030   2.917   2.685  0.4086  0.0897 -0.2433
 5469TIP3    H140602   6.097   2.984   2.670  1.4574 -0.8970 -0.1506
 5469TIP3    H240603   5.966   2.930   2.616  1.6277 -0.0667 -1.4374
 5470TIP3   OH240604   3.603   2.168   3.779 -0.2668  0.8162 -0.4379
 5470TIP3    H140605   3.607   2.223   3.857  0.8289 -0.1230  0.1997
 5470TIP3    H240606   3.582   2.228   3.707 -0.8356  1.7611  0.4969
 5471TIP3   OH240607   3.252   0.906   2.811 -0.3295  0.1544  0.2219
 5471TIP3    H140608   3.196   0.909   2.889 -0.7689 -3.4215  0.1909
 5471TIP3    H240609   3.315   0.837   2.829  2.4083  2.1871 -0.9094
 5472TIP3   OH240610   4.176   5.704   4.607  0.2134  0.5250  0.0615
 5472TIP3    H140611   4.213   5.616   4.614  1.5640  1.0223 -0.5462
 5472TIP3    H240612   4.129   5.704   4.524 -1.4695 -0.1949  0.9635
 5473TIP3   OH240613   3.828   3.120   3.567  0.0039 -0.0500 -0.6160
 5473TIP3    H140614   3.837   3.197   3.623  0.8651  0.8769 -1.9959
 5473TIP3    H240615   3.781   3.057   3.622  0.6732  0.8752  1.0934
 5474TIP3   OH240616   5.176   1.743   3.067  0.2621  0.1028 -0.1994
 5474TIP3    H140617   5.154   1.666   3.120  0.2231  1.0512  1.2268
 5474TIP3    H240618   5.094   1.793   3.064  0.9603  1.4605  1.3480
 5475TIP3   OH240619   4.937   4.617   3.067  0.0321  0.1834  0.0621
 5475TIP3    H140620   4.991   4.646   3.140  0.7743 -1.1807  0.0743
 5475TIP3    H240621   4.871   4.686   3.057  1.2321  1.4523  0.6125
 5476TIP3   OH240622   0.568   4.453   3.018 -0.2288 -0.2288 -0.7277
 5476TIP3    H140623   0.640   4.436   2.957 -0.5379 -0.7529 -0.9576
 5476TIP3    H240624   0.595   4.530   3.067  2.6122 -2.9319  2.4148
 5477TIP3   OH240625   3.645   3.947   5.023  0.2767 -0.5794  0.3293
 5477TIP3    H140626   3.664   4.021   5.081 -3.1748 -1.0043  2.2612
 5477TIP3    H240627   3.715   3.884   5.041  1.2085  0.7210  1.4551
 5478TIP3   OH240628   3.891   6.298   4.113 -0.2027  0.2050 -0.0392
 5478TIP3    H140629   3.957   6.238   4.148 -0.4505 -0.2436 -0.3207
 5478TIP3    H240630   3.811   6.275   4.159 -0.9821 -1.6750 -2.1181
 5479TIP3   OH240631   6.769   5.811   4.899  0.1170 -0.0093 -0.0050
 5479TIP3    H140632   6.712   5.873   4.944  1.0397  1.0040 -0.1822
 5479TIP3    H240633   6.844   5.863   4.872  2.8999 -1.9384  3.2814
 5480TIP3   OH240634   3.888   2.440   5.235  0.0080  0.3650 -0.7271
 5480TIP3    H140635   3.832   2.459   5.160 -0.2436  1.9093 -0.1924
 5480TIP3    H240636   3.950   2.513   5.238  0.3800  0.0325  0.2292
 5481TIP3   OH240637   3.149   0.958   3.352 -0.6294 -0.1666 -0.1325
 5481TIP3    H140638   3.138   0.867   3.380  0.7043 -0.0313  0.9390
 5481TIP3    H240639   3.110   0.962   3.265 -1.5268 -1.5347  0.1736
 5482TIP3   OH240640   6.109   0.844   3.359 -0.5424 -0.2018  0.2041
 5482TIP3    H140641   6.017   0.843   3.334 -0.6656 -1.6008  0.6049
 5482TIP3    H240642   6.113   0.904   3.433 -1.3410 -0.9365  0.8637
 5483TIP3   OH240643   5.467   0.420   4.586 -0.6274  0.1457 -0.5219
 5483TIP3    H140644   5.416   0.483   4.636 -1.9814 -2.4095  1.6063
 5483TIP3    H240645   5.555   0.425   4.623 -0.3023  1.7433 -1.4190
 5484TIP3   OH240646   5.563   0.154   2.861  0.2642 -0.6103  0.0274
 5484TIP3    H140647   5.601   0.070   2.888  0.9455 -0.5293 -0.6486
 5484TIP3    H240648   5.525   0.137   2.775 -0.0265 -0.3378  0.0987
 5485TIP3   OH240649   4.252   1.387   4.488  0.2380  0.4134  0.3018
 5485TIP3    H140650   4.245   1.429   4.573  1.1125  0.6636  0.2581
 5485TIP3    H240651   4.218   1.452   4.426  0.7034  0.6953  0.3380
 5486TIP3   OH240652   1.852   3.976   5.241  0.6847 -0.2809  0.1788
 5486TIP3    H140653   1.825   3.982   5.332  0.1349  2.4569 -0.0957
 5486TIP3    H240654   1.934   4.026   5.237  0.1523  0.5514 -0.9848
 5487TIP3   OH240655   2.861   3.842   3.722 -0.3141  0.8832 -0.2030
 5487TIP3    H140656   2.875   3.770   3.661  0.4089  1.2099 -0.4335
 5487TIP3    H240657   2.942   3.846   3.773 -1.3624 -0.2164  1.6857
 5488TIP3   OH240658   3.373   5.907   3.638  0.7549 -0.3026  0.4451
 5488TIP3    H140659   3.422   5.937   3.714  0.4301  0.7281  0.2570
 5488TIP3    H240660   3.331   5.826   3.667  1.2089 -0.2972  1.1314
 5489TIP3   OH240661   0.763   1.431   2.634 -0.3816  0.1866  0.6617
 5489TIP3    H140662   0.694   1.364   2.635 -0.2850  0.0818  0.2817
 5489TIP3    H240663   0.729   1.499   2.576  0.0582 -0.1046  0.0493
 5490TIP3   OH240664   3.914   6.766   4.188  0.0552 -0.0395  0.0522
 5490TIP3    H140665   3.987   6.787   4.130  0.5515  0.1002  0.7136
 5490TIP3    H240666   3.870   6.850   4.202  0.9143  0.2449  1.1787
 5491TIP3   OH240667   5.976   1.689   4.666 -0.3374 -0.1909 -0.6189
 5491TIP3    H140668   6.035   1.631   4.713  0.0877  1.1881  0.6178
 5491TIP3    H240669   6.030   1.764   4.642 -1.7748  1.7652  1.7584
 5492TIP3   OH240670   5.500   2.083   4.311 -0.1031  0.5129  0.0775
 5492TIP3    H140671   5.519   1.991   4.328  0.2919  0.5299 -0.2622
 5492TIP3    H240672   5.519   2.095   4.218  0.4963  1.0964  0.2684
 5493TIP3   OH240673   4.431   1.400   2.403  0.5420 -0.1339  0.0683
 5493TIP3    H140674   4.458   1.310   2.422  1.5068  0.1075 -0.1083
 5493TIP3    H240675   4.336   1.398   2.405  0.4091 -1.7908 -2.6325
 5494TIP3   OH240676   3.876   4.015   2.831 -0.0060 -0.0318  0.4677
 5494TIP3    H140677   3.812   4.043   2.896 -0.3419  0.2446  0.0212
 5494TIP3    H240678   3.920   3.940   2.872 -1.2782 -0.8456  0.3925
 5495TIP3   OH240679   5.009   0.345   2.683  0.0985  0.1963 -0.1291
 5495TIP3    H140680   4.992   0.398   2.606 -0.0362  1.5436  0.7986
 5495TIP3    H240681   5.021   0.256   2.649 -1.6777  0.4332 -1.5307
 5496TIP3   OH240682   5.452   1.558   3.744 -0.0050 -0.1767  0.2379
 5496TIP3    H140683   5.446   1.523   3.655  0.0362  0.6115 -0.0879
 5496TIP3    H240684   5.540   1.597   3.748  0.0992 -0.4584  0.7171
 5497TIP3   OH240685   5.875   1.714   2.521  0.6885  0.5984 -0.4113
 5497TIP3    H140686   5.851   1.720   2.429  1.5937 -0.0791 -0.7128
 5497TIP3    H240687   5.827   1.638   2.554  0.1392  1.0128 -0.2388
 5498TIP3   OH240688   5.145   3.234   5.084  0.2168 -0.4074 -0.1578
 5498TIP3    H140689   5.218   3.214   5.025  0.8869  0.1394  0.4771
 5498TIP3    H240690   5.186   3.260   5.166 -0.6587  1.6312 -0.3203
 5499TIP3   OH240691   6.396   5.980   4.261 -0.3670 -0.0770  0.2439
 5499TIP3    H140692   6.464   5.915   4.247  1.0414  0.7687  2.5944
 5499TIP3    H240693   6.424   6.056   4.209 -0.9345 -0.5940 -0.8541
 5500TIP3   OH240694   6.007   4.803   4.886 -0.1159 -0.4345 -1.0235
 5500TIP3    H140695   6.019   4.833   4.977  0.8556 -0.7822 -1.0196
 5500TIP3    H240696   6.096   4.798   4.851 -0.4441 -0.8565 -1.8232
 5501TIP3   OH240697   4.976   4.876   2.630  0.4689 -0.9301 -0.0609
 5501TIP3    H140698   4.899   4.932   2.636  0.8280 -0.4861  0.4551
 5501TIP3    H240699   5.002   4.882   2.538  0.1965 -0.6717 -0.1244
 5502TIP3   OH240700   4.564   6.236   4.182 -0.3593 -0.5266  0.2115
 5502TIP3    H140701   4.505   6.171   4.219 -1.2801 -0.0447 -0.3724
 5502TIP3    H240702   4.506   6.301   4.144  0.5494  0.4872  0.5202
 5503TIP3   OH240703   5.393   5.966   2.886 -0.1802 -0.0483 -0.0986
 5503TIP3    H140704   5.350   5.930   2.809  0.6599  0.4528 -0.8202
 5503TIP3    H240705   5.321   5.987   2.946 -0.8216 -0.7385 -0.6067
 5504TIP3   OH240706   4.270   6.077   5.153  0.0624 -0.1661  1.1786
 5504TIP3    H140707   4.323   6.053   5.076  3.4062 -0.9720  3.4819
 5504TIP3    H240708   4.329   6.129   5.207 -2.4765  1.1884  2.8179
 5505TIP3   OH240709   1.379   6.697   3.341  0.2113  0.7704  0.5904
 5505TIP3    H140710   1.385   6.769   3.278  1.4143  2.4754  2.5379
 5505TIP3    H240711   1.469   6.680   3.367 -0.0432 -1.5408  0.1505
 5506TIP3   OH240712   3.999   1.383   3.936  0.3121 -0.0734  0.1123
 5506TIP3    H140713   3.933   1.340   3.882  0.6223  0.2351 -0.5218
 5506TIP3    H240714   3.950   1.420   4.009 -0.0615 -0.8145  0.2454
 5507TIP3   OH240715   0.168   0.206   4.326  0.2663 -0.1640  0.3556
 5507TIP3    H140716   0.096   0.268   4.310 -0.5055 -0.4451  2.3737
 5507TIP3    H240717   0.140   0.158   4.404  2.3412 -0.7839  0.7600
 5508TIP3   OH240718   4.537   6.355   3.250 -0.0367 -0.3165  0.4985
 5508TIP3    H140719   4.631   6.368   3.237 -0.0203 -0.0564  0.8611
 5508TIP3    H240720   4.530   6.291   3.321 -0.1318  0.5414  1.2786
 5509TIP3   OH240721   3.470   6.554   4.773 -0.2021 -0.2977 -0.8381
 5509TIP3    H140722   3.415   6.560   4.852  0.9457  0.5062 -0.0747
 5509TIP3    H240723   3.428   6.613   4.710 -0.5036 -0.0979 -0.4522
 5510TIP3   OH240724   2.611   5.577   3.353  0.1473  0.5008  0.2806
 5510TIP3    H140725   2.563   5.658   3.375  0.7106  0.6594  0.9544
 5510TIP3    H240726   2.637   5.589   3.262  0.3214  1.1320  0.4089
 5511TIP3   OH240727   4.929   3.452   4.697  0.0341 -0.0552  0.1227
 5511TIP3    H140728   4.937   3.362   4.730 -0.5930  0.2482  1.1684
 5511TIP3    H240729   4.847   3.484   4.736  0.4762  1.1165  0.1280
 5512TIP3   OH240730   1.961   0.222   3.877  0.2363  0.1161  0.0937
 5512TIP3    H140731   2.005   0.138   3.867  1.7630  0.8700  0.1787
 5512TIP3    H240732   1.893   0.205   3.942  0.8172 -0.9525  0.4564
 5513TIP3   OH240733   3.037   4.880   4.310 -0.3272 -0.1752  0.2147
 5513TIP3    H140734   2.965   4.819   4.330 -0.9853  0.5407  0.0853
 5513TIP3    H240735   3.014   4.916   4.224 -0.8767  1.5485  1.0368
 5514TIP3   OH240736   1.816   1.541   4.999  0.1709 -0.5528 -0.7207
 5514TIP3    H140737   1.819   1.455   5.041  1.2860 -0.3616 -0.3735
 5514TIP3    H240738   1.734   1.580   5.030  0.4724 -0.8260  0.4682
 5515TIP3   OH240739   3.736   0.410   3.833  0.0326 -0.4021  0.2679
 5515TIP3    H140740   3.810   0.349   3.835  1.6974  1.5060  0.2804
 5515TIP3    H240741   3.709   0.413   3.742  1.1019  0.1047 -0.0516
 5516TIP3   OH240742   0.881   1.175   2.961  0.3648 -0.2477 -0.3383
 5516TIP3    H140743   0.878   1.149   3.053  0.5566 -1.5751 -0.6863
 5516TIP3    H240744   0.810   1.127   2.919 -0.4879  1.2600 -0.6904
 5517TIP3   OH240745   3.762   6.526  10.239  0.2209  0.0089 -0.3757
 5517TIP3    H140746   3.731   6.486  10.321 -1.5299  0.6523 -0.6745
 5517TIP3    H240747   3.722   6.472  10.170  2.7786 -1.3755 -0.9051
 5518TIP3   OH240748   1.699   1.613   4.121  0.0091  0.2854  0.5136
 5518TIP3    H140749   1.672   1.700   4.091 -0.0009 -0.3613 -1.4785
 5518TIP3    H240750   1.662   1.553   4.056 -1.8478 -1.4475  2.9716
 5519TIP3   OH240751   6.442   1.050   3.781 -0.2275  0.3191  0.2190
 5519TIP3    H140752   6.421   0.987   3.849 -1.3420  0.5862  0.1498
 5519TIP3    H240753   6.372   1.039   3.717 -0.4748  1.6697  0.2392
 5520TIP3   OH240754   0.516   1.257   2.862 -0.1431  0.7669 -0.2725
 5520TIP3    H140755   0.473   1.309   2.794 -0.5537 -0.0386 -0.6426
 5520TIP3    H240756   0.567   1.192   2.814  0.1317  0.6452  0.1843
 5521TIP3   OH240757   5.594   1.706   4.981 -0.6107  0.1915 -0.3861
 5521TIP3    H140758   5.656   1.692   5.052  0.4477 -0.0310 -1.3113
 5521TIP3    H240759   5.534   1.631   4.985  1.3536 -1.5611 -1.6023
 5522TIP3   OH240760   0.542   0.553   3.947 -0.3723 -0.3505 -0.3029
 5522TIP3    H140761   0.555   0.458   3.943 -0.3359 -0.3603 -0.0119
 5522TIP3    H240762   0.631   0.589   3.951 -0.3955 -0.3887  1.1392
 5523TIP3   OH240763   1.032   0.817   3.598  0.3056  0.6113 -0.3637
 5523TIP3    H140764   1.099   0.751   3.617 -1.6161 -1.2701  0.3053
 5523TIP3    H240765   1.052   0.846   3.510  0.4047 -2.0157 -1.3130
 5524TIP3   OH240766   1.114   4.447   4.497  0.2003 -0.4976 -0.5218
 5524TIP3    H140767   1.131   4.427   4.589  0.7536 -2.1311 -0.9415
 5524TIP3    H240768   1.180   4.514   4.475  0.9365 -1.0518 -0.0606
 5525TIP3   OH240769   5.830   3.642   1.819  0.0806  0.0539  0.1498
 5525TIP3    H140770   5.890   3.675   1.753  1.1154  1.8623  1.8887
 5525TIP3    H240771   5.752   3.698   1.813 -0.0565 -0.1381  0.1060
 5526TIP3   OH240772   5.922   0.595   2.260 -0.6428  0.5337 -0.8944
 5526TIP3    H140773   6.005   0.643   2.265 -0.1020 -0.2398 -1.9999
 5526TIP3    H240774   5.856   0.659   2.285  0.4425  0.5335  2.5127
 5527TIP3   OH240775   0.968   5.120   4.158 -0.2531 -0.0591  0.1137
 5527TIP3    H140776   0.951   5.057   4.228 -0.4712 -0.5289 -0.3495
 5527TIP3    H240777   1.027   5.185   4.197 -0.6236 -0.1382  0.8185
 5528TIP3   OH240778   3.778   1.977   3.596 -0.0707 -0.1805  0.2381
 5528TIP3    H140779   3.733   2.004   3.677  1.2660 -1.4333  1.4660
 5528TIP3    H240780   3.847   2.042   3.584 -0.2540 -0.0082  0.1053
 5529TIP3   OH240781   3.323   6.160  12.349 -0.3334  0.1487  0.0747
 5529TIP3    H140782   3.394   6.113  12.392 -0.9090 -0.4040  0.4236
 5529TIP3    H240783   3.256   6.170  12.417 -0.6072  0.6425 -0.2609
 5530TIP3   OH240784   3.301   0.904   4.620 -0.4719  0.0129 -0.0633
 5530TIP3    H140785   3.338   0.991   4.605  2.1620 -1.0387 -0.1206
 5530TIP3    H240786   3.316   0.857   4.538 -1.6577 -0.5954  0.0430
 5531TIP3   OH240787   3.658   6.146   4.252 -0.2622 -0.1617  0.5355
 5531TIP3    H140788   3.614   6.073   4.209 -0.1538  0.4767 -0.7270
 5531TIP3    H240789   3.654   6.126   4.345 -1.2761 -1.1907  0.2918
 5532TIP3   OH240790   5.219   6.565   2.105  0.0213  0.2983 -0.2122
 5532TIP3    H140791   5.169   6.629   2.055 -0.6804  1.0458  1.3500
 5532TIP3    H240792   5.307   6.601   2.111  0.3559 -0.2476 -1.6464
 5533TIP3   OH240793   4.152   0.977   3.290 -0.0934  0.0162 -0.1763
 5533TIP3    H140794   4.085   0.936   3.235 -0.3480  2.5211 -1.9441
 5533TIP3    H240795   4.231   0.925   3.275 -0.7371 -0.7359 -1.1101
 5534TIP3   OH240796   3.216   5.127   4.882  0.3406 -0.1997  0.0367
 5534TIP3    H140797   3.122   5.112   4.876  0.3877 -0.3355 -0.3736
 5534TIP3    H240798   3.225   5.198   4.945 -0.2682  2.1787 -2.3808
 5535TIP3   OH240799   6.472   6.677   4.431 -0.3703  0.5150 -0.2675
 5535TIP3    H140800   6.508   6.618   4.366  1.8774  0.9810  0.4752
 5535TIP3    H240801   6.402   6.627   4.473  0.5722 -1.1211 -0.5855
 5536TIP3   OH240802   2.522   1.437   2.963 -0.1632  0.3933 -0.5256
 5536TIP3    H140803   2.587   1.375   2.932  0.1433  0.6124 -0.3239
 5536TIP3    H240804   2.464   1.385   3.018 -0.6268  0.0326 -1.3325
 5537TIP3   OH240805   0.754   2.364   4.400  0.3428  0.1613 -0.4083
 5537TIP3    H140806   0.686   2.297   4.405  2.1633 -1.6944  1.7851
 5537TIP3    H240807   0.832   2.318   4.369  2.1853  0.6092  3.0049
 5538TIP3   OH240808   1.440   4.238   3.197 -0.3297 -0.2373  0.2142
 5538TIP3    H140809   1.439   4.218   3.103 -2.2567 -0.4582  0.2360
 5538TIP3    H240810   1.513   4.187   3.232 -0.0488 -0.7354 -1.0500
 5539TIP3   OH240811   0.871   4.287   2.210 -0.2014  0.1194 -0.1409
 5539TIP3    H140812   0.949   4.343   2.209 -0.1698  0.1315  1.1095
 5539TIP3    H240813   0.855   4.270   2.303 -2.6002  1.3581 -0.2548
 5540TIP3   OH240814   0.862   3.130   2.334  0.5302  0.2991 -0.4256
 5540TIP3    H140815   0.768   3.138   2.317  0.1526 -1.1234  0.7866
 5540TIP3    H240816   0.893   3.221   2.339 -0.5959  0.7856 -1.7034
 5541TIP3   OH240817   5.003   5.174   3.738 -0.4605 -0.0223  0.5437
 5541TIP3    H140818   5.055   5.112   3.789  0.3316 -1.0424 -1.3522
 5541TIP3    H240819   4.924   5.188   3.789  0.1787 -1.1625  1.9050
 5542TIP3   OH240820   3.204   6.662   4.344 -0.0360 -0.0495 -0.2362
 5542TIP3    H140821   3.281   6.665   4.288  1.5405 -2.3467  1.6294
 5542TIP3    H240822   3.173   6.571   4.338 -1.7876  0.4736  0.1257
 5543TIP3   OH240823   2.557   5.317   4.637  0.0230  0.2919 -0.0713
 5543TIP3    H140824   2.513   5.261   4.573  0.6715 -0.3036 -0.0047
 5543TIP3    H240825   2.588   5.392   4.586  0.9158 -0.3862 -0.5443
 5544TIP3   OH240826   4.852   3.034   2.928  0.1037 -0.5724  0.0252
 5544TIP3    H140827   4.763   3.043   2.962 -0.3641 -1.1793 -0.9953
 5544TIP3    H240828   4.857   3.098   2.857  0.7865  0.0796  0.6455
 5545TIP3   OH240829   1.113   0.597   3.226  0.1162  0.5695 -0.0031
 5545TIP3    H140830   1.184   0.661   3.239  0.2759  0.4173 -0.1168
 5545TIP3    H240831   1.108   0.550   3.309  0.2077  0.5247 -0.0217
 5546TIP3   OH240832   4.012   1.644   2.326 -0.1062  0.2254  0.3058
 5546TIP3    H140833   3.937   1.698   2.300 -0.1594  0.2736  0.5592
 5546TIP3    H240834   3.994   1.620   2.417 -0.1701 -0.3741  0.1388
 5547TIP3   OH240835   2.259   6.179   3.732 -0.2881 -0.0234  0.2161
 5547TIP3    H140836   2.266   6.093   3.773 -0.6000 -0.3193 -0.3483
 5547TIP3    H240837   2.174   6.213   3.762  0.2716  0.5330  1.2590
 5548TIP3   OH240838   2.963   2.901   4.405  0.1657  0.2893 -0.0393
 5548TIP3    H140839   2.932   2.947   4.483 -1.3945 -0.7468 -0.0005
 5548TIP3    H240840   2.884   2.888   4.352  0.9606 -0.2661 -1.1368
 5549TIP3   OH240841   2.837   0.200   2.936  0.1975 -0.1917  0.5919
 5549TIP3    H140842   2.896   0.125   2.934  2.0900  1.2354 -2.2182
 5549TIP3    H240843   2.888   0.269   2.979  1.0331  1.2701 -2.5136
 5550TIP3   OH240844   2.183   2.806   4.539 -0.1923 -0.0136 -0.3198
 5550TIP3    H140845   2.213   2.716   4.527 -0.7044  0.0650 -2.4227
 5550TIP3    H240846   2.133   2.803   4.621  2.6027 -0.8568  1.5279
 5551TIP3   OH240847   6.823   6.039   2.480 -0.3250  0.6051 -0.8398
 5551TIP3    H140848   6.762   6.089   2.534 -0.2521  0.5252 -0.6849
 5551TIP3    H240849   6.771   5.966   2.447 -0.6525  1.2069 -1.7065
 5552TIP3   OH240850   3.660   1.633   2.701 -0.3244  0.2321  0.1112
 5552TIP3    H140851   3.667   1.573   2.628  0.6045 -1.3140  1.4120
 5552TIP3    H240852   3.662   1.720   2.661 -1.5665 -0.5489 -1.8048
 5553TIP3   OH240853   1.205   0.170   3.660 -0.4761  0.3170  0.1396
 5553TIP3    H140854   1.244   0.094   3.616  0.5048 -0.2075  1.8423
 5553TIP3    H240855   1.122   0.138   3.694 -1.2126  0.7091 -1.2183
 5554TIP3   OH240856   2.387   1.405   3.517  0.6647 -0.0912  0.3319
 5554TIP3    H140857   2.307   1.457   3.520  0.1798 -0.7768 -0.4338
 5554TIP3    H240858   2.411   1.403   3.425  1.1905 -0.4469  0.4739
 5555TIP3   OH240859   4.916   3.872   4.928  0.8495  0.6850 -0.4190
 5555TIP3    H140860   4.964   3.929   4.988  0.9892  0.4916 -0.3480
 5555TIP3    H240861   4.914   3.920   4.845  0.6735  0.9425 -0.2675
 5556TIP3   OH240862   4.365   4.571   3.853 -0.1867 -0.2485 -0.1787
 5556TIP3    H140863   4.437   4.614   3.900 -0.3313 -0.3889  0.1760
 5556TIP3    H240864   4.397   4.482   3.838 -0.4936 -0.4755  0.4625
 5557TIP3   OH240865   5.444   1.343   2.954  0.0398 -0.2011  0.5080
 5557TIP3    H140866   5.436   1.432   2.918  1.8413  0.4577  1.6051
 5557TIP3    H240867   5.523   1.308   2.913 -1.4545 -1.9316 -1.0629
 5558TIP3   OH240868   3.149   4.454   2.407  0.0495 -0.5615 -0.1429
 5558TIP3    H140869   3.167   4.545   2.388 -1.3833  0.3215  2.1668
 5558TIP3    H240870   3.234   4.410   2.404  0.5935  0.5546 -2.4760
 5559TIP3   OH240871   1.958   6.835   4.776 -0.3386 -0.3816  0.1150
 5559TIP3    H140872   1.994   6.840   4.864  0.0557 -1.4392  0.0344
 5559TIP3    H240873   1.888   6.900   4.774  1.5262  1.7370  0.2926
 5560TIP3   OH240874   3.394   3.878   4.044 -0.6865  0.0522 -0.1829
 5560TIP3    H140875   3.490   3.880   4.042 -0.7030  0.3031 -0.9424
 5560TIP3    H240876   3.367   3.967   4.023 -1.0952 -0.1596 -0.5691
 5561TIP3   OH240877   5.294   6.403   3.842 -0.3387 -0.1008 -0.4460
 5561TIP3    H140878   5.362   6.336   3.847  1.1195  1.3882  2.3885
 5561TIP3    H240879   5.338   6.478   3.800 -0.4064  0.6112  0.7054
 5562TIP3   OH240880   2.793   4.020   4.474  0.2002 -0.4218  0.0980
 5562TIP3    H140881   2.798   3.930   4.443  0.6464 -0.6159  0.7130
 5562TIP3    H240882   2.865   4.028   4.537  1.8058  1.0959 -1.7902
 5563TIP3   OH240883   3.643   6.029   1.927 -0.1681 -0.3599  0.2160
 5563TIP3    H140884   3.566   6.087   1.928 -0.8444 -1.2308  0.0506
 5563TIP3    H240885   3.637   5.981   2.010 -0.3537 -1.1332 -0.2379
 5564TIP3   OH240886   6.669   1.950   3.349  0.1531 -0.0899 -0.4563
 5564TIP3    H140887   6.724   1.982   3.421 -0.1567 -0.4990 -0.0313
 5564TIP3    H240888   6.725   1.890   3.300  0.2923  0.0096 -0.4175
 5565TIP3   OH240889   6.211   0.386   2.254  0.2080 -0.1169 -0.7547
 5565TIP3    H140890   6.129   0.428   2.228  0.7278  1.3511 -0.1288
 5565TIP3    H240891   6.237   0.433   2.333  2.1138  0.0754 -1.4560
 5566TIP3   OH240892   3.352   0.348   4.062  0.2755 -0.0718  0.3080
 5566TIP3    H140893   3.447   0.346   4.066  0.6007  3.8169 -1.0737
 5566TIP3    H240894   3.325   0.386   4.145 -0.0941 -0.8360  0.5514
 5567TIP3   OH240895   1.746   4.876   3.201 -0.2954 -0.0729  0.0458
 5567TIP3    H140896   1.801   4.885   3.279 -1.7412 -0.5714  1.1711
 5567TIP3    H240897   1.723   4.966   3.177  0.4726  0.0999 -0.0470
 5568TIP3   OH240898   4.052   2.354   3.735  0.3689 -0.6355  0.3460
 5568TIP3    H140899   3.997   2.433   3.733 -1.6096 -1.9438 -0.0655
 5568TIP3    H240900   4.028   2.311   3.817  2.2037 -0.3361  1.0783
 5569TIP3   OH240901   2.711   6.691   4.719 -0.3168 -0.5035  0.3960
 5569TIP3    H140902   2.652   6.741   4.663  2.6387 -0.1980 -2.7909
 5569TIP3    H240903   2.764   6.757   4.763  1.5572 -0.6290 -1.4875
 5570TIP3   OH240904   4.149   2.190   4.746 -0.1182  0.0765  0.2555
 5570TIP3    H140905   4.170   2.207   4.837 -1.8087 -1.5861  1.0317
 5570TIP3    H240906   4.215   2.126   4.718 -0.8645 -1.0632  1.0184
 5571TIP3   OH240907   6.372   6.242   2.574  0.1685  0.6471 -0.1022
 5571TIP3    H140908   6.415   6.324   2.599 -0.4402  1.0408 -0.3090
 5571TIP3    H240909   6.292   6.240   2.627 -0.9200  1.2765 -1.6254
 5572TIP3   OH240910   0.907   4.492   2.506  0.0919  0.6446  0.2287
 5572TIP3    H140911   0.825   4.515   2.462  1.1969  1.4719 -1.4821
 5572TIP3    H240912   0.911   4.397   2.502  0.1578  0.6961 -1.4967
 5573TIP3   OH240913   2.863   0.523   2.089  0.2540  0.4149  0.2958
 5573TIP3    H140914   2.891   0.606   2.050 -1.0424  0.4546 -0.6091
 5573TIP3    H240915   2.869   0.538   2.183 -0.4712  1.7415  0.1617
 5574TIP3   OH240916   2.523   2.223   3.136  0.0033 -0.5443  0.3983
 5574TIP3    H140917   2.589   2.175   3.085 -0.6407 -0.8234 -0.1864
 5574TIP3    H240918   2.442   2.212   3.086 -0.3081  0.5380  0.6417
 5575TIP3   OH240919   0.976   4.914   2.133 -0.6797 -0.4646  0.5133
 5575TIP3    H140920   0.925   4.849   2.084 -1.4608  0.2904  0.2852
 5575TIP3    H240921   1.067   4.887   2.123 -0.9192 -0.9371 -0.4500
 5576TIP3   OH240922   2.425   2.424   4.326  0.0351 -0.3164  0.4322
 5576TIP3    H140923   2.467   2.400   4.243  0.4549  0.0033  0.5467
 5576TIP3    H240924   2.336   2.392   4.318 -0.0955  0.2354 -0.3830
 5577TIP3   OH240925   5.684   4.228   5.389 -0.5336  0.2554 -0.6802
 5577TIP3    H140926   5.691   4.324   5.388 -1.1258  0.3182 -0.0078
 5577TIP3    H240927   5.602   4.210   5.342 -0.3870  0.0748 -0.8655
 5578TIP3   OH240928   1.205   1.413   2.999  0.3479 -0.4924  0.4402
 5578TIP3    H140929   1.244   1.486   2.951 -1.0635 -0.8319 -1.3214
 5578TIP3    H240930   1.135   1.453   3.051 -0.2445 -0.5403 -0.3107
 5579TIP3   OH240931   4.158   0.438   2.621 -0.4855  0.0086  0.3915
 5579TIP3    H140932   4.074   0.392   2.624 -0.5086  0.0996  2.2084
 5579TIP3    H240933   4.198   0.420   2.705  1.8369 -0.8809 -0.8125
 5580TIP3   OH240934   2.358   1.638   2.837 -0.4028 -0.2682  0.6133
 5580TIP3    H140935   2.417   1.569   2.869  1.5706  0.0407 -2.0517
 5580TIP3    H240936   2.308   1.595   2.768  0.1063  0.6720 -0.3583
 5581TIP3   OH240937   5.388   2.656   2.146  0.3176 -0.5408 -0.7349
 5581TIP3    H140938   5.342   2.740   2.153  0.5007 -0.4747 -0.2570
 5581TIP3    H240939   5.326   2.598   2.103 -0.3350 -0.5332  0.1550
 5582TIP3   OH240940   4.709   6.299   3.960  0.0335 -0.2751  0.2724
 5582TIP3    H140941   4.650   6.278   4.033  0.5212  0.5722  0.9327
 5582TIP3    H240942   4.792   6.260   3.985  0.7732  1.7155  1.2054
 5583TIP3   OH240943   5.581   5.774   2.326 -0.5490  0.0540  0.5446
 5583TIP3    H140944   5.492   5.769   2.292 -0.6003  1.7879  0.3378
 5583TIP3    H240945   5.635   5.798   2.250  0.4167 -2.6278  0.2684
 5584TIP3   OH240946   4.572   1.963   2.613 -0.2245 -0.4290  0.0245
 5584TIP3    H140947   4.613   2.042   2.578  0.3590 -1.1090 -0.8885
 5584TIP3    H240948   4.511   1.995   2.679 -0.9025  0.8758 -1.1751
 5585TIP3   OH240949   4.403   5.988   4.210 -0.5970 -0.0475 -0.1654
 5585TIP3    H140950   4.352   5.970   4.289 -1.2559 -0.7877 -0.7338
 5585TIP3    H240951   4.492   5.963   4.232 -0.6942  0.1468  0.4731
 5586TIP3   OH240952   0.031   3.236   4.596  0.3485  0.1098 -0.3123
 5586TIP3    H140953  -0.014   3.169   4.648 -0.4180 -0.8125 -2.0587
 5586TIP3    H240954   0.072   3.186   4.525 -0.0006  1.4537 -1.4923
 5587TIP3   OH240955   3.173   6.369   1.941 -0.0577 -0.0102 -0.2711
 5587TIP3    H140956   3.084   6.373   1.977 -0.1143  0.1766 -0.4299
 5587TIP3    H240957   3.194   6.276   1.938 -0.9736 -0.2019 -1.9931
 5588TIP3   OH240958   3.104   2.742   3.872  0.0637 -0.6460 -0.3135
 5588TIP3    H140959   3.127   2.660   3.916  1.7230 -0.5994 -0.9995
 5588TIP3    H240960   3.172   2.804   3.899 -1.4226  0.6797  0.5620
 5589TIP3   OH240961   5.508   1.600   2.792  0.0099  0.3129 -0.0193
 5589TIP3    H140962   5.419   1.571   2.771 -0.0707 -0.6702  1.5214
 5589TIP3    H240963   5.509   1.693   2.770 -2.1842  0.9344  2.1570
 5590TIP3   OH240964   4.186   5.347   2.944 -0.0710  0.5817 -0.1640
 5590TIP3    H140965   4.279   5.360   2.959  0.0463  1.2723 -1.3656
 5590TIP3    H240966   4.162   5.274   3.002  1.0638  0.8014  0.6144
 5591TIP3   OH240967   3.024   1.922   5.415  0.3964  0.1158  0.6130
 5591TIP3    H140968   3.103   1.956   5.457 -0.1303  2.4010 -0.1296
 5591TIP3    H240969   3.053   1.842   5.372  1.9406  0.0884  1.6100
 5592TIP3   OH240970   2.283   4.067   3.357  0.0551  0.0603  0.3597
 5592TIP3    H140971   2.268   4.098   3.446 -1.3048  0.0443  0.1501
 5592TIP3    H240972   2.227   3.989   3.350  1.6094 -1.0903  0.1068
 5593TIP3   OH240973   1.814   0.988   4.403 -0.3842  0.1755 -0.3179
 5593TIP3    H140974   1.836   1.003   4.494  0.3477  0.8994 -0.6025
 5593TIP3    H240975   1.844   1.066   4.357 -0.5867 -0.2485 -1.2043
 5594TIP3   OH240976   1.603   0.653   4.875  0.0657 -0.6210  0.2250
 5594TIP3    H140977   1.561   0.579   4.831 -0.1841 -1.0654  1.1817
 5594TIP3    H240978   1.636   0.616   4.957  0.9810  0.0703  0.1859
 5595TIP3   OH240979   3.053   5.202   1.837 -0.3874  0.0947 -0.2834
 5595TIP3    H140980   3.092   5.179   1.921  1.0650 -0.5171 -1.0906
 5595TIP3    H240981   3.126   5.238   1.786 -1.4731  1.4809 -0.9192
 5596TIP3   OH240982   1.265   0.429   3.021 -0.6172 -0.1230 -0.1466
 5596TIP3    H140983   1.210   0.477   3.083  0.9472 -0.1299  1.3316
 5596TIP3    H240984   1.204   0.395   2.956 -2.4093 -0.5270  1.6547
 5597TIP3   OH240985   2.447   4.256   2.067  0.1575  0.4490 -0.1920
 5597TIP3    H140986   2.391   4.213   2.132 -0.6503  0.2601 -0.9768
 5597TIP3    H240987   2.530   4.209   2.072  0.0219  0.2813  0.5296
 5598TIP3   OH240988   1.055   1.736   3.514 -0.2117 -0.4323 -0.8017
 5598TIP3    H140989   1.147   1.748   3.492  0.0426  0.6155  0.6865
 5598TIP3    H240990   1.009   1.807   3.469 -0.2456 -0.6959 -1.1894
 5599TIP3   OH240991   0.099   0.631   4.850  0.4179 -0.1292  0.3285
 5599TIP3    H140992   0.009   0.650   4.878  1.2756  3.7730  1.1105
 5599TIP3    H240993   0.091   0.606   4.758 -1.5258 -1.0814  0.6998
 5600TIP3   OH240994   0.452   2.584   5.220 -0.5112  0.0135  0.2195
 5600TIP3    H140995   0.497   2.665   5.245 -0.3153  0.0511 -0.2451
 5600TIP3    H240996   0.522   2.528   5.188 -0.6656 -0.2972  0.4226
 5601TIP3   OH240997   5.750   0.857   4.415  0.1483  0.1366  0.2634
 5601TIP3    H140998   5.794   0.871   4.498  0.6940 -1.8258  0.3443
 5601TIP3    H240999   5.664   0.822   4.439  0.1251  0.0195  0.0130
 5602TIP3   OH241000   3.650   5.889   5.634 -0.4242  0.5720 -0.2001
 5602TIP3    H141001   3.731   5.889   5.582 -1.0798 -3.1175 -1.4945
 5602TIP3    H241002   3.608   5.972   5.611  0.8210  0.5278 -3.1906
 5603TIP3   OH241003   1.752   3.122   3.647  0.3166 -0.2470 -0.1479
 5603TIP3    H141004   1.799   3.128   3.730 -1.7442  1.5469  1.0171
 5603TIP3    H241005   1.816   3.144   3.580  1.3793  1.1883  1.2641
 5604TIP3   OH241006   2.275   5.201   4.012  0.3988  0.1447  0.0139
 5604TIP3    H141007   2.185   5.221   4.038 -0.0454 -1.0081 -0.5727
 5604TIP3    H241008   2.274   5.207   3.917 -0.5127 -5.0068 -0.5921
 5605TIP3   OH241009   2.518   6.802   2.875 -0.3790  0.5180 -0.4390
 5605TIP3    H141010   2.553   6.713   2.879  1.4554  1.2095 -0.1314
 5605TIP3    H241011   2.441   6.795   2.818 -0.2054 -1.2289 -0.5123
 5606TIP3   OH241012   3.380   2.307   5.042  0.0621 -0.2077 -0.1154
 5606TIP3    H141013   3.408   2.215   5.046 -1.5189 -0.7545 -0.7271
 5606TIP3    H241014   3.435   2.352   5.106  0.4871 -1.6822  0.5956
 5607TIP3   OH241015   6.151   2.730   5.161 -0.7632  0.7484 -0.5945
 5607TIP3    H141016   6.069   2.772   5.134 -1.5518 -0.7464 -0.6011
 5607TIP3    H241017   6.198   2.714   5.078 -1.8200 -1.0733 -0.8875
 5608TIP3   OH241018   1.210   4.066   2.150  0.3350  0.0948  0.2957
 5608TIP3    H141019   1.207   4.019   2.066 -1.0705 -1.2431  1.0507
 5608TIP3    H241020   1.224   4.157   2.125  1.5375 -0.4764 -1.3043
 5609TIP3   OH241021   1.554   0.593   2.877 -0.1301 -0.2362  0.2665
 5609TIP3    H141022   1.480   0.654   2.877  0.3055  0.2973 -0.3922
 5609TIP3    H241023   1.600   0.612   2.959  0.3067  0.7062 -0.1816
 5610TIP3   OH241024   0.807   2.074   2.591 -0.1093  0.3823  0.7909
 5610TIP3    H141025   0.878   2.047   2.649  0.3965 -0.3076 -0.1289
 5610TIP3    H241026   0.806   2.169   2.597  0.8502  0.3938  0.8666
 5611TIP3   OH241027   1.114   3.139   4.358 -0.6525  0.0900  0.2128
 5611TIP3    H141028   1.127   3.167   4.267 -0.9576 -1.0460 -0.1916
 5611TIP3    H241029   1.191   3.171   4.404  1.0700 -1.9971 -1.0787
 5612TIP3   OH241030   4.819   3.585   4.100 -0.0572  0.0379 -0.1232
 5612TIP3    H141031   4.788   3.570   4.189  1.4326  1.1885  0.6273
 5612TIP3    H241032   4.912   3.564   4.103  0.1054  0.5188 -1.2972
 5613TIP3   OH241033   5.742   2.592   2.712 -0.0647  0.2229 -0.4356
 5613TIP3    H141034   5.659   2.626   2.747 -0.7507  0.0469 -1.8243
 5613TIP3    H241035   5.717   2.544   2.633  1.2851 -0.5527 -0.4210
 5614TIP3   OH241036   6.443   6.242   4.450  0.3363  0.0447 -0.1794
 5614TIP3    H141037   6.417   6.217   4.538 -0.9319 -0.9730 -0.8160
 5614TIP3    H241038   6.534   6.215   4.443  0.2270 -0.5504  0.5718
 5615TIP3   OH241039   6.218   3.747   1.947  0.2545  0.0355 -0.3120
 5615TIP3    H141040   6.279   3.689   1.901 -0.7134 -1.3981  0.1455
 5615TIP3    H241041   6.144   3.691   1.969  0.4258  0.7886  2.5027
 5616TIP3   OH241042   4.322   3.916   4.985 -0.2996  0.1125 -0.1524
 5616TIP3    H141043   4.231   3.891   4.997 -0.7971  2.3061  1.1554
 5616TIP3    H241044   4.367   3.879   5.061 -0.1656 -0.5763 -0.5585
 5617TIP3   OH241045   0.745   3.472   3.281  0.2073  0.3997 -0.1630
 5617TIP3    H141046   0.653   3.493   3.295  0.0623  0.1748 -0.7536
 5617TIP3    H241047   0.778   3.542   3.226  0.5208  0.7413  0.4451
 5618TIP3   OH241048   1.357   4.306   2.950  0.2543 -0.3884 -0.0297
 5618TIP3    H141049   1.266   4.331   2.968 -0.3853 -2.6699  0.2310
 5618TIP3    H241050   1.384   4.364   2.879 -1.5149  0.1484 -0.3178
 5619TIP3   OH241051   5.817   4.542   3.019 -0.3336  0.3801  0.3670
 5619TIP3    H141052   5.742   4.584   3.062  0.1906  3.2620 -1.2550
 5619TIP3    H241053   5.781   4.505   2.939 -0.7266 -2.1956  1.6338
 5620TIP3   OH241054   1.353   6.044   4.269 -0.0711  0.4134 -0.1754
 5620TIP3    H141055   1.386   5.975   4.212  2.2657  1.3388 -0.0825
 5620TIP3    H241056   1.386   6.125   4.229 -0.2911  1.2376  1.2604
 5621TIP3   OH241057   1.846   4.843   4.446 -0.2039  0.0226  0.5347
 5621TIP3    H141058   1.850   4.755   4.485  0.5782  0.1701  0.7935
 5621TIP3    H241059   1.776   4.836   4.381 -1.8889 -0.1069  2.2705
 5622TIP3   OH241060   3.271   6.280   2.693  0.2262  0.2993 -0.4490
 5622TIP3    H141061   3.199   6.276   2.755  0.5425 -1.2519 -0.1274
 5622TIP3    H241062   3.293   6.373   2.686 -2.0435  0.8622 -0.8598
 5623TIP3   OH241063   1.554   3.618   4.361 -0.4982 -0.8593 -0.1814
 5623TIP3    H141064   1.528   3.705   4.332 -0.9119 -0.8230  0.3061
 5623TIP3    H241065   1.473   3.567   4.360 -0.1773 -1.3750 -0.9336
 5624TIP3   OH241066   2.635   1.529   3.998 -0.1976 -0.3613  0.0394
 5624TIP3    H141067   2.659   1.619   3.978  1.2500 -0.5498  0.7718
 5624TIP3    H241068   2.718   1.481   3.998 -0.8694 -1.5891  0.2290
 5625TIP3   OH241069   5.865   1.200   4.474  0.1200  0.0524 -0.0453
 5625TIP3    H141070   5.841   1.234   4.388 -0.4792 -0.7517 -0.2055
 5625TIP3    H241071   5.960   1.187   4.469  0.0712 -0.1067 -0.6274
 5626TIP3   OH241072   4.306   3.988   3.960 -0.6060  0.3842  0.2046
 5626TIP3    H141073   4.281   4.071   4.002  1.1980  2.4003 -2.3398
 5626TIP3    H241074   4.224   3.939   3.954 -1.9137  2.3052  1.1297
 5627TIP3   OH241075   4.706   4.942   4.765  0.0618 -0.4825  0.0333
 5627TIP3    H141076   4.790   4.933   4.720  0.7668 -1.4438  1.4334
 5627TIP3    H241077   4.711   5.027   4.810  0.3482 -0.5893  0.2067
 5628TIP3   OH241078   2.634   5.928   1.971  0.0926  0.0242 -0.6712
 5628TIP3    H141079   2.625   5.833   1.971 -0.5946 -0.0213  2.2612
 5628TIP3    H241080   2.725   5.944   1.945  2.1515 -1.9155  4.1557
 5629TIP3   OH241081   0.517   5.890   2.094 -0.2606 -0.1817 -1.1525
 5629TIP3    H141082   0.597   5.877   2.145 -0.7236 -0.8524 -0.5860
 5629TIP3    H241083   0.527   5.978   2.057  0.6885 -0.2154 -1.0092
 5630TIP3   OH241084   0.346   6.400   3.784  0.1491  1.1160 -0.3855
 5630TIP3    H141085   0.375   6.310   3.771 -0.5072  0.6285  1.2576
 5630TIP3    H241086   0.255   6.401   3.754  0.0103  1.1122  0.0331
 5631TIP3   OH241087   6.452   3.822   2.153  0.0414 -0.2280 -0.5262
 5631TIP3    H141088   6.529   3.765   2.157  0.1757  0.0119  0.5552
 5631TIP3    H241089   6.383   3.767   2.115  0.7213 -0.4630 -1.4464
 5632TIP3   OH241090   0.696   1.398   5.417  0.1625  0.0726  0.1703
 5632TIP3    H141091   0.611   1.411   5.373  0.5350 -0.7817 -0.8591
 5632TIP3    H241092   0.750   1.471   5.388  0.0937  0.0593  0.0088
 5633TIP3   OH241093   1.564   5.819   4.746  0.6084  0.5927 -0.0563
 5633TIP3    H141094   1.523   5.835   4.661 -1.7571 -2.7697  0.2237
 5633TIP3    H241095   1.654   5.791   4.724  0.2793  0.4970 -1.3994
 5634TIP3   OH241096   4.007   1.535   4.294  0.2643  0.1758 -0.2384
 5634TIP3    H141097   4.015   1.461   4.354  0.1555 -0.1217 -0.5910
 5634TIP3    H241098   4.041   1.609   4.344 -0.5394  0.0838  0.4695
 5635TIP3   OH241099   2.198   5.664   4.116 -0.3575 -0.1710  0.1308
 5635TIP3    H141100   2.142   5.627   4.185 -0.6424  0.3603  0.1907
 5635TIP3    H241101   2.139   5.720   4.065  0.2210  0.8069  0.5035
 5636TIP3   OH241102   1.975   6.256   3.791 -0.4032 -0.1001  0.3442
 5636TIP3    H141103   1.995   6.325   3.728  3.5351 -0.5058  0.9083
 5636TIP3    H241104   1.922   6.299   3.858 -2.7103  0.9071 -1.9754
 5637TIP3   OH241105   1.596   1.177   2.882 -0.6980 -0.2125  0.6225
 5637TIP3    H141106   1.684   1.154   2.852 -1.4385 -1.1059 -0.9763
 5637TIP3    H241107   1.603   1.177   2.978  0.4347 -2.8897  0.6201
 5638TIP3   OH241108   6.809   1.325   3.035  0.1388 -0.2965 -0.1913
 5638TIP3    H141109   6.749   1.271   3.087 -1.0233  1.2553  0.1462
 5638TIP3    H241110   6.813   1.281   2.950 -1.3881 -0.5114 -0.1777
 5639TIP3   OH241111   1.994   3.967   3.432  0.0276  0.2683 -0.1503
 5639TIP3    H141112   1.981   3.929   3.345 -0.7578  1.6276 -0.6567
 5639TIP3    H241113   1.918   3.938   3.482 -1.7802  2.8220 -1.1812
 5640TIP3   OH241114   6.142   5.719   2.720 -0.1896  0.0761  0.1217
 5640TIP3    H141115   6.079   5.790   2.737  0.3197  0.6227 -0.2485
 5640TIP3    H241116   6.103   5.670   2.647 -0.4161  0.1219  0.2082
 5641TIP3   OH241117   4.548   3.983   4.090 -0.1573  0.1450 -0.1920
 5641TIP3    H141118   4.537   3.928   4.013 -1.8682  0.1691 -0.0084
 5641TIP3    H241119   4.483   4.052   4.080  2.3600  2.5889 -0.7300
 5642TIP3   OH241120   1.779   6.809   2.677 -0.7722  0.1208  0.0041
 5642TIP3    H141121   1.815   6.747   2.614 -1.3452 -0.8211  0.5794
 5642TIP3    H241122   1.702   6.846   2.634  0.3565  1.5337 -0.9047
 5643TIP3   OH241123   6.812   6.237   3.219  0.6266 -0.5831  0.6544
 5643TIP3    H141124   6.728   6.279   3.239  0.7260 -0.3865  0.6631
 5643TIP3    H241125   6.819   6.166   3.283  0.7330 -0.2369  1.0347
 5644TIP3   OH241126   0.447   5.438   4.162 -0.0910  0.4410  0.1174
 5644TIP3    H141127   0.422   5.348   4.181  0.6202  0.1989 -0.0571
 5644TIP3    H241128   0.366   5.481   4.136 -0.7244  0.2398  1.6448
 5645TIP3   OH241129   0.652   4.210   3.605  0.0989 -0.1441 -0.4170
 5645TIP3    H141130   0.696   4.152   3.542  1.3389 -0.6973  0.9035
 5645TIP3    H241131   0.585   4.255   3.553  1.8281  0.3057 -2.4033
 5646TIP3   OH241132   5.489   6.783   3.997  0.3268 -0.2896 -0.0456
 5646TIP3    H141133   5.529   6.712   4.047  4.6459  0.8865 -1.3217
 5646TIP3    H241134   5.450   6.740   3.921  1.2725 -1.4743  0.1010
 5647TIP3   OH241135   1.636   6.133   2.433 -0.1211  0.3307 -0.3748
 5647TIP3    H141136   1.581   6.076   2.486  0.3655  0.5174  0.3480
 5647TIP3    H241137   1.681   6.075   2.373 -2.9846  0.3780 -2.7929
 5648TIP3   OH241138   4.682   2.535   2.183  0.4157  0.5245 -0.0978
 5648TIP3    H141139   4.754   2.529   2.120  1.1583  0.8923  0.7069
 5648TIP3    H241140   4.606   2.558   2.129  0.8269 -0.1604 -0.9967
 5649TIP3   OH241141   1.216   5.923   3.731 -0.3227  0.4118  0.5390
 5649TIP3    H141142   1.208   5.836   3.770  0.5681  0.7534  1.5351
 5649TIP3    H241143   1.268   5.909   3.652 -0.8767 -0.0723  0.2545
 5650TIP3   OH241144   2.502   5.915   2.384 -0.2283  0.2578  0.3012
 5650TIP3    H141145   2.513   5.821   2.394  1.3914  0.3482 -0.3701
 5650TIP3    H241146   2.573   5.953   2.436  0.2369  1.0517 -0.8765
 5651TIP3   OH241147   5.631   0.107   4.828 -0.1582 -0.2289 -0.3687
 5651TIP3    H141148   5.674   0.091   4.912  0.5701 -0.4279 -0.7721
 5651TIP3    H241149   5.557   0.164   4.850 -0.8827 -1.4984  0.6200
 5652TIP3   OH241150   3.737   3.206   3.964 -0.0394  0.0481 -0.3500
 5652TIP3    H141151   3.643   3.201   3.949  0.0705 -1.7284 -0.7295
 5652TIP3    H241152   3.769   3.266   3.897 -1.0046  1.4826  0.4429
 5653TIP3   OH241153   1.415   5.335   3.150 -0.3653 -0.2745 -0.0635
 5653TIP3    H141154   1.464   5.298   3.224 -1.8799 -0.5996  0.8174
 5653TIP3    H241155   1.479   5.341   3.080  0.6101 -1.9863  0.6107
 5654TIP3   OH241156   4.057   6.829   2.991 -0.2413 -0.2959  0.1533
 5654TIP3    H141157   4.084   6.920   2.992  0.0712 -0.3866  0.0603
 5654TIP3    H241158   3.971   6.829   3.033  0.2444 -0.1177  1.1806
 5655TIP3   OH241159   1.023   4.291   4.933  0.0486 -0.1088  0.1615
 5655TIP3    H141160   0.990   4.335   5.011  1.0069  0.0241  0.5020
 5655TIP3    H241161   0.962   4.220   4.918 -1.6664  1.4280 -0.5218
 5656TIP3   OH241162   0.635   6.247   3.118 -0.4701 -0.0869  0.2564
 5656TIP3    H141163   0.650   6.327   3.167 -1.1449  0.3203 -0.1916
 5656TIP3    H241164   0.719   6.230   3.074 -0.5750  0.8641 -0.3408
 5657TIP3   OH241165   3.270   3.654   2.845  0.3055  0.1134 -0.2745
 5657TIP3    H141166   3.267   3.702   2.928 -0.4653  0.4398 -0.4916
 5657TIP3    H241167   3.330   3.704   2.790  1.4937 -0.5595  0.3574
 5658TIP3   OH241168   5.930   2.994   4.486 -0.5327  0.4678  0.2817
 5658TIP3    H141169   5.892   3.046   4.415 -2.0874 -0.9493 -0.0146
 5658TIP3    H241170   5.958   3.058   4.551 -1.3387  1.7078 -0.5394
 5659TIP3   OH241171   1.762   2.620   2.544 -0.3638  0.1012  0.1978
 5659TIP3    H141172   1.783   2.696   2.598  0.2775 -0.3530  0.5899
 5659TIP3    H241173   1.708   2.656   2.473  2.3203  1.4506 -1.2925
 5660TIP3   OH241174   1.028   4.026   5.365  0.0674 -0.0372 -0.8268
 5660TIP3    H141175   0.998   4.112   5.393  0.0734 -1.0305  2.6562
 5660TIP3    H241176   0.950   3.970   5.371  0.2665 -0.5216 -2.2161
 5661TIP3   OH241177   0.450   4.554   4.518 -0.4079 -0.0892 -0.1213
 5661TIP3    H141178   0.477   4.528   4.429  1.9131  0.7280  0.2544
 5661TIP3    H241179   0.530   4.591   4.556 -1.1836 -0.9768  2.5328
 5662TIP3   OH241180   6.206   5.880   3.000 -0.8761  0.2357  0.3486
 5662TIP3    H141181   6.297   5.891   3.024  0.1060 -2.1285 -1.7880
 5662TIP3    H241182   6.182   5.793   3.033 -2.4651  0.9196  1.1165
 5663TIP3   OH241183   5.836   4.731   2.702  0.0697 -0.0546 -0.6034
 5663TIP3    H141184   5.925   4.705   2.725 -0.3233 -0.1729  0.8562
 5663TIP3    H241185   5.822   4.694   2.614  0.9038 -1.3612 -0.2079
 5664TIP3   OH241186   6.097   5.816   3.314 -0.0669  0.3298  0.2489
 5664TIP3    H141187   6.102   5.847   3.404 -0.9542  0.1972  0.3572
 5664TIP3    H241188   6.025   5.866   3.276  1.3047  1.5208 -0.8573
 5665TIP3   OH241189   1.904   4.555   2.745 -0.4080  0.5283  0.0725
 5665TIP3    H141190   1.903   4.625   2.811  1.5406  0.5025  0.1971
 5665TIP3    H241191   1.948   4.595   2.669  0.6750 -0.5104  0.1237
 5666TIP3   OH241192   4.515   2.693   3.495 -0.7450  0.3731  0.0904
 5666TIP3    H141193   4.575   2.619   3.490 -1.7143 -0.4233 -0.0074
 5666TIP3    H241194   4.509   2.713   3.588  0.0683  0.8091  0.0619
 5667TIP3   OH241195   0.073   3.791   2.520  0.3044 -0.4835  0.2095
 5667TIP3    H141196  -0.012   3.832   2.537  0.4831 -0.3722  0.8597
 5667TIP3    H241197   0.078   3.785   2.425  0.4918  1.4433  0.0659
 5668TIP3   OH241198   4.648   1.215   3.725 -0.1612 -0.0445 -0.0525
 5668TIP3    H141199   4.620   1.196   3.635  0.0083 -1.5395  0.1921
 5668TIP3    H241200   4.625   1.307   3.738 -0.3074  0.1572 -1.5813
 5669TIP3   OH241201   5.774   3.671   3.469  0.6073 -0.3297  0.2498
 5669TIP3    H141202   5.801   3.636   3.384 -0.0692  3.0154 -1.4765
 5669TIP3    H241203   5.679   3.670   3.465  0.5506 -0.9159  1.3786
 5670TIP3   OH241204   6.699   3.153   2.123  0.7189 -0.4386  0.1442
 5670TIP3    H141205   6.640   3.078   2.119  1.3579 -0.9446 -3.1227
 5670TIP3    H241206   6.781   3.118   2.157  0.2313 -0.5667  1.2141
 5671TIP3   OH241207   4.429   0.994   5.887 -0.1538 -0.1465 -0.0778
 5671TIP3    H141208   4.489   0.928   5.922  0.5374  1.4455  1.9730
 5671TIP3    H241209   4.345   0.973   5.928 -0.2091 -0.4348 -0.3386
 5672TIP3   OH241210   6.484   2.018   2.091 -0.1037  0.5147  0.3521
 5672TIP3    H141211   6.466   2.111   2.080  1.5552  0.6714 -1.7381
 5672TIP3    H241212   6.578   2.014   2.108 -0.0272 -0.7911 -0.2299
 5673TIP3   OH241213   6.817   3.886   4.846 -0.2601  0.2844 -0.0448
 5673TIP3    H141214   6.912   3.897   4.839 -0.2308  0.0275 -0.0295
 5673TIP3    H241215   6.792   3.942   4.920  0.1672 -1.3020  1.3427
 5674TIP3   OH241216   3.669   2.871   3.374 -0.0232  0.3385  0.2406
 5674TIP3    H141217   3.649   2.909   3.289  1.5303  0.9569  0.1261
 5674TIP3    H241218   3.646   2.939   3.437 -1.6946 -0.3179  0.3967
 5675TIP3   OH241219   0.889   1.917   2.074  0.7060  0.1066  0.4518
 5675TIP3    H141220   0.915   1.868   1.997  1.9044 -0.8584  1.4292
 5675TIP3    H241221   0.889   1.852   2.145  0.3569  1.1156  1.4071
 5676TIP3   OH241222   1.488   2.930   5.163 -0.3495 -0.0306  0.8014
 5676TIP3    H141223   1.534   2.989   5.222  1.5621  1.1787 -1.6972
 5676TIP3    H241224   1.403   2.972   5.147 -0.4306  0.1942  1.7640
 5677TIP3   OH241225   0.840   0.395   4.764  0.6171  0.6906 -0.3899
 5677TIP3    H141226   0.858   0.374   4.856  0.9656  1.2677 -0.3279
 5677TIP3    H241227   0.781   0.325   4.736 -1.6036  1.8710  1.0059
 5678TIP3   OH241228   6.089   4.084   2.870  0.0465 -0.3566  0.0191
 5678TIP3    H141229   6.010   4.134   2.892  0.4696  0.5310 -0.4273
 5678TIP3    H241230   6.058   4.017   2.808 -0.2684  0.3798 -0.6402
 5679TIP3   OH241231   5.204   3.214   4.016  0.9139  0.0359  0.3613
 5679TIP3    H141232   5.265   3.153   4.057 -0.6361 -0.8488  1.4185
 5679TIP3    H241233   5.152   3.160   3.956  0.2964  0.5251  0.4431
 5680TIP3   OH241234   0.505   5.570   4.896 -0.1142  0.0361  0.0082
 5680TIP3    H141235   0.428   5.624   4.914  0.0698  0.4172 -0.3413
 5680TIP3    H241236   0.514   5.514   4.974  0.9716  2.0200  1.4037
 5681TIP3   OH241237   3.338   5.256   2.303  0.2406  0.2318 -0.6712
 5681TIP3    H141238   3.346   5.259   2.398 -0.3089 -1.0303 -0.5709
 5681TIP3    H241239   3.427   5.242   2.271  0.3015 -0.2125 -0.2989
 5682TIP3   OH241240   0.834   3.289   3.045  0.5765 -0.2928  0.4766
 5682TIP3    H141241   0.861   3.377   3.020 -0.2656 -0.0892  0.2311
 5682TIP3    H241242   0.854   3.282   3.138  2.4620 -0.5544  0.0801
 5683TIP3   OH241243   4.101   5.253   5.880  0.3061 -0.0857 -0.1896
 5683TIP3    H141244   4.005   5.253   5.874  0.1608  0.7974  1.5639
 5683TIP3    H241245   4.126   5.161   5.870 -0.6616 -0.2733 -1.0999
 5684TIP3   OH241246   3.070   6.025   4.811 -0.2808 -0.2940 -0.7649
 5684TIP3    H141247   3.051   5.941   4.852 -0.1976 -0.4499 -1.0456
 5684TIP3    H241248   3.158   6.016   4.776  0.3546  0.4518  0.5720
 5685TIP3   OH241249   5.290   0.729   2.225  0.1552  0.4367  0.4563
 5685TIP3    H141250   5.382   0.710   2.205  0.3568  1.6263  0.1992
 5685TIP3    H241251   5.241   0.664   2.175  0.8687 -0.6282  1.1033
 5686TIP3   OH241252   0.636   3.266   2.195  0.0750  0.1863  0.5601
 5686TIP3    H141253   0.620   3.361   2.201 -1.2131  0.0221  0.0430
 5686TIP3    H241254   0.555   3.231   2.159  0.8495 -1.0202 -0.0513
 5687TIP3   OH241255   3.961   1.926   3.905  0.2438 -0.0369  0.1527
 5687TIP3    H141256   4.051   1.895   3.893 -0.8511 -2.8703 -1.8812
 5687TIP3    H241257   3.909   1.846   3.914 -2.0928  1.5107  1.3962
 5688TIP3   OH241258   3.631   5.148   4.033 -0.0282  0.3898 -0.4968
 5688TIP3    H141259   3.678   5.070   4.002  0.6156  0.4013  0.4317
 5688TIP3    H241260   3.605   5.193   3.953  1.1005  0.1159 -1.0394
 5689TIP3   OH241261   5.783   2.910   5.371  0.2417  0.6091  0.4684
 5689TIP3    H141262   5.846   2.948   5.432 -0.2200  0.2502  1.1974
 5689TIP3    H241263   5.811   2.939   5.285  1.2693  0.6421  0.7988
 5690TIP3   OH241264   3.032   0.983   5.390  0.5002 -0.3147  0.0926
 5690TIP3    H141265   2.990   0.898   5.400  2.4583 -1.1660  1.7595
 5690TIP3    H241266   3.052   0.990   5.297 -0.6107 -1.1903 -0.2328
 5691TIP3   OH241267   5.987   0.441   2.481 -0.2716  0.2036  0.1506
 5691TIP3    H141268   5.979   0.511   2.546  1.4594  1.1778 -0.6107
 5691TIP3    H241269   5.946   0.476   2.402 -1.6470 -0.6653  0.4365
 5692TIP3   OH241270   6.718   2.424   4.711 -0.0392 -0.0030  0.1093
 5692TIP3    H141271   6.679   2.445   4.796 -3.2564 -2.2395 -0.6125
 5692TIP3    H241272   6.719   2.508   4.664  0.4483  0.9938  1.8020
 5693TIP3   OH241273   0.431   5.077   3.577  0.4093 -0.2084  0.3780
 5693TIP3    H141274   0.468   5.160   3.607 -0.4802  0.3060  0.0836
 5693TIP3    H241275   0.453   5.072   3.484  2.5128 -1.4495  0.8659
 5694TIP3   OH241276   4.692   6.359   2.701  0.6530 -0.2748 -0.3962
 5694TIP3    H141277   4.613   6.385   2.653 -0.5961 -3.1002 -0.0608
 5694TIP3    H241278   4.762   6.364   2.636 -0.1870  0.1726 -1.3007
 5695TIP3   OH241279   1.580   3.729   2.741 -0.2758  0.0735 -0.2739
 5695TIP3    H141280   1.614   3.814   2.714  0.2245  0.2440  0.8647
 5695TIP3    H241281   1.505   3.714   2.683 -0.7099  1.5374 -0.1378
 5696TIP3   OH241282   1.416   3.139   4.258 -0.4369 -0.3563  0.0716
 5696TIP3    H141283   1.401   3.143   4.164  0.3541 -2.9604 -0.2333
 5696TIP3    H241284   1.503   3.177   4.270 -0.9723  0.9736 -0.0651
 5697TIP3   OH241285   5.200   1.717   3.397 -0.2695  0.2607 -0.4265
 5697TIP3    H141286   5.276   1.663   3.419  0.8744  1.9603  0.0177
 5697TIP3    H241287   5.154   1.668   3.330  1.1371 -0.9027 -0.5792
 5698TIP3   OH241288   3.896   6.355   5.037  0.1248 -0.5154  0.6610
 5698TIP3    H141289   3.801   6.359   5.026  0.0321 -1.1012  1.1727
 5698TIP3    H241290   3.916   6.425   5.099  0.1779  0.3409 -0.3011
 5699TIP3   OH241291   2.385   3.964   2.633  0.5327  0.4375  0.0563
 5699TIP3    H141292   2.305   4.008   2.607  1.1677  1.6213  0.0576
 5699TIP3    H241293   2.453   4.005   2.580  1.0893 -0.8597 -0.2772
 5700TIP3   OH241294   5.706   3.913   3.934 -0.4452 -0.4103  0.2299
 5700TIP3    H141295   5.755   3.950   3.861 -0.9978  2.4645  1.1643
 5700TIP3    H241296   5.623   3.885   3.896  0.1210 -1.0179 -0.5873
 5701TIP3   OH241297   0.440   6.569   5.039  0.4479  0.1067  0.2643
 5701TIP3    H141298   0.454   6.563   4.945  1.2913  2.4960  0.1614
 5701TIP3    H241299   0.351   6.603   5.048  0.4333  0.0546  0.3183
 5702TIP3   OH241300   1.691   3.992   4.548 -0.3537  0.0297  0.4548
 5702TIP3    H141301   1.712   4.017   4.638 -0.2737  1.3433  0.0869
 5702TIP3    H241302   1.604   3.952   4.555 -0.7111  0.8722  1.0027
 5703TIP3   OH241303   6.298   0.427   4.886  0.2428 -0.4864  0.5114
 5703TIP3    H141304   6.362   0.495   4.864 -1.9332  1.1309 -1.2474
 5703TIP3    H241305   6.262   0.455   4.970  0.6871 -0.5011  0.7095
 5704TIP3   OH241306   3.553   2.418   5.304 -0.0551  0.3127 -0.0803
 5704TIP3    H141307   3.645   2.444   5.307  0.2542 -0.7837  0.2954
 5704TIP3    H241308   3.505   2.500   5.318  0.8799  0.7225  0.9030
 5705TIP3   OH241309   4.600   3.996   1.876 -0.4658 -0.5024 -1.2211
 5705TIP3    H141310   4.600   3.903   1.901  0.8063 -0.2681 -0.2661
 5705TIP3    H241311   4.508   4.022   1.883 -0.6323 -1.3212 -0.0536
 5706TIP3   OH241312   3.951   5.838   5.084 -0.0893  0.1278  0.0291
 5706TIP3    H141313   3.888   5.835   5.157 -1.4977  0.1294 -1.1439
 5706TIP3    H241314   3.985   5.927   5.086  1.1012 -0.3054  1.6286
 5707TIP3   OH241315   2.588   3.067   2.792  0.1644  0.4446 -0.2022
 5707TIP3    H141316   2.512   3.097   2.743 -1.2362 -2.1613  0.2279
 5707TIP3    H241317   2.649   3.035   2.725  0.0135  0.6223 -0.4269
 5708TIP3   OH241318   4.171   6.713   3.225  0.2158  0.2655  0.3719
 5708TIP3    H141319   4.101   6.697   3.163  0.1910 -1.9762  0.8833
 5708TIP3    H241320   4.154   6.801   3.260 -0.0013  1.4086 -2.4063
 5709TIP3   OH241321   4.762   5.246   2.667  0.0723 -0.3097  0.3107
 5709TIP3    H141322   4.686   5.289   2.705  0.5624  1.2232 -0.3785
 5709TIP3    H241323   4.825   5.242   2.739  0.9462  2.4614 -0.1901
 5710TIP3   OH241324   4.919   1.434   3.986 -0.7178  0.3446  0.5772
 5710TIP3    H141325   4.979   1.478   4.046 -0.5166 -0.2775  0.8433
 5710TIP3    H241326   4.966   1.431   3.902  0.9485 -2.7373  1.4502
 5711TIP3   OH241327   6.219   2.907   3.041 -0.5789  0.0317  0.2404
 5711TIP3    H141328   6.224   2.997   3.009  0.7073 -0.5480 -1.2659
 5711TIP3    H241329   6.132   2.877   3.014 -0.3656  0.2795 -0.7266
 5712TIP3   OH241330   4.151   4.533   2.027 -0.1242  1.1845  0.3941
 5712TIP3    H141331   4.070   4.543   2.077 -0.5261 -1.7660  0.5332
 5712TIP3    H241332   4.122   4.514   1.938  0.0419 -3.5228  1.0903
 5713TIP3   OH241333   3.495   5.437   3.625 -0.4572 -0.2628  0.3362
 5713TIP3    H141334   3.428   5.461   3.689 -2.2909 -0.7045 -1.3011
 5713TIP3    H241335   3.516   5.346   3.645 -0.1463 -0.0434  1.0220
 5714TIP3   OH241336   0.956   0.104   3.767  0.2784  0.6010 -0.3230
 5714TIP3    H141337   0.968   0.195   3.795  0.9528 -0.3425  2.8433
 5714TIP3    H241338   0.872   0.078   3.805  1.1321 -0.6997  0.7622
 5715TIP3   OH241339   0.450   2.582   4.025  0.4429 -0.0168  0.4311
 5715TIP3    H141340   0.536   2.540   4.029  0.0475 -0.7380  1.4865
 5715TIP3    H241341   0.442   2.629   4.108  0.0583  0.5600  0.0795
 5716TIP3   OH241342   6.760   3.414   2.734  0.3506  0.0557  0.6432
 5716TIP3    H141343   6.678   3.372   2.709  1.3869 -0.0441 -3.2303
 5716TIP3    H241344   6.803   3.351   2.793 -0.5525 -1.8222 -0.6237
 5717TIP3   OH241345   4.419   2.615   2.806  0.0973 -0.2972  0.0501
 5717TIP3    H141346   4.479   2.666   2.751 -0.6351  0.4436 -0.0745
 5717TIP3    H241347   4.477   2.568   2.866  0.8174  0.2439 -0.1990
 5718TIP3   OH241348   6.300   6.314   4.827  0.0262  0.0969  0.0347
 5718TIP3    H141349   6.219   6.262   4.830 -1.1057  1.7836  0.0519
 5718TIP3    H241350   6.349   6.285   4.904 -0.3239 -1.2932 -0.2317
 5719TIP3   OH241351   6.253   2.645   5.410 -0.3089  0.3299 -0.4078
 5719TIP3    H141352   6.347   2.662   5.404 -0.2560  0.2135  0.0640
 5719TIP3    H241353   6.217   2.682   5.330  0.1720  0.1570 -0.7088
 5720TIP3   OH241354   5.870   0.394   4.420 -0.8124 -0.0181  0.4800
 5720TIP3    H141355   5.874   0.463   4.353 -2.7877  0.4974  0.8321
 5720TIP3    H241356   5.831   0.319   4.374 -0.6305 -0.2097  0.6400
 5721TIP3   OH241357   0.830   4.414   2.867 -0.4289  0.1893  0.0012
 5721TIP3    H141358   0.784   4.473   2.806 -1.4070 -1.3674 -0.8311
 5721TIP3    H241359   0.882   4.357   2.810  1.2534  0.8135  0.8505
 5722TIP3   OH241360   3.513   2.207   3.369 -0.2286  0.8758  0.6698
 5722TIP3    H141361   3.522   2.116   3.398 -0.7225  0.7630  0.4771
 5722TIP3    H241362   3.419   2.225   3.374 -0.3283  0.8706 -0.7716
 5723TIP3   OH241363   2.124   5.666   3.038 -0.0971  0.4724  0.2879
 5723TIP3    H141364   2.120   5.748   2.989  1.2652  0.3576 -0.0465
 5723TIP3    H241365   2.093   5.599   2.977  0.6438  0.4728 -0.0934
 5724TIP3   OH241366   4.293   5.869   1.796  0.3060 -0.3309  0.1477
 5724TIP3    H141367   4.225   5.804   1.780 -0.3741  0.8147 -1.9895
 5724TIP3    H241368   4.249   5.953   1.781  0.9446  0.7718  3.5278
 5725TIP3   OH241369   5.289   4.347   2.936  0.2597  1.0050 -0.5894
 5725TIP3    H141370   5.330   4.281   2.880  0.2820  0.4985  0.0120
 5725TIP3    H241371   5.220   4.385   2.882 -1.9235 -1.7176  0.0082
 5726TIP3   OH241372   6.057   4.911   5.131 -0.2954 -0.1411 -0.1357
 5726TIP3    H141373   6.027   4.952   5.211 -1.3463 -0.6113 -0.2621
 5726TIP3    H241374   6.152   4.907   5.139 -0.3202  0.7049  0.6399
 5727TIP3   OH241375   3.297   5.104   2.823 -0.0334  0.2665 -0.3942
 5727TIP3    H141376   3.230   5.036   2.823  0.4293 -0.1999 -0.7756
 5727TIP3    H241377   3.348   5.086   2.903  0.9915 -0.7623 -1.2471
 5728TIP3   OH241378   0.749   2.321   3.232  0.2874 -0.3938 -0.8664
 5728TIP3    H141379   0.722   2.259   3.165 -0.7292 -1.1454  0.1913
 5728TIP3    H241380   0.675   2.382   3.240 -0.3413 -1.2971  0.6902
 5729TIP3   OH241381   6.261   4.421   4.348 -0.1487 -0.3854 -0.0157
 5729TIP3    H141382   6.186   4.472   4.317 -2.3368 -4.1486 -1.7291
 5729TIP3    H241383   6.242   4.405   4.441 -0.2341  0.5864  0.1404
 5730TIP3   OH241384   2.101   2.361   3.036  0.1634 -0.8689  0.2417
 5730TIP3    H141385   2.182   2.380   2.990 -1.2885 -2.1880 -3.2415
 5730TIP3    H241386   2.110   2.270   3.064 -0.5343 -1.5068 -1.4397
 5731TIP3   OH241387   1.649   4.600   5.045 -0.5290  0.0002  0.5291
 5731TIP3    H141388   1.573   4.618   5.099 -0.5118  0.3011  0.4558
 5731TIP3    H241389   1.723   4.606   5.105 -0.6711 -1.8639  0.9475
 5732TIP3   OH241390   1.824   5.480   5.143  0.2558 -0.0218 -0.2397
 5732TIP3    H141391   1.896   5.432   5.103 -0.6043 -0.5948 -1.1216
 5732TIP3    H241392   1.811   5.438   5.228  1.2062  0.3408  0.0945
 5733TIP3   OH241393   3.094   3.950   4.190  0.3845 -0.0832  0.6258
 5733TIP3    H141394   3.164   4.015   4.192 -0.8429  1.3190  3.2680
 5733TIP3    H241395   3.132   3.872   4.230  0.9267  0.0835  0.4416
 5734TIP3   OH241396   2.588   4.002   3.838  0.7843 -0.1546 -0.4614
 5734TIP3    H141397   2.619   4.005   3.928 -0.1280  1.6252 -0.1534
 5734TIP3    H241398   2.606   3.913   3.809  3.1279 -0.1347  0.7261
 5735TIP3   OH241399   0.750   5.696   1.918  0.3014 -0.4632  0.0368
 5735TIP3    H141400   0.829   5.642   1.910  0.4585 -0.0585 -1.7778
 5735TIP3    H241401   0.776   5.768   1.975  0.8253 -1.0188  0.5185
 5736TIP3   OH241402   5.366   1.855   3.689 -0.3363  0.0955  0.2294
 5736TIP3    H141403   5.457   1.847   3.662 -0.5827 -0.2284 -0.5601
 5736TIP3    H241404   5.345   1.771   3.729 -0.3236  0.1164  0.2792
 5737TIP3   OH241405   6.649   5.790   3.549 -0.0705 -0.2026  0.2092
 5737TIP3    H141406   6.699   5.850   3.493  0.6656 -0.0047  1.0536
 5737TIP3    H241407   6.709   5.767   3.619 -0.5561 -1.4705  0.2265
 5738TIP3   OH241408   2.713   2.475   2.297  0.0047  0.0184 -0.3962
 5738TIP3    H141409   2.733   2.408   2.363 -0.7442  0.2625  0.0924
 5738TIP3    H241410   2.751   2.440   2.216  0.9345 -0.2902  0.1481
 5739TIP3   OH241411   4.324   0.119   2.826  0.4462  0.0879  0.4016
 5739TIP3    H141412   4.263   0.154   2.890  0.3167 -0.1728  0.4244
 5739TIP3    H241413   4.398   0.179   2.827  2.1684 -1.8381  3.4935
 5740TIP3   OH241414   1.781   4.987   3.992  0.0332 -0.0273 -0.1517
 5740TIP3    H141415   1.764   5.011   3.901 -0.1371  1.4623  0.2449
 5740TIP3    H241416   1.826   4.902   3.987 -1.7714 -0.9661 -1.5037
 5741TIP3   OH241417   0.965   2.898   2.249 -0.3711 -0.0908 -0.0770
 5741TIP3    H141418   0.904   2.966   2.278 -0.6515 -0.1877 -0.4344
 5741TIP3    H241419   1.017   2.938   2.180  0.7946  0.3683  1.0263
 5742TIP3   OH241420   4.371   4.014   2.637  0.2962  0.1843 -0.1708
 5742TIP3    H141421   4.462   3.987   2.629 -0.1122 -1.4950  0.5284
 5742TIP3    H241422   4.359   4.078   2.566  1.6320 -0.6305 -1.1815
 5743TIP3   OH241423   0.531   4.196  13.205  0.4185 -0.1813  0.1830
 5743TIP3    H141424   0.470   4.266  13.181  1.7137  0.8911 -0.1252
 5743TIP3    H241425   0.508   4.123  13.148 -0.0218  0.4950 -0.5268
 5744TIP3   OH241426   4.159   5.367   4.508  0.5985  0.6940 -0.2091
 5744TIP3    H141427   4.252   5.379   4.529  0.6726 -0.9499  0.6202
 5744TIP3    H241428   4.160   5.314   4.428  0.3342  2.2620 -1.2901
 5745TIP3   OH241429   0.277   6.713   4.370  0.2125 -1.0847  0.4982
 5745TIP3    H141430   0.357   6.700   4.421  0.3882 -1.8124  0.0544
 5745TIP3    H241431   0.225   6.635   4.387  1.0700 -2.2746 -1.8314
 5746TIP3   OH241432   0.073   5.485   2.241 -0.2359  0.3449  0.8223
 5746TIP3    H141433   0.167   5.471   2.227 -0.4682 -1.3435  0.7047
 5746TIP3    H241434   0.040   5.514   2.156 -0.1486 -1.1357  0.2490
 5747TIP3   OH241435   5.127   4.371   5.207 -0.1422  0.2515 -0.3226
 5747TIP3    H141436   5.060   4.414   5.154 -1.4481 -1.7577 -0.4076
 5747TIP3    H241437   5.081   4.344   5.286  0.1804 -2.3078 -0.9246
 5748TIP3   OH241438   6.698   2.155   4.276  0.0625  0.1943 -0.0011
 5748TIP3    H141439   6.648   2.088   4.229 -0.4304  1.3986 -1.2898
 5748TIP3    H241440   6.632   2.210   4.318  0.3722  0.7535 -0.2243
 5749TIP3   OH241441   2.418   0.429   4.134  0.1249 -0.3993  0.0511
 5749TIP3    H141442   2.405   0.524   4.127 -0.8128 -0.4408  1.0938
 5749TIP3    H241443   2.363   0.392   4.065 -1.0585 -0.2763  0.9071
 5750TIP3   OH241444   4.187   5.383   3.956  0.1218  0.2161  0.2327
 5750TIP3    H141445   4.192   5.290   3.935 -1.0101  0.5535 -1.8075
 5750TIP3    H241446   4.266   5.420   3.916 -0.0881  0.3124 -0.0941
 5751TIP3   OH241447   3.663   1.259   3.362  0.3707  0.3793  0.5490
 5751TIP3    H141448   3.575   1.227   3.343  0.4942 -0.7984  1.8075
 5751TIP3    H241449   3.682   1.320   3.291 -0.9137 -0.3920 -0.4990
 5752TIP3   OH241450   5.602   3.199   2.183  0.3014 -0.4873 -0.6503
 5752TIP3    H141451   5.697   3.188   2.190  0.5762  2.1955  1.7680
 5752TIP3    H241452   5.591   3.273   2.124 -0.0025  1.1195  1.2886
 5753TIP3   OH241453   5.587   4.554   3.536  0.0548  0.3869  0.3348
 5753TIP3    H141454   5.610   4.461   3.533 -2.4338 -0.2812 -0.8441
 5753TIP3    H241455   5.530   4.562   3.613  0.3564  0.9741  0.5020
 5754TIP3   OH241456   2.987   5.737   3.776 -0.7130  0.4604  0.0682
 5754TIP3    H141457   2.985   5.805   3.843 -2.1803 -0.0091  0.5580
 5754TIP3    H241458   2.988   5.655   3.826  1.9411  0.0603 -0.4938
 5755TIP3   OH241459   1.219   3.097   2.535  0.3319 -0.5109  0.1710
 5755TIP3    H141460   1.157   3.083   2.463 -0.2440 -0.4119  0.6400
 5755TIP3    H241461   1.166   3.139   2.603  1.1263  0.4104  0.2395
 5756TIP3   OH241462   0.581   2.010   3.646  0.1577 -0.2003 -0.3173
 5756TIP3    H141463   0.569   2.076   3.714 -0.7136  1.0181 -1.5830
 5756TIP3    H241464   0.513   2.030   3.581  0.5521 -1.7030 -1.2469
 5757TIP3   OH241465   2.266   1.703   3.752 -0.2495 -0.6968 -0.5140
 5757TIP3    H141466   2.355   1.717   3.784 -0.1393 -3.0826  0.4725
 5757TIP3    H241467   2.226   1.647   3.818 -3.0657  1.5721 -0.1248
 5758TIP3   OH241468   3.267   6.329   4.628  0.1979  0.5698 -0.0519
 5758TIP3    H141469   3.343   6.323   4.570  0.2609 -1.5174  0.1747
 5758TIP3    H241470   3.197   6.282   4.581 -0.9646  2.3149 -0.1893
 5759TIP3   OH241471   0.092   6.082   4.489 -0.4805  0.3480  0.0763
 5759TIP3    H141472   0.116   6.002   4.536 -1.5350  0.4062  0.7371
 5759TIP3    H241473   0.135   6.074   4.404  0.1809 -0.4878  0.4776
 5760TIP3   OH241474   5.090   3.686   1.991 -0.1832 -0.1670 -0.2043
 5760TIP3    H141475   4.998   3.662   1.977 -0.0289  0.3681 -2.7554
 5760TIP3    H241476   5.086   3.775   2.026 -0.6403 -0.3911  0.3311
 5761TIP3   OH241477   3.252   4.230   1.793  0.2124 -0.7798  0.0706
 5761TIP3    H141478   3.175   4.250   1.846  1.7188 -0.4093  2.2435
 5761TIP3    H241479   3.322   4.284   1.830  1.5204 -0.9698 -1.9407
 5762TIP3   OH241480   5.994   1.901   4.278  0.3289 -0.0113  0.1710
 5762TIP3    H141481   5.976   1.950   4.358 -1.9617  0.2160 -0.4053
 5762TIP3    H241482   5.964   1.812   4.297 -1.2311  0.2806 -0.7126
 5763TIP3   OH241483   1.186   4.424   5.328 -0.7366  0.5266 -0.2392
 5763TIP3    H141484   1.101   4.383   5.308 -0.3420  0.1900 -1.3182
 5763TIP3    H241485   1.182   4.508   5.282 -0.4362  0.4484 -0.4076
 5764TIP3   OH241486   6.372   4.018   3.820  0.5779 -0.7951  0.2657
 5764TIP3    H141487   6.350   4.053   3.734 -1.9107 -0.5266  0.9478
 5764TIP3    H241488   6.420   4.089   3.863 -0.6146  0.1485  0.0791
 5765TIP3   OH241489   4.382   3.139   1.853 -0.1983  0.4790  0.2159
 5765TIP3    H141490   4.412   3.208   1.793  0.5365 -1.5902 -1.9699
 5765TIP3    H241491   4.463   3.094   1.879 -0.8294 -1.3762 -0.8520
 5766TIP3   OH241492   3.798   1.352   3.579  0.2858 -0.0706  0.0632
 5766TIP3    H141493   3.846   1.275   3.547  0.6953  0.5377 -0.8387
 5766TIP3    H241494   3.714   1.349   3.532  0.3055  0.0394  0.0217
 5767TIP3   OH241495   0.105   2.985   3.265  0.1166 -0.4320  0.0110
 5767TIP3    H141496   0.198   3.002   3.280 -0.0364 -0.4151  1.0158
 5767TIP3    H241497   0.065   3.071   3.260  0.1383 -0.4405 -0.3067
 5768TIP3   OH241498   3.763   0.923   3.179 -0.4157 -0.1912  0.6336
 5768TIP3    H141499   3.713   0.894   3.255 -0.2579 -0.0953  0.7747
 5768TIP3    H241500   3.842   0.869   3.179 -0.4845 -0.2956  0.4500
 5769TIP3   OH241501   5.314   6.154   4.669 -0.2598 -0.4019 -0.1901
 5769TIP3    H141502   5.329   6.171   4.762 -1.1487 -3.7081  0.6966
 5769TIP3    H241503   5.390   6.193   4.625  0.8310  0.1869  2.0532
 5770TIP3   OH241504   4.898   4.462   2.268  0.3817  0.3870 -0.0925
 5770TIP3    H141505   4.862   4.500   2.348 -0.3477  1.4398 -0.8771
 5770TIP3    H241506   4.825   4.467   2.205  1.3828  0.9814 -1.2407
 5771TIP3   OH241507   4.676   5.705   4.782  0.5482  0.2459  0.1602
 5771TIP3    H141508   4.768   5.729   4.770  0.8335  0.5609  2.5023
 5771TIP3    H241509   4.636   5.717   4.696  3.0407 -1.6130 -1.3807
 5772TIP3   OH241510   5.269   0.731   2.485 -0.1320  1.0854 -0.4818
 5772TIP3    H141511   5.273   0.746   2.390  2.1719 -0.7905 -0.7765
 5772TIP3    H241512   5.211   0.655   2.494  1.0266  0.1643 -0.5972
 5773TIP3   OH241513   1.073   2.521   2.796  0.3498 -0.1226 -0.5075
 5773TIP3    H141514   1.063   2.481   2.710 -1.1964 -2.7082  0.7319
 5773TIP3    H241515   1.135   2.465   2.842  0.6764  0.8563  0.2947
 5774TIP3   OH241516   4.866   2.304   2.302  0.0327  0.4636 -0.1725
 5774TIP3    H141517   4.813   2.289   2.381  0.0866 -1.0786 -0.4023
 5774TIP3    H241518   4.809   2.357   2.245 -0.1961  1.1652  0.6778
 5775TIP3   OH241519   6.383   3.622   4.587 -0.0236 -0.0005  0.1778
 5775TIP3    H141520   6.290   3.608   4.604  0.0813 -1.4518 -0.2360
 5775TIP3    H241521   6.401   3.709   4.621 -0.8923 -0.7843  2.9293
 5776TIP3   OH241522   5.741   1.194   4.178  0.3602 -0.2521 -0.1299
 5776TIP3    H141523   5.657   1.147   4.184  0.5750 -0.4303  2.3335
 5776TIP3    H241524   5.734   1.244   4.097 -2.3671  0.1386  0.2466
 5777TIP3   OH241525   3.732   6.271   3.259  0.2866  0.1712  0.3787
 5777TIP3    H141526   3.730   6.363   3.283 -3.6078  0.0553  1.1871
 5777TIP3    H241527   3.782   6.229   3.329 -0.0675  1.3962  1.4124
 5778TIP3   OH241528   1.880   6.496   4.780 -0.5041  0.4422 -0.2890
 5778TIP3    H141529   1.933   6.551   4.838  0.4417  3.3765 -3.5258
 5778TIP3    H241530   1.790   6.506   4.811  0.1357  0.4520  1.6436
 5779TIP3   OH241531   5.192   4.224   4.400  0.3702 -0.1065  0.1767
 5779TIP3    H141532   5.127   4.154   4.397 -2.6910  2.5007  0.3898
 5779TIP3    H241533   5.228   4.227   4.312  2.0768 -3.0856  0.6279
 5780TIP3   OH241534   0.487   4.839   4.833  0.3594 -0.2799  0.6091
 5780TIP3    H141535   0.436   4.824   4.913 -0.5710 -2.1296 -0.2722
 5780TIP3    H241536   0.569   4.793   4.849  0.3237 -0.3317  0.6466
 5781TIP3   OH241537   6.182   0.339   3.539 -0.3966 -0.2940  0.0359
 5781TIP3    H141538   6.219   0.344   3.627  0.7719  0.3092 -0.4646
 5781TIP3    H241539   6.258   0.341   3.481 -1.1399 -0.8019 -0.9866
 5782TIP3   OH241540   4.205   3.612   2.286 -0.1105  0.0398 -0.2806
 5782TIP3    H141541   4.199   3.593   2.380  0.4198 -0.8356 -0.4122
 5782TIP3    H241542   4.114   3.607   2.255 -0.4240  1.3553  0.3549
 5783TIP3   OH241543   2.567   3.014   3.899  0.3459  0.6938 -0.7906
 5783TIP3    H141544   2.546   2.956   3.826 -0.2428  0.2684 -0.2908
 5783TIP3    H241545   2.662   3.021   3.898  0.3722  0.2962 -1.2877
 5784TIP3   OH241546   3.917   3.621   2.200 -0.2915 -0.0704 -0.1060
 5784TIP3    H141547   3.836   3.671   2.207 -0.8196 -0.8038 -0.7287
 5784TIP3    H241548   3.914   3.583   2.112  0.8932  0.1616 -0.2614
 5785TIP3   OH241549   3.263   4.991   3.870 -0.3921 -0.0387 -0.3396
 5785TIP3    H141550   3.171   5.008   3.889 -0.1216 -0.3092  1.3582
 5785TIP3    H241551   3.274   4.898   3.888  0.7086  0.4436  1.8658
 5786TIP3   OH241552   4.329   3.525   3.969  0.1280 -0.5134 -1.3007
 5786TIP3    H141553   4.337   3.591   3.900  0.6569 -0.4829 -1.2114
 5786TIP3    H241554   4.407   3.471   3.960  0.6290 -0.0037 -0.1992
 5787TIP3   OH241555   4.482   2.274   4.012 -0.4564  0.2012  0.3049
 5787TIP3    H141556   4.442   2.307   3.932 -0.1041  1.7493  0.7380
 5787TIP3    H241557   4.437   2.192   4.029 -1.0933  0.2446 -1.0353
 5788TIP3   OH241558   6.238   1.359   5.159 -0.7316 -0.4775  0.2754
 5788TIP3    H141559   6.198   1.278   5.129 -1.2158 -0.3822  0.6451
 5788TIP3    H241560   6.332   1.347   5.144 -0.9653 -0.3319 -1.4828
 5789TIP3   OH241561   5.915   1.655   4.363  0.3010  0.1773  0.4726
 5789TIP3    H141562   5.851   1.586   4.348 -0.0256  0.7661 -1.1445
 5789TIP3    H241563   5.919   1.665   4.458 -0.6646 -1.1023  0.6704
 5790TIP3   OH241564   6.600   6.239   3.691 -0.4927 -0.0744 -0.2188
 5790TIP3    H141565   6.654   6.314   3.718  0.0689 -0.6063  0.1569
 5790TIP3    H241566   6.655   6.191   3.630 -0.3455 -0.8971  0.5520
 5791TIP3   OH241567   4.018   4.032   3.601  0.6856  0.4711 -0.1377
 5791TIP3    H141568   4.038   4.123   3.625  1.3333  0.1512  0.5574
 5791TIP3    H241569   4.103   3.989   3.595  0.8393  0.8773 -4.8017
 5792TIP3   OH241570   4.559   0.114   4.162 -0.0543 -0.1431 -0.3827
 5792TIP3    H141571   4.499   0.150   4.097  0.1622  0.5213 -0.2308
 5792TIP3    H241572   4.557   0.020   4.149  0.0265 -0.0092 -1.3841
 5793TIP3   OH241573   6.008   5.457   5.561  0.2818 -0.3640 -0.3481
 5793TIP3    H141574   6.091   5.485   5.522 -1.0437  1.3761 -2.1253
 5793TIP3    H241575   5.997   5.515   5.637  0.9432 -0.9908  0.2356
 5794TIP3   OH241576   6.326   2.107   3.759 -0.4921 -0.0582  0.3406
 5794TIP3    H141577   6.256   2.116   3.694 -1.8663  1.9569  1.9531
 5794TIP3    H241578   6.281   2.075   3.838 -0.0988  3.1505  2.0209
 5795TIP3   OH241579   4.891   5.774   3.464  0.9699  0.2963 -0.1419
 5795TIP3    H141580   4.893   5.713   3.390  0.0939 -0.5393  0.5024
 5795TIP3    H241581   4.970   5.752   3.513 -0.2998 -1.7453  1.1501
 5796TIP3   OH241582   5.441   3.745   3.904  0.3772 -0.2250  0.4690
 5796TIP3    H141583   5.359   3.791   3.882 -0.6183 -2.1725 -0.1479
 5796TIP3    H241584   5.430   3.719   3.995  0.9456  0.7276  0.8210
 5797TIP3   OH241585   0.405   1.904   4.089  0.0961  0.0738  0.3504
 5797TIP3    H141586   0.382   1.994   4.069  0.2450 -0.0321 -0.3138
 5797TIP3    H241587   0.494   1.893   4.054  0.0183 -0.3753  0.2827
 5798TIP3   OH241588   2.019   4.197   5.265 -0.3743 -0.4728  0.7285
 5798TIP3    H141589   2.015   4.284   5.306 -0.0937  0.2241 -0.6865
 5798TIP3    H241590   2.111   4.185   5.243 -0.5975 -0.6089 -0.1540
 5799TIP3   OH241591   2.952   4.405   2.674  0.2455  0.3135  0.5974
 5799TIP3    H141592   2.973   4.322   2.717  1.1194  0.1890 -0.0429
 5799TIP3    H241593   2.865   4.428   2.707  0.1158 -0.7070  0.9999
 5800TIP3   OH241594   2.866   4.376   3.669 -0.0377  0.1755  0.2638
 5800TIP3    H141595   2.852   4.468   3.692  0.9915  0.8582 -1.6875
 5800TIP3    H241596   2.778   4.338   3.669 -0.5489  1.3245  0.4230
 5801TIP3   OH241597   4.341   5.807   3.853 -0.2759  0.2378  0.6182
 5801TIP3    H141598   4.295   5.824   3.771  0.3125  1.0170  0.4450
 5801TIP3    H241599   4.346   5.892   3.896  0.0193 -0.0454  1.1492
 5802TIP3   OH241600   6.027   6.815   5.232 -0.4624  0.1697 -0.8486
 5802TIP3    H141601   5.979   6.813   5.315 -0.8078 -0.0739 -1.0488
 5802TIP3    H241602   6.118   6.826   5.257 -0.3442 -1.5800 -0.3342
 5803TIP3   OH241603   2.298   4.743   3.614  0.4816 -0.1623  0.0713
 5803TIP3    H141604   2.348   4.824   3.623  3.0200 -1.7911  1.9931
 5803TIP3    H241605   2.321   4.709   3.528 -0.7323  1.1625 -0.8200
 5804TIP3   OH241606   2.939   4.548   4.636  0.3427  0.0006 -0.1526
 5804TIP3    H141607   2.984   4.488   4.695  0.5836 -0.5667 -0.8875
 5804TIP3    H241608   2.848   4.520   4.637  0.5157 -0.6176 -0.7576
 5805TIP3   OH241609   4.182   2.653   3.541 -0.2264 -0.1624 -0.0820
 5805TIP3    H141610   4.167   2.743   3.514 -0.2211  0.2808  1.3038
 5805TIP3    H241611   4.265   2.655   3.589 -1.2721 -0.4290  1.8658
 5806TIP3   OH241612   3.888   0.287   2.672 -0.5348 -0.0449  0.3124
 5806TIP3    H141613   3.905   0.211   2.616  0.0591  0.9457 -0.9119
 5806TIP3    H241614   3.888   0.252   2.761 -0.2828 -1.4700 -0.2232
 5807TIP3   OH241615   2.708   4.821   4.874  0.0924  0.1848  0.1234
 5807TIP3    H141616   2.734   4.821   4.966 -1.0505 -1.0328  0.4770
 5807TIP3    H241617   2.650   4.745   4.865  1.5421 -0.7978 -1.9974
 5808TIP3   OH241618   2.723   2.494   1.869  0.2510  0.0727  0.4984
 5808TIP3    H141619   2.687   2.548   1.939  1.0259  0.7895  0.3726
 5808TIP3    H241620   2.782   2.553   1.821 -2.4082  0.4832 -2.5820
 5809TIP3   OH241621   3.653   1.606   1.802 -0.0535  0.4313  0.4870
 5809TIP3    H141622   3.616   1.692   1.822 -2.7369 -0.4521 -0.2970
 5809TIP3    H241623   3.580   1.546   1.810  0.8690 -1.2957 -2.4993
 5810TIP3   OH241624   6.486   5.007   4.330 -0.6620 -0.0175  0.3018
 5810TIP3    H141625   6.407   5.054   4.303  0.2084  0.3358 -1.8678
 5810TIP3    H241626   6.465   4.915   4.317 -0.5905  0.0999 -0.7588
 5811TIP3   OH241627   5.133   5.106   4.961  0.3574 -0.6208 -0.0992
 5811TIP3    H141628   5.066   5.040   4.943 -0.3577  0.2172 -0.5785
 5811TIP3    H241629   5.168   5.081   5.047 -0.6394 -1.0273  0.2072
 5812TIP3   OH241630   1.648   6.397   2.366 -0.2881  0.3495 -0.3457
 5812TIP3    H141631   1.720   6.391   2.303  0.2245 -0.0500  0.2506
 5812TIP3    H241632   1.640   6.308   2.401 -0.5632  0.5603  0.1415
 5813TIP3   OH241633   2.955   5.034   4.883  0.3493 -0.0794 -0.2295
 5813TIP3    H141634   2.883   4.974   4.866  1.1962 -1.8432  1.9696
 5813TIP3    H241635   2.924   5.092   4.952  0.4323  0.3591 -0.5510
 5814TIP3   OH241636   2.632   3.717   3.821  0.0025  0.5520  0.1267
 5814TIP3    H141637   2.640   3.665   3.902 -1.2109 -0.4769 -0.3775
 5814TIP3    H241638   2.720   3.752   3.807  0.1636  1.0916  2.0996
 5815TIP3   OH241639   5.651   4.334   3.267  0.0555  0.0592  0.2488
 5815TIP3    H141640   5.618   4.314   3.180 -0.5955  2.4194 -0.1162
 5815TIP3    H241641   5.723   4.396   3.252 -1.0207  1.6835  1.3700
 5816TIP3   OH241642   1.291   2.688   4.502  0.1479  0.1290  0.2351
 5816TIP3    H141643   1.339   2.605   4.508  0.0561  0.1544  1.5261
 5816TIP3    H241644   1.348   2.744   4.449  0.0912 -0.8185 -0.8724
 5817TIP3   OH241645   5.203   2.590   3.211  0.8225  0.4250  0.4893
 5817TIP3    H141646   5.187   2.507   3.256  0.0596 -0.8378 -1.9689
 5817TIP3    H241647   5.280   2.626   3.255  3.2408 -3.1658 -0.3816
 5818TIP3   OH241648   4.745   5.475   3.248  0.6435 -0.5682 -0.3735
 5818TIP3    H141649   4.758   5.436   3.334  2.5305 -0.5009 -0.5690
 5818TIP3    H241650   4.827   5.523   3.231  0.0512 -0.0138 -1.9109
 5819TIP3   OH241651   6.530   0.532   3.363 -0.2262 -0.2446 -0.4272
 5819TIP3    H141652   6.540   0.622   3.395 -2.2513 -0.0728 -0.1425
 5819TIP3    H241653   6.438   0.511   3.377  0.5521 -3.0970  1.4057
 5820TIP3   OH241654   0.290   0.835   3.404  0.2295 -0.0888 -0.4394
 5820TIP3    H141655   0.312   0.912   3.458  0.5279 -0.9589  0.7272
 5820TIP3    H241656   0.369   0.817   3.354 -0.6584  1.9128 -2.7593
 5821TIP3   OH241657   4.638   0.377   4.132  0.0059  0.4699  0.5048
 5821TIP3    H141658   4.728   0.390   4.161  0.2042 -0.1499  0.1858
 5821TIP3    H241659   4.616   0.289   4.164 -0.2316  0.3269 -0.0495
 5822TIP3   OH241660   5.993   6.820   2.614  0.1733  0.2888  0.0124
 5822TIP3    H141661   6.086   6.797   2.612  0.3228  0.6976  1.5758
 5822TIP3    H241662   5.982   6.881   2.541  1.3646  1.0573  0.4515
 5823TIP3   OH241663   5.032   3.425   4.024 -0.6514  0.5228  0.2642
 5823TIP3    H141664   5.091   3.349   4.021 -1.1724  0.0912  0.8586
 5823TIP3    H241665   5.008   3.439   3.932  0.4431  0.7602 -0.0001
 5824TIP3   OH241666   3.929   1.953   2.469 -0.0019  0.1378 -0.1342
 5824TIP3    H141667   3.965   2.009   2.538 -0.6023 -0.5094  0.7089
 5824TIP3    H241668   3.998   1.953   2.402  1.0784 -0.1096  0.9291
 5825TIP3   OH241669   0.042   5.817   4.625  0.6890 -0.0934  0.6241
 5825TIP3    H141670  -0.009   5.758   4.681 -0.1062 -0.0224 -0.0091
 5825TIP3    H241671   0.077   5.883   4.685 -1.4039  0.8685  0.8660
 5826TIP3   OH241672   4.395   1.266   2.763  0.0285  0.6006 -0.5726
 5826TIP3    H141673   4.435   1.344   2.727  0.2438  0.5162 -0.5154
 5826TIP3    H241674   4.310   1.261   2.719 -0.4405  1.4552  0.2072
 5827TIP3   OH241675   6.830   4.869   4.336  0.3062 -0.6815  0.3591
 5827TIP3    H141676   6.803   4.891   4.247  2.7263  1.0108 -0.0262
 5827TIP3    H241677   6.923   4.850   4.329  0.1685 -2.4148  2.2641
 5828TIP3   OH241678   2.179   1.017   3.387 -0.1087  0.3534 -0.0865
 5828TIP3    H141679   2.256   0.985   3.434  0.5517  2.2083  0.1854
 5828TIP3    H241680   2.133   0.938   3.360  1.6084 -0.8126  0.2071
 5829TIP3   OH241681   2.405   6.031   2.136 -0.5532  0.2989  0.7102
 5829TIP3    H141682   2.477   5.981   2.099  0.0037 -0.0233  2.1393
 5829TIP3    H241683   2.397   5.998   2.226  0.2987  3.1776  1.9655
 5830TIP3   OH241684   4.472   4.295   4.351 -0.3353  0.1305 -0.3656
 5830TIP3    H141685   4.557   4.338   4.344 -0.7838  1.2974  0.9204
 5830TIP3    H241686   4.489   4.218   4.407 -0.5086  1.6828  1.9659
 5831TIP3   OH241687   3.392   5.973   3.132 -0.0242  0.2088 -0.1135
 5831TIP3    H141688   3.437   5.988   3.216  1.5755  0.3788 -0.9627
 5831TIP3    H241689   3.419   5.885   3.106  1.4404  1.0404 -1.5738
 5832TIP3   OH241690   5.554   5.497   2.143  0.4371 -0.1410 -0.1946
 5832TIP3    H141691   5.474   5.537   2.107 -0.0789 -2.7454 -2.2871
 5832TIP3    H241692   5.625   5.543   2.098 -0.0947 -0.6788 -1.6681
 5833TIP3   OH241693   1.168   4.829   4.318  0.2884 -0.4009  0.1618
 5833TIP3    H141694   1.103   4.890   4.352  0.8206  1.0497 -1.2555
 5833TIP3    H241695   1.216   4.880   4.252  1.5631 -2.0079 -0.2242
 5834TIP3   OH241696   1.486   1.273   2.173 -0.1927  0.4061  0.4655
 5834TIP3    H141697   1.393   1.279   2.151  0.7112  1.6046 -3.8186
 5834TIP3    H241698   1.516   1.363   2.177  1.0871  0.0052  0.3222
 5835TIP3   OH241699   3.620   4.160   4.268 -0.1305  0.1109 -0.1572
 5835TIP3    H141700   3.640   4.105   4.344 -2.7211  0.4472  0.8714
 5835TIP3    H241701   3.546   4.116   4.226  0.1622  0.8554 -1.5028
 5836TIP3   OH241702   6.574   5.215   2.428  0.5921  0.3466  0.1272
 5836TIP3    H141703   6.588   5.296   2.477 -0.6547  1.2337 -0.9022
 5836TIP3    H241704   6.623   5.227   2.346 -1.1253  0.9288 -0.8691
 5837TIP3   OH241705   3.905   4.913   5.376 -0.3404  0.1436 -0.0878
 5837TIP3    H141706   3.814   4.941   5.389 -0.0315  1.0509  0.1814
 5837TIP3    H241707   3.958   4.984   5.412  0.4934 -1.5617  2.3423
 5838TIP3   OH241708   0.313   6.838   3.186  0.2384 -0.0133 -0.0856
 5838TIP3    H141709   0.404   6.849   3.211  0.5326 -0.0220 -1.1275
 5838TIP3    H241710   0.278   6.927   3.183  0.6655  0.1316 -1.3029
 5839TIP3   OH241711   1.976   5.227   4.049  0.2500  0.1144  0.1909
 5839TIP3    H141712   1.936   5.154   4.001  1.5776 -1.6865  1.6363
 5839TIP3    H241713   1.936   5.305   4.012 -1.8925 -1.3770 -0.8760
 5840TIP3   OH241714   4.377   6.408   4.096  0.2886 -0.2996 -0.2568
 5840TIP3    H141715   4.300   6.398   4.041  1.1786 -1.0107 -1.3981
 5840TIP3    H241716   4.378   6.501   4.119 -0.3305 -0.0793 -1.0966
 5841TIP3   OH241717   6.685   2.315   2.706 -0.5177 -0.2655 -0.8685
 5841TIP3    H141718   6.621   2.337   2.773 -1.4800  0.1234 -1.8828
 5841TIP3    H241719   6.655   2.230   2.671  1.5147 -1.8743  1.0056
 5842TIP3   OH241720   1.519   0.686   4.163 -0.2210  0.2801  0.2937
 5842TIP3    H141721   1.432   0.686   4.201 -0.4618 -2.9639  0.0306
 5842TIP3    H241722   1.569   0.624   4.216  1.8273  1.7338  0.1734
 5843TIP3   OH241723   2.603   1.973   2.233  0.4961  0.5407 -0.0136
 5843TIP3    H141724   2.654   1.915   2.177  0.3398  0.8063 -0.4373
 5843TIP3    H241725   2.610   2.059   2.191 -0.2753  0.5896 -0.0633
 5844TIP3   OH241726   5.426   1.773   4.524 -0.3561 -0.1563 -0.8645
 5844TIP3    H141727   5.522   1.768   4.519 -0.1389  1.4381  0.6571
 5844TIP3    H241728   5.403   1.721   4.600 -0.8437 -1.4020 -1.8283
 5845TIP3   OH241729   4.649   1.773   3.154 -0.2439  0.0918  0.2935
 5845TIP3    H141730   4.687   1.686   3.141 -0.3959  0.1701 -0.7375
 5845TIP3    H241731   4.558   1.763   3.127 -0.4926  0.3703  0.9900
 5846TIP3   OH241732   3.002   2.628   2.050 -0.3240  0.2425 -0.3087
 5846TIP3    H141733   2.994   2.539   2.084 -0.2037  0.0314 -0.8178
 5846TIP3    H241734   3.092   2.653   2.070 -0.1153 -0.0505 -0.8632
 5847TIP3   OH241735   5.071   2.724   3.947 -0.5327 -0.2592  0.7071
 5847TIP3    H141736   5.002   2.738   4.012 -2.0315 -3.4824 -0.0246
 5847TIP3    H241737   5.025   2.701   3.867  1.2887  2.8359 -1.4709
 5848TIP3   OH241738   4.237   1.601   2.902  0.3118 -0.2912 -0.3188
 5848TIP3    H141739   4.142   1.587   2.901 -0.2847  2.7415  1.2796
 5848TIP3    H241740   4.263   1.591   2.810 -1.9081  0.6748 -1.1450
 5849TIP3   OH241741   2.642   4.682   5.319  0.1201  0.1832  0.8624
 5849TIP3    H141742   2.699   4.731   5.260 -0.9071  0.2658 -0.0885
 5849TIP3    H241743   2.593   4.749   5.367 -1.7608  0.1685 -0.9037
 5850TIP3   OH241744   6.708   1.813   4.357  0.0466  0.2049 -0.5540
 5850TIP3    H141745   6.770   1.815   4.430 -0.9023  1.8102  0.2712
 5850TIP3    H241746   6.761   1.790   4.281  1.5656  1.0099  0.2172
 5851TIP3   OH241747   4.655   0.075   4.693 -0.0676  0.0062  0.0732
 5851TIP3    H141748   4.575   0.035   4.729  1.0196 -0.7831  1.7192
 5851TIP3    H241749   4.627   0.114   4.610 -1.9412 -1.1056  0.1324
 5852TIP3   OH241750   5.573   1.566   3.186 -0.4620  0.0618 -0.1580
 5852TIP3    H141751   5.659   1.592   3.218  0.0616 -2.7509  0.9964
 5852TIP3    H241752   5.584   1.557   3.092  0.7890 -1.0875  0.0706
 5853TIP3   OH241753   3.896   4.596   4.132 -0.0513 -0.7665 -0.0946
 5853TIP3    H141754   3.977   4.606   4.081  0.4354  0.8927  0.8966
 5853TIP3    H241755   3.875   4.503   4.126  3.2000 -1.7822  1.4288
 5854TIP3   OH241756   2.443   0.708   4.128  0.0092  0.1357 -0.8036
 5854TIP3    H141757   2.457   0.728   4.036  1.5396 -0.0306 -0.6275
 5854TIP3    H241758   2.348   0.697   4.136 -0.5012  3.0736 -1.7356
 5855TIP3   OH241759   2.796   0.597   2.771  0.5448  0.1008 -0.4558
 5855TIP3    H141760   2.717   0.587   2.719  0.3480  0.0617 -0.1560
 5855TIP3    H241761   2.850   0.522   2.747  0.8864  0.6237 -1.3376
 5856TIP3   OH241762   6.274   6.642   4.953 -0.1977 -0.7540 -0.1374
 5856TIP3    H141763   6.367   6.662   4.960 -0.0513 -1.6734  0.8834
 5856TIP3    H241764   6.243   6.694   4.879  0.7495  0.9665  0.6146
 5857TIP3   OH241765   1.016   4.023   2.344 -0.4229  0.0256 -0.0960
 5857TIP3    H141766   1.080   4.024   2.273 -0.7618  4.3843 -0.5968
 5857TIP3    H241767   0.934   3.996   2.302 -0.0590 -0.1174 -0.7294
 5858TIP3   OH241768   5.447   1.646   2.174  0.0598  0.4646 -0.7545
 5858TIP3    H141769   5.473   1.735   2.196  0.2712 -0.3207  2.6072
 5858TIP3    H241770   5.352   1.649   2.171 -0.0342  0.4774  1.2448
 5859TIP3   OH241771   6.543   6.689   5.008  0.4013 -0.0078 -0.2786
 5859TIP3    H141772   6.580   6.664   4.923  3.0377 -1.1661  1.0827
 5859TIP3    H241773   6.531   6.606   5.054  0.8861  0.6952  1.1724
 5860TIP3   OH241774   6.140   0.956   4.490 -0.1927  0.1194 -0.6957
 5860TIP3    H141775   6.229   0.961   4.453  0.0184  0.2788 -0.1753
 5860TIP3    H241776   6.096   0.890   4.437 -0.4922  1.6336 -2.4457
 5861TIP3   OH241777   2.291   1.301   3.758  0.4553  0.0144 -0.4426
 5861TIP3    H141778   2.264   1.376   3.812 -3.5719 -0.3232 -1.6573
 5861TIP3    H241779   2.325   1.341   3.678  5.0437  0.4750  1.4290
 5862TIP3   OH241780   3.155   2.401   3.663  0.2032  0.3500 -0.2431
 5862TIP3    H141781   3.074   2.447   3.638  1.5314  2.2057 -1.4311
 5862TIP3    H241782   3.171   2.340   3.590 -0.6069 -0.7415  0.4662
 5863TIP3   OH241783   6.069   4.113   3.458  0.5983 -0.2186 -0.4920
 5863TIP3    H141784   6.088   4.145   3.370 -0.3602  3.3344  0.4041
 5863TIP3    H241785   5.988   4.062   3.448 -1.0680  2.3921 -1.4431
 5864TIP3   OH241786   1.725   2.354   2.625 -0.5876 -0.2040  0.1150
 5864TIP3    H141787   1.681   2.352   2.709  0.4345  1.4377  0.7436
 5864TIP3    H241788   1.734   2.448   2.604 -0.8902 -0.5620 -1.8568
 5865TIP3   OH241789   4.986   5.703   2.919  0.1109 -0.1353  0.0366
 5865TIP3    H141790   5.030   5.767   2.862  2.1447 -0.8863  0.6820
 5865TIP3    H241791   4.931   5.652   2.860 -0.5196  1.3255 -0.6936
 5866TIP3   OH241792   6.562   1.456   3.600 -0.3740  0.3756 -0.5624
 5866TIP3    H141793   6.536   1.469   3.509  1.2008  0.9153 -0.9550
 5866TIP3    H241794   6.598   1.540   3.627 -2.3556  0.7594  1.1396
 5867TIP3   OH241795   3.131   0.888   5.126 -0.8512 -0.0660  0.2633
 5867TIP3    H141796   3.201   0.827   5.148 -0.6705  0.3321  0.7901
 5867TIP3    H241797   3.143   0.904   5.032 -1.8538 -2.0480 -0.2823
 5868TIP3   OH241798   2.521   0.825   3.874 -0.4557  0.6195  0.3622
 5868TIP3    H141799   2.582   0.769   3.826  0.0346 -2.3922  4.0072
 5868TIP3    H241800   2.435   0.801   3.840 -0.0363 -0.2273 -0.1379
 5869TIP3   OH241801   5.470   6.503   5.499  0.3494  0.1420  0.5474
 5869TIP3    H141802   5.416   6.515   5.577  1.1142 -0.8386  1.2587
 5869TIP3    H241803   5.420   6.443   5.445  0.5949 -0.5851  1.1039
 5870TIP3   OH241804   1.143   0.706   2.155 -0.1875  0.1674  0.0045
 5870TIP3    H141805   1.197   0.778   2.123 -1.5318  0.8500 -0.8196
 5870TIP3    H241806   1.055   0.724   2.120 -1.8093  0.9500  3.9955
 5871TIP3   OH241807   0.177   6.413   2.181 -0.6403  0.8632  0.0937
 5871TIP3    H141808   0.083   6.415   2.164 -0.5719  1.2662 -0.2732
 5871TIP3    H241809   0.195   6.497   2.223 -0.6152  0.3479  1.1315
 5872TIP3   OH241810   6.852   2.073   2.779  0.5955  0.8411 -0.8323
 5872TIP3    H141811   6.850   1.983   2.748 -1.3779  0.8443 -0.8838
 5872TIP3    H241812   6.809   2.070   2.865  1.9451  1.5130 -0.0955
 5873TIP3   OH241813   2.624   0.144   3.729 -0.3567 -0.2245 -0.3665
 5873TIP3    H141814   2.551   0.082   3.725 -1.9578  1.4233  1.2690
 5873TIP3    H241815   2.583   0.229   3.746  1.9862  0.3354  4.0793
 5874TIP3   OH241816   3.189   1.839   3.746  0.0107  0.2342  0.3595
 5874TIP3    H141817   3.190   1.752   3.707 -1.7946  1.1996 -2.1226
 5874TIP3    H241818   3.281   1.863   3.753  0.4921 -1.3465 -0.1451
 5875TIP3   OH241819   5.011   0.505   5.417  0.0728 -0.4494 -0.0858
 5875TIP3    H141820   4.966   0.424   5.391 -0.0142 -0.0200 -1.3439
 5875TIP3    H241821   4.978   0.571   5.356  0.8869  0.3208  0.2862
 5876TIP3   OH241822   5.134   6.185   3.783  0.5653 -0.4541 -0.3263
 5876TIP3    H141823   5.104   6.140   3.862 -0.0232  0.3066 -0.1102
 5876TIP3    H241824   5.175   6.266   3.815 -0.8453  0.5086 -0.8460
 5877TIP3   OH241825   6.730   1.579   2.134  0.3279  0.3688 -0.4895
 5877TIP3    H141826   6.645   1.619   2.117  0.3462  1.0877  0.8896
 5877TIP3    H241827   6.794   1.645   2.105  0.4235 -0.2009 -1.5933
 5878TIP3   OH241828   2.511   0.036   2.506 -0.0771  0.4184 -0.0363
 5878TIP3    H141829   2.596   0.060   2.545 -0.2042 -0.2933  0.7026
 5878TIP3    H241830   2.446   0.069   2.569 -0.2709 -1.1585  0.6337
 5879TIP3   OH241831   1.765   3.795   2.945 -0.3550  0.3077 -0.4895
 5879TIP3    H141832   1.782   3.885   2.919 -1.4063  0.3706 -1.0301
 5879TIP3    H241833   1.718   3.757   2.870 -0.1782 -0.6022 -0.1578
 5880TIP3   OH241834   4.023   3.900   3.992  0.5569 -0.2013 -0.5087
 5880TIP3    H141835   3.945   3.956   3.990  0.6872  0.0531  0.5076
 5880TIP3    H241836   4.032   3.867   3.903 -1.0871 -0.7578 -0.4928
 5881TIP3   OH241837   2.943   4.052   2.466 -0.3075 -0.0448  0.0442
 5881TIP3    H141838   2.942   4.138   2.424  0.9903 -0.3033 -0.5750
 5881TIP3    H241839   3.036   4.034   2.480 -0.6495 -0.2771  2.4445
 5882TIP3   OH241840   4.094   3.896   2.606 -0.3042 -0.1909  0.6583
 5882TIP3    H141841   4.057   3.816   2.569 -0.0873 -1.0864  2.2760
 5882TIP3    H241842   4.189   3.882   2.605 -0.2445  0.2015  0.5966
 5883TIP3   OH241843   1.462   1.463   4.293  0.2291 -0.2790 -0.2105
 5883TIP3    H141844   1.409   1.387   4.317 -0.1830  0.2977  0.7386
 5883TIP3    H241845   1.400   1.523   4.252 -0.6943  1.7843  3.7265
 5884TIP3   OH241846   2.350   3.726   2.761 -0.3015 -0.0263  0.1768
 5884TIP3    H141847   2.355   3.815   2.726 -0.8019 -0.7377 -1.8242
 5884TIP3    H241848   2.378   3.670   2.689 -1.7797 -1.6274  0.7738
 5885TIP3   OH241849   3.081   5.881   2.595 -0.1243 -0.0540  0.0258
 5885TIP3    H141850   3.035   5.923   2.668  4.2715  0.2510  2.9826
 5885TIP3    H241851   3.054   5.789   2.599 -1.8443  0.4332  0.3593
 5886TIP3   OH241852   2.710   0.900   4.144  0.1423 -0.0335 -0.0189
 5886TIP3    H141853   2.770   0.885   4.071 -1.1244  1.2217 -1.3733
 5886TIP3    H241854   2.643   0.833   4.135 -1.0126  1.2274 -1.1451
 5887TIP3   OH241855   5.392   2.767   3.310  0.2627 -0.4931  0.6097
 5887TIP3    H141856   5.461   2.703   3.292  1.6649  0.5600  1.9300
 5887TIP3    H241857   5.435   2.834   3.363 -1.9008 -0.0063  1.8724
 5888TIP3   OH241858   1.586   6.414   4.202  0.4963 -0.3936 -0.4802
 5888TIP3    H141859   1.645   6.387   4.272 -1.6724  0.2958  1.7426
 5888TIP3    H241860   1.573   6.508   4.215 -0.3056 -0.3313 -1.5176
 5889TIP3   OH241861   0.640   0.867   4.915 -0.4867  0.1521  0.2922
 5889TIP3    H141862   0.608   0.914   4.837 -1.5026  0.0565  0.6337
 5889TIP3    H241863   0.694   0.932   4.961 -1.4842  0.8562  0.5114
 5890TIP3   OH241864   2.427   0.664   3.362  0.1640 -0.1060  0.0337
 5890TIP3    H141865   2.438   0.733   3.428 -1.0394 -0.5907  0.7710
 5890TIP3    H241866   2.407   0.585   3.413 -2.8178 -0.0941 -0.9118
 5891TIP3   OH241867   5.720   1.130   3.683  0.2916 -0.4549 -0.5056
 5891TIP3    H141868   5.631   1.095   3.681  0.3646 -1.1933  2.7326
 5891TIP3    H241869   5.762   1.095   3.605 -1.4338 -2.5588 -0.5775
 5892TIP3   OH241870   5.995   3.393   3.393  0.0609  0.3855 -0.0835
 5892TIP3    H141871   6.067   3.336   3.419 -0.0367 -0.6349 -1.8719
 5892TIP3    H241872   5.928   3.378   3.459  0.3351 -0.9962 -0.0783
 5893TIP3   OH241873   3.142   2.448   4.934  0.1613  0.1250  0.1943
 5893TIP3    H141874   3.208   2.439   5.003  1.1109  2.2778 -0.3489
 5893TIP3    H241875   3.088   2.522   4.963 -1.4717 -1.0054  0.1628
 5894TIP3   OH241876   2.087   6.331   2.338  0.0864 -0.2926 -0.1888
 5894TIP3    H141877   2.104   6.237   2.328 -0.2663 -0.3187 -0.5513
 5894TIP3    H241878   2.168   6.374   2.311  0.1633 -0.4829 -0.2576
 5895TIP3   OH241879   6.313   2.840   3.293  0.2270  0.2200  0.0895
 5895TIP3    H141880   6.347   2.928   3.313 -0.8154  1.0157 -1.4156
 5895TIP3    H241881   6.278   2.848   3.204  0.0910 -1.7325 -0.0649
 5896TIP3   OH241882   2.325   4.755   2.937 -0.6784 -0.4258 -0.0390
 5896TIP3    H141883   2.409   4.710   2.932 -1.0692 -1.0681 -1.4719
 5896TIP3    H241884   2.343   4.835   2.986  1.0370  0.0131 -1.2919
 5897TIP3   OH241885   0.805   0.856   3.331  0.0171 -0.1555 -0.8273
 5897TIP3    H141886   0.829   0.948   3.343  1.4263 -0.4769 -0.9014
 5897TIP3    H241887   0.819   0.840   3.237  1.5808 -0.8669 -0.5194
 5898TIP3   OH241888   3.711   0.072   5.438 -0.0447  0.2078  0.2153
 5898TIP3    H141889   3.633   0.049   5.488  0.6415  1.1724  1.8330
 5898TIP3    H241890   3.686   0.152   5.391  0.1227  0.8642  1.2101
 5899TIP3   OH241891   0.372   2.692   3.627 -0.3921 -0.0911  0.0260
 5899TIP3    H141892   0.314   2.679   3.551  1.3619  1.2407 -1.6392
 5899TIP3    H241893   0.383   2.786   3.633  2.5790 -0.3123 -0.5713
 5900TIP3   OH241894   4.557   2.274   2.719 -0.4870  0.0716 -0.3104
 5900TIP3    H141895   4.506   2.210   2.768 -0.9458  0.3527 -0.4132
 5900TIP3    H241896   4.588   2.336   2.785  0.0851 -0.3311 -0.1899
 5901TIP3   OH241897   2.310   5.371   2.666 -0.5869  0.3053  0.0549
 5901TIP3    H141898   2.369   5.438   2.632  0.9632 -0.4136  1.2322
 5901TIP3    H241899   2.367   5.308   2.709 -2.1934 -0.5431  1.0392
 5902TIP3   OH241900   3.588   5.731   2.751  0.6688  0.1349 -0.2078
 5902TIP3    H141901   3.513   5.672   2.761  0.8208  0.0391  0.4514
 5902TIP3    H241902   3.661   5.684   2.791  0.7186  0.8909  0.6199
 5903TIP3   OH241903   3.758   1.932   4.135 -0.4058  0.0925 -0.1016
 5903TIP3    H141904   3.806   1.976   4.065 -0.7540 -0.2761 -0.5723
 5903TIP3    H241905   3.825   1.881   4.181 -0.2863 -0.1573 -0.5498
 5904TIP3   OH241906   5.857   3.038   2.489  0.0407  0.5820 -0.4254
 5904TIP3    H141907   5.795   2.973   2.457  0.8861 -0.8379  0.6833
 5904TIP3    H241908   5.876   3.093   2.413 -1.1183 -0.1202 -1.2478
 5905TIP3   OH241909   2.037   1.649   3.282 -0.9313 -0.0047 -0.4104
 5905TIP3    H141910   2.119   1.624   3.241 -1.3035 -1.8299 -0.1367
 5905TIP3    H241911   1.972   1.644   3.212 -1.3743 -2.0333  0.0862
 5906TIP3   OH241912   4.588   3.093   2.970  0.1728 -0.3559  0.5384
 5906TIP3    H141913   4.547   3.012   2.941  0.3373 -0.3647  0.3282
 5906TIP3    H241914   4.540   3.118   3.049  0.1533 -0.6824  0.6308
 5907TIP3   OH241915   2.309   1.287   4.994  0.1898 -0.2879  0.2707
 5907TIP3    H141916   2.257   1.275   5.074 -1.2093  2.3685 -0.0987
 5907TIP3    H241917   2.375   1.352   5.019 -1.4252  2.0110 -1.0941
 5908TIP3   OH241918   4.576   4.402   3.037  0.2444 -0.1824  0.2135
 5908TIP3    H141919   4.626   4.395   3.118  1.9581  1.0220 -0.6716
 5908TIP3    H241920   4.484   4.394   3.065  0.8275 -0.9552  2.0933
 5909TIP3   OH241921   4.365   4.385   1.838 -0.5604  0.4015  0.2733
 5909TIP3    H141922   4.450   4.354   1.867 -1.2944 -0.8321  1.2158
 5909TIP3    H241923   4.321   4.413   1.919 -1.3099  0.3333 -0.1015
 5910TIP3   OH241924   2.494   2.134   4.845  0.2618  0.1019 -0.1060
 5910TIP3    H141925   2.500   2.096   4.933 -0.4770 -1.1759 -0.5869
 5910TIP3    H241926   2.584   2.159   4.824  0.6775 -0.8663  0.4560
 5911TIP3   OH241927   5.205   0.472   4.031 -0.2443 -0.1405 -0.3818
 5911TIP3    H141928   5.229   0.444   4.119 -2.8818  2.9782  1.5421
 5911TIP3    H241929   5.274   0.534   4.006  1.3857 -2.2016 -1.3674
 5912TIP3   OH241930   1.801   6.036   3.818 -0.4088  0.0104 -0.2426
 5912TIP3    H141931   1.806   5.959   3.761  0.0192 -0.0565 -0.1211
 5912TIP3    H241932   1.866   6.096   3.783 -0.5707  0.2191 -0.1894
 5913TIP3   OH241933   2.779   0.421   3.797 -0.0434  0.1167 -0.2509
 5913TIP3    H141934   2.725   0.345   3.817 -0.4987  0.3967 -0.4200
 5913TIP3    H241935   2.728   0.473   3.735  0.7584 -0.0182 -1.0500
 5914TIP3   OH241936   4.658   2.632   3.748  0.2363  0.1505  0.1206
 5914TIP3    H141937   4.644   2.629   3.843 -0.0947 -1.7698  0.0377
 5914TIP3    H241938   4.736   2.579   3.734  0.0053  0.0307 -0.7379
 5915TIP3   OH241939   3.987   4.894   4.647  0.2914  0.0321 -0.3338
 5915TIP3    H141940   3.916   4.840   4.681  0.4963 -0.7920 -1.1773
 5915TIP3    H241941   3.959   4.917   4.558  0.0218  1.6736  0.1322
 5916TIP3   OH241942   6.045   1.726   2.864  0.1940 -0.1745  0.3016
 5916TIP3    H141943   5.972   1.783   2.842 -0.0136 -1.0937 -1.6437
 5916TIP3    H241944   6.005   1.641   2.880  0.5019  0.1285  3.1415
 5917TIP3   OH241945   2.476   4.350   2.990 -0.3016  0.1547  0.2514
 5917TIP3    H141946   2.496   4.443   2.983  0.4080 -0.0352 -0.4226
 5917TIP3    H241947   2.408   4.344   3.057 -0.1961  1.1317  0.4482
 5918TIP3   OH241948   4.233   2.463   2.434 -0.0373 -0.5407 -0.4593
 5918TIP3    H141949   4.260   2.377   2.466  2.0010  0.3766  0.4965
 5918TIP3    H241950   4.309   2.519   2.450 -1.6220  1.6664 -0.1653
 5919TIP3   OH241951   2.951   2.411   3.085 -0.1810  0.2126  0.0290
 5919TIP3    H141952   2.919   2.334   3.131  1.2292  0.7174  2.0183
 5919TIP3    H241953   3.014   2.378   3.021 -1.5434 -0.4444 -1.0105
 5920TIP3   OH241954   2.809   6.754   3.947 -0.3093 -0.4512  0.0984
 5920TIP3    H141955   2.827   6.752   3.853 -1.0200  2.4766 -0.1764
 5920TIP3    H241956   2.890   6.784   3.987 -0.3460 -0.6522  0.3269
 5921TIP3   OH241957   3.042   1.128   4.063  0.2212 -0.1074  0.7533
 5921TIP3    H141958   3.040   1.108   3.970  0.3046  1.2068  0.4546
 5921TIP3    H241959   3.135   1.134   4.084  0.2081 -0.5953  0.9793
 5922TIP3   OH241960   3.420   0.667   2.913 -0.4933 -0.1867 -0.4975
 5922TIP3    H141961   3.480   0.593   2.906 -2.0660 -1.7332  1.3773
 5922TIP3    H241962   3.447   0.712   2.993  0.6502  1.5686 -1.7785
 5923TIP3   OH241963   6.003   6.222   5.151  0.5385  0.9203 -0.0061
 5923TIP3    H141964   6.071   6.288   5.162  1.2026  0.6111 -1.9513
 5923TIP3    H241965   6.047   6.149   5.108 -0.7147  0.1457 -0.0230
 5924TIP3   OH241966   5.869   0.362   5.209  0.8832  0.6021 -0.2430
 5924TIP3    H141967   5.879   0.268   5.194 -0.8984  0.0453  1.5691
 5924TIP3    H241968   5.866   0.371   5.305  3.4218  2.8505 -0.2419
 5925TIP3   OH241969   1.641   5.167   5.636 -0.1346  0.2992 -0.4140
 5925TIP3    H141970   1.586   5.241   5.663 -0.4300  0.5396 -1.6309
 5925TIP3    H241971   1.580   5.096   5.619  0.1608 -0.3259  0.9339
 5926TIP3   OH241972   3.803   5.530   3.523 -0.1096 -0.0918  0.5574
 5926TIP3    H141973   3.805   5.625   3.531 -0.6490  0.4419 -3.4712
 5926TIP3    H241974   3.719   5.511   3.482  1.1804 -1.9196 -1.4851
 5927TIP3   OH241975   3.650   5.553   2.476 -0.7799 -0.9342 -0.1336
 5927TIP3    H141976   3.634   5.505   2.558 -0.5660 -0.8379 -0.0354
 5927TIP3    H241977   3.742   5.577   2.480 -1.4237  1.7807  1.0726
 5928TIP3   OH241978   3.184   4.788   3.008 -0.3203  0.1600 -0.2276
 5928TIP3    H141979   3.245   4.769   3.080  1.1596  0.5393 -1.3243
 5928TIP3    H241980   3.185   4.708   2.956 -1.2476 -0.0447  0.0547
 5929TIP3   OH241981   5.688   6.316   4.134 -0.2135 -0.2042 -1.0510
 5929TIP3    H141982   5.777   6.313   4.169  0.3048 -1.5396 -2.3496
 5929TIP3    H241983   5.675   6.229   4.096 -1.8109  0.2041 -1.5097
 5930TIP3   OH241984   4.498   2.519   2.449 -0.3155 -0.0553  0.5054
 5930TIP3    H141985   4.566   2.573   2.488  1.1562  1.4157 -3.5698
 5930TIP3    H241986   4.544   2.440   2.420 -0.0518  1.0652 -2.5220
 5931TIP3   OH241987   0.624   3.773   3.731  0.0736  0.3668 -0.5339
 5931TIP3    H141988   0.696   3.783   3.794 -0.5769  1.9958  0.0202
 5931TIP3    H241989   0.559   3.837   3.760 -1.0917 -0.2425 -1.7246
 5932TIP3   OH241990   6.617   4.939   2.911  0.2114  0.4900 -0.0798
 5932TIP3    H141991   6.676   4.994   2.859  1.2236  1.2369  1.7536
 5932TIP3    H241992   6.558   5.002   2.954  0.3928  0.0552  0.8487
 5933TIP3   OH241993   2.892   6.610   5.183  0.4075  0.3321 -0.0533
 5933TIP3    H141994   2.922   6.657   5.261  0.6277 -0.4223  0.3291
 5933TIP3    H241995   2.953   6.635   5.114 -0.6197  2.1251 -0.3804
 5934TIP3   OH241996   1.800   1.298   2.603 -0.1682  0.1619 -0.0772
 5934TIP3    H141997   1.789   1.213   2.646  2.3631 -0.8796 -1.2937
 5934TIP3    H241998   1.792   1.362   2.674 -0.2811 -1.1922  1.1906
 5935TIP3   OH241999   1.254   5.549   3.471  0.3305 -0.0429  0.3243
 5935TIP3    H142000   1.201   5.495   3.530 -0.3517  1.1907  0.8899
 5935TIP3    H242001   1.340   5.552   3.512 -0.4083  1.6778  1.9187
 5936TIP3   OH242002   0.814   6.108   1.766 -0.6126 -0.1922 -0.3531
 5936TIP3    H142003   0.731   6.083   1.725 -1.0581 -0.6362  0.7886
 5936TIP3    H242004   0.789   6.141   1.852  0.4415 -0.7516  0.1735
 5937TIP3   OH242005   4.439   6.177   4.752  0.0056 -1.1666  0.3532
 5937TIP3    H142006   4.434   6.257   4.700 -1.2828 -1.0924  0.5690
 5937TIP3    H242007   4.457   6.108   4.688 -0.3955 -0.9117 -0.0409
 5938TIP3   OH242008   4.134   2.178   3.179 -0.4337  0.4690  0.3238
 5938TIP3    H142009   4.060   2.236   3.199 -0.3598  0.4754  0.5805
 5938TIP3    H242010   4.102   2.090   3.197 -0.7100  0.3816 -0.5487
 5939TIP3   OH242011   1.480   2.532   2.923 -0.3874  0.3264  0.1711
 5939TIP3    H142012   1.404   2.583   2.951 -0.4335 -0.5337  1.6816
 5939TIP3    H242013   1.547   2.598   2.903 -1.3422  1.0707 -0.6946
 5940TIP3   OH242014   3.393   6.476   5.119  0.3150  0.0640 -0.1343
 5940TIP3    H142015   3.350   6.547   5.070 -1.0169 -1.0853 -0.7057
 5940TIP3    H242016   3.377   6.398   5.066  0.1952 -0.9639  1.3779
 5941TIP3   OH242017   2.138   0.074   3.544 -0.2891  0.6366 -0.0528
 5941TIP3    H142018   2.060   0.118   3.510  0.0173  0.7905 -0.5596
 5941TIP3    H242019   2.205   0.088   3.477  0.1611  0.4610  0.3566
 5942TIP3   OH242020   6.079   6.137   4.789  0.0085 -0.1862 -0.2015
 5942TIP3    H142021   6.080   6.081   4.867  2.7458  0.6112  0.4839
 5942TIP3    H242022   5.989   6.170   4.784 -0.4695 -0.9315  2.1402
 5943TIP3   OH242023   3.033   0.515   3.326 -0.2943 -0.4211  0.1398
 5943TIP3    H142024   3.118   0.500   3.369  0.4986 -1.9822 -1.8312
 5943TIP3    H242025   3.011   0.606   3.349  1.8944  0.0344  0.7331
 5944TIP3   OH242026   1.404   4.375   4.142  0.2076 -0.3028 -0.4068
 5944TIP3    H142027   1.333   4.418   4.095  0.1096 -0.0330 -0.0111
 5944TIP3    H242028   1.361   4.324   4.211  0.4424  0.5289  0.3670
 5945TIP3   OH242029   4.155   1.573   3.631  0.1636 -0.4972 -0.2507
 5945TIP3    H142030   4.063   1.600   3.631 -0.4533 -2.3821 -0.6977
 5945TIP3    H242031   4.174   1.549   3.722  0.1305 -0.3575 -0.2072
 5946TIP3   OH242032   6.074   6.052   3.152  0.5360  0.1202  0.2800
 5946TIP3    H142033   6.129   5.999   3.094  1.9160  0.8943  0.8386
 5946TIP3    H242034   6.047   6.127   3.099 -0.4652 -0.5269 -0.1580
 5947TIP3   OH242035   5.256   3.790   3.536 -1.0226 -0.3554  0.1168
 5947TIP3    H142036   5.349   3.786   3.560 -1.4622 -0.3214  1.9708
 5947TIP3    H242037   5.253   3.847   3.459  0.5037 -0.5193 -0.0884
 5948TIP3   OH242038   4.235   5.812   5.298  0.3624 -0.3967  0.0319
 5948TIP3    H142039   4.244   5.904   5.273  1.5012 -0.3037  0.6919
 5948TIP3    H242040   4.210   5.815   5.391  0.8446 -0.7374  0.1811
 5949TIP3   OH242041   3.549   3.909   5.422  0.6023  0.0735 -0.0356
 5949TIP3    H142042   3.634   3.912   5.379  1.6526  0.7452  1.9765
 5949TIP3    H242043   3.536   3.817   5.445 -0.0477 -0.3216 -1.8353
 5950TIP3   OH242044   3.187   0.096   4.386 -0.2411  0.4872 -0.1723
 5950TIP3    H142045   3.181   0.003   4.368  0.7286  0.0021  1.7274
 5950TIP3    H242046   3.272   0.107   4.427 -2.0416  1.3871  3.7702
 5951TIP3   OH242047   4.524   3.064   3.485  0.2094  0.0666 -0.7971
 5951TIP3    H142048   4.590   3.075   3.417  1.0667 -0.1790 -0.0350
 5951TIP3    H242049   4.551   2.986   3.533 -0.8851 -0.2883 -0.7262
 5952TIP3   OH242050   5.938   2.650   4.027  0.1564 -0.3585 -0.6297
 5952TIP3    H142051   5.992   2.598   3.967 -0.9804 -1.1767 -0.9834
 5952TIP3    H242052   5.858   2.598   4.037 -0.5122  0.7665 -0.0255
 5953TIP3   OH242053   5.332   4.484   3.684  0.0123  0.1752  0.1991
 5953TIP3    H142054   5.267   4.472   3.753  0.8854 -1.1168  0.8292
 5953TIP3    H242055   5.310   4.417   3.619  0.1040  0.4096 -0.0741
 5954TIP3   OH242056   4.762   3.459   5.137  0.6289 -0.6614 -0.5048
 5954TIP3    H142057   4.673   3.430   5.117  0.4970 -1.5525  1.2387
 5954TIP3    H242058   4.792   3.502   5.056 -1.7112  0.5398 -0.8083
 5955TIP3   OH242059   5.404   3.497   2.991  0.3584  0.2867  0.3629
 5955TIP3    H142060   5.454   3.454   3.061 -2.6422 -0.9506  1.8995
 5955TIP3    H242061   5.324   3.446   2.984  0.0082  1.1012 -3.2397
 5956TIP3   OH242062   1.080   6.081  12.884  0.4242  0.9138  0.4676
 5956TIP3    H142063   1.088   6.006  12.943 -0.1537  1.0948  0.7795
 5956TIP3    H242064   1.137   6.148  12.922 -0.9220  1.4870  1.5611
 5957TIP3   OH242065   6.289   1.609   3.528  0.1924 -0.1921  0.1198
 5957TIP3    H142066   6.376   1.645   3.513 -0.4688  1.7289  0.6376
 5957TIP3    H242067   6.280   1.605   3.624 -0.7153  0.7780  0.0918
 5958TIP3   OH242068   1.389   4.688   3.936  0.5476  0.0021 -0.0726
 5958TIP3    H142069   1.445   4.662   4.009 -0.7898 -0.6616  0.7526
 5958TIP3    H242070   1.422   4.637   3.861  1.2351 -0.1396  0.3180
 5959TIP3   OH242071   4.985   2.769   3.193 -0.3386  0.4600  0.6025
 5959TIP3    H142072   4.949   2.728   3.114  0.4760 -0.6752  0.7993
 5959TIP3    H242073   5.060   2.715   3.216 -2.2999 -1.1892  3.9568
 5960TIP3   OH242074   4.958   4.054   4.732  0.4854 -0.2299 -0.0836
 5960TIP3    H142075   5.043   4.045   4.689  1.3284  0.7344  1.3184
 5960TIP3    H242076   4.962   4.138   4.778 -1.5227  0.2000 -0.5950
 5961TIP3   OH242077   5.067   6.505   2.321  0.4666 -0.2600 -0.0857
 5961TIP3    H142078   4.985   6.535   2.281  0.2340 -0.5417  0.1842
 5961TIP3    H242079   5.133   6.521   2.253  0.1708 -0.1453 -0.3495
 5962TIP3   OH242080   1.991   6.430   4.545 -0.5476  0.3378 -0.6065
 5962TIP3    H142081   1.965   6.338   4.546 -0.6567  0.3675 -0.7591
 5962TIP3    H242082   1.951   6.467   4.624 -0.3814  0.2217 -0.4672
 5963TIP3   OH242083   3.065   4.957   2.259  0.0244 -0.1383 -0.9501
 5963TIP3    H142084   3.009   4.881   2.241 -0.8329  0.2442  0.0640
 5963TIP3    H242085   3.113   4.933   2.338 -2.8474  1.6889  1.5446
 5964TIP3   OH242086   6.236   0.528   4.422 -0.2725  0.3037  0.3341
 5964TIP3    H142087   6.241   0.435   4.397 -1.8390  0.4846 -0.8252
 5964TIP3    H242088   6.160   0.533   4.480  0.9577  0.5766  1.9744
 5965TIP3   OH242089   4.928   4.139   2.288 -0.2603 -0.3394 -0.6816
 5965TIP3    H142090   4.887   4.189   2.218  0.6828  1.4802 -0.0404
 5965TIP3    H242091   5.018   4.173   2.291  0.1498 -1.4549  0.4122
 5966TIP3   OH242092   4.868   3.850   2.259  0.3385 -0.0345 -0.7082
 5966TIP3    H142093   4.879   3.944   2.273 -1.0782 -0.0319  0.7677
 5966TIP3    H242094   4.937   3.809   2.312  0.1415  0.1710 -0.2847
 5967TIP3   OH242095   4.459   2.111   3.524 -0.1574 -0.3072  0.0364
 5967TIP3    H142096   4.369   2.095   3.554 -0.9426  0.3234 -1.8278
 5967TIP3    H242097   4.466   2.206   3.520  0.9148 -0.3196  0.9485
 5968TIP3   OH242098   0.974   3.172   3.281 -0.7600  0.2203  0.2471
 5968TIP3    H142099   0.962   3.092   3.331 -1.8983  1.5926  2.3104
 5968TIP3    H242100   1.068   3.175   3.262 -0.4031 -0.7328  1.6914
 5969TIP3   OH242101   6.165   5.615   2.362  0.0392 -0.1267 -0.4283
 5969TIP3    H142102   6.070   5.613   2.379 -0.7304 -1.4069 -3.9699
 5969TIP3    H242103   6.190   5.523   2.358  1.4254  0.2066  0.1511
 5970TIP3   OH242104   3.263   1.369   4.027 -0.1694 -0.0147  0.1981
 5970TIP3    H142105   3.358   1.382   4.023 -0.3724  2.0496  0.9201
 5970TIP3    H242106   3.244   1.358   4.120 -0.5833 -1.2096 -0.0110
 5971TIP3   OH242107   6.373   1.801   2.437  0.1023 -0.5006  0.3801
 5971TIP3    H142108   6.398   1.840   2.521  1.8712 -1.9545  0.5905
 5971TIP3    H242109   6.301   1.743   2.459 -1.7107  1.5869  0.2692
 5972TIP3   OH242110   2.580   1.975   4.586 -0.1897 -0.2975 -0.9747
 5972TIP3    H142111   2.513   1.910   4.604 -0.2530 -0.1765 -0.7783
 5972TIP3    H242112   2.640   1.969   4.660 -0.5596  0.3405 -0.6131
 5973TIP3   OH242113   1.756   1.096   3.273  0.6327 -0.2069 -0.0009
 5973TIP3    H142114   1.799   1.123   3.354  0.5607 -2.0997  0.7101
 5973TIP3    H242115   1.669   1.135   3.278  0.6396 -0.2806  0.8303
 5974TIP3   OH242116   4.140   5.237   2.321 -0.3548 -0.7251 -0.3633
 5974TIP3    H142117   4.234   5.245   2.338 -0.1060 -2.8327 -0.5803
 5974TIP3    H242118   4.115   5.324   2.288  1.4729 -0.0928 -0.2098
 5975TIP3   OH242119   2.679   6.504   2.247  0.4662 -0.3535 -0.2676
 5975TIP3    H142120   2.614   6.550   2.194 -0.5693 -1.2778  0.1389
 5975TIP3    H242121   2.672   6.413   2.219  1.9962 -0.3876 -0.5991
 5976TIP3   OH242122   1.410   0.775   4.522 -0.2568 -0.1377  0.6132
 5976TIP3    H142123   1.358   0.709   4.568 -0.8149  2.1634  3.5900
 5976TIP3    H242124   1.497   0.769   4.561  0.2429 -0.3311 -0.4799
 5977TIP3   OH242125   1.266   6.841   4.148  0.2276 -0.3335  0.6936
 5977TIP3    H142126   1.259   6.907   4.218  0.7247 -1.1063  1.4963
 5977TIP3    H242127   1.322   6.883   4.082 -0.6447  0.5950  0.5140
 5978TIP3   OH242128   5.485   6.552   2.211  0.0839  0.3149 -0.5537
 5978TIP3    H142129   5.513   6.461   2.222  2.8925  1.2541  1.0873
 5978TIP3    H242130   5.409   6.561   2.268 -0.0134 -0.9025 -0.4699
 5979TIP3   OH242131   5.226   5.183   4.208 -0.1629 -0.0758  0.0821
 5979TIP3    H142132   5.233   5.228   4.292  0.2911  0.9449 -0.4865
 5979TIP3    H242133   5.199   5.094   4.231 -1.0630  0.4726  1.2252
 5980TIP3   OH242134   4.232   3.460   3.580 -0.0543  0.4663  0.2307
 5980TIP3    H142135   4.172   3.394   3.546 -0.4943  0.4864  0.9311
 5980TIP3    H242136   4.319   3.422   3.569 -0.0840  0.8620 -1.7498
 5981TIP3   OH242137   5.533   5.950   4.606  0.3165  0.0952  0.0802
 5981TIP3    H142138   5.496   6.038   4.602  0.3084  0.1137  0.5651
 5981TIP3    H242139   5.522   5.916   4.517 -2.0244 -0.3675  0.4939
 5982TIP3   OH242140   6.714   6.522   3.946  0.4607  0.0064  0.0637
 5982TIP3    H142141   6.745   6.533   4.036 -1.0650  1.8187  0.4454
 5982TIP3    H242142   6.761   6.445   3.913  3.9620  1.5029  1.0958
 5983TIP3   OH242143   3.760   5.794   4.303 -0.5423  0.6824  0.0588
 5983TIP3    H142144   3.822   5.820   4.234  1.4918 -2.5687  0.4157
 5983TIP3    H242145   3.695   5.741   4.257 -1.5109  1.8212  0.0971
 5984TIP3   OH242146   6.687   3.979   5.097  0.3468 -0.6151  0.2864
 5984TIP3    H142147   6.593   3.974   5.118 -0.3711  0.0492 -2.4238
 5984TIP3    H242148   6.696   4.062   5.050  2.0873 -1.1954 -0.4718
 5985TIP3   OH242149   1.028   1.862   4.674 -0.2514 -0.1252 -0.2861
 5985TIP3    H142150   0.988   1.850   4.760 -0.9246 -0.2011 -0.6026
 5985TIP3    H242151   1.111   1.815   4.679  0.0477  0.4540  0.5489
 5986TIP3   OH242152   4.966   0.587   5.158  0.0779 -0.1500 -0.4249
 5986TIP3    H142153   4.916   0.521   5.111 -0.8117  2.2606 -3.1441
 5986TIP3    H242154   5.043   0.602   5.103  0.3503  0.9462  0.2283
 5987TIP3   OH242155   2.994   3.344   5.378  0.5452  0.5092  0.2916
 5987TIP3    H142156   3.086   3.318   5.388  0.7866  1.4206  0.5455
 5987TIP3    H242157   2.998   3.431   5.340 -0.2759 -0.4298 -2.1354
 5988TIP3   OH242158   2.294   2.073   3.500  0.2353  0.4139 -0.5667
 5988TIP3    H142159   2.301   2.049   3.592 -0.7849 -0.0474 -0.5961
 5988TIP3    H242160   2.224   2.018   3.466  1.2088 -0.0676 -1.8501
 5989TIP3   OH242161   0.074   2.051   5.286 -0.1457  0.5255  0.3890
 5989TIP3    H142162   0.012   2.072   5.355  0.1943  0.0345  0.8528
 5989TIP3    H242163   0.022   2.005   5.220 -0.2616  0.0566  0.8041
 5990TIP3   OH242164   2.147   1.923   2.744 -0.6259 -0.1115 -0.0825
 5990TIP3    H142165   2.084   1.963   2.804 -0.6368 -0.2570  0.0040
 5990TIP3    H242166   2.222   1.901   2.800  0.1157  1.3948 -0.4287
 5991TIP3   OH242167   3.029   1.734   2.277 -0.5540  0.3633 -0.2823
 5991TIP3    H142168   3.116   1.738   2.317 -0.8013 -1.5011  0.5269
 5991TIP3    H242169   2.973   1.696   2.344 -1.6754  0.1217 -1.3239
 5992TIP3   OH242170   4.819   3.626   2.069 -0.2997  0.1457 -0.7132
 5992TIP3    H142171   4.831   3.667   2.155 -2.8602  1.1992 -0.7508
 5992TIP3    H242172   4.840   3.534   2.083  0.5673  0.5308  0.7251
 5993TIP3   OH242173   5.279   3.533   3.366 -0.0163 -0.3863 -0.4102
 5993TIP3    H142174   5.216   3.501   3.301  0.1949 -1.2295 -0.2092
 5993TIP3    H242175   5.242   3.616   3.396 -1.2094 -1.0214 -0.0629
 5994TIP3   OH242176   2.606   6.112   2.856 -0.2931  0.2897  0.4963
 5994TIP3    H142177   2.635   6.195   2.892 -0.9034  1.1222 -0.8734
 5994TIP3    H242178   2.629   6.048   2.923 -0.3938  1.6303  1.8691
 5995TIP3   OH242179   0.942   0.405   5.079 -0.3869 -0.3652 -0.0199
 5995TIP3    H142180   0.913   0.324   5.119  0.4225 -0.7982 -0.2951
 5995TIP3    H242181   0.861   0.456   5.067 -0.9624 -1.3129 -0.2713
 5996TIP3   OH242182   6.452   2.344   2.463 -0.1173 -0.1328  0.1935
 5996TIP3    H142183   6.362   2.322   2.490 -0.6260 -0.1908 -1.4436
 5996TIP3    H242184   6.502   2.265   2.483 -0.9447 -1.0278 -1.1364
 5997TIP3   OH242185   1.874   3.466   5.420  0.9779  0.3595 -0.4588
 5997TIP3    H142186   1.947   3.458   5.481  0.8967  0.2216 -0.3773
 5997TIP3    H242187   1.887   3.394   5.358  0.5930 -0.0327 -0.0980
 5998TIP3   OH242188   2.779   4.247   5.965  0.1735  0.1173  0.2809
 5998TIP3    H142189   2.716   4.184   5.999 -1.2180  1.5105  0.3819
 5998TIP3    H242190   2.854   4.242   6.025 -1.5577  1.3872  2.6920
 5999TIP3   OH242191   6.097   4.961   2.759  0.1080 -0.4193  0.0407
 5999TIP3    H142192   6.140   4.992   2.839  0.8705 -0.7887 -0.2064
 5999TIP3    H242193   6.068   4.872   2.780 -0.3286 -0.2524  0.1354
 6000TIP3   OH242194   1.465   3.490   3.569  0.0360  0.1624 -0.0900
 6000TIP3    H142195   1.460   3.395   3.564 -1.3245  0.2241 -0.5513
 6000TIP3    H242196   1.547   3.513   3.526  0.3324 -0.7981 -0.0475
 6001TIP3   OH242197   2.248   4.329   3.946 -0.0406 -0.1887  0.1989
 6001TIP3    H142198   2.256   4.403   3.885 -0.8530  0.3402  0.7184
 6001TIP3    H242199   2.200   4.365   4.021 -1.9508 -1.6514 -0.2535
 6002TIP3   OH242200   4.336   0.232   3.127 -0.7142 -1.2168  0.7661
 6002TIP3    H142201   4.356   0.140   3.107  2.9084 -0.0678 -2.0108
 6002TIP3    H242202   4.421   0.271   3.147 -2.0497  1.6871  1.2209
 6003TIP3   OH242203   3.733   1.990   2.738 -0.0157 -0.4281 -0.3644
 6003TIP3    H142204   3.797   2.061   2.735 -0.9479  0.5158  0.8319
 6003TIP3    H242205   3.696   1.986   2.650  1.3390 -0.6837 -0.9442
 6004TIP3   OH242206   1.437   4.637   2.820 -0.7173 -0.3509 -0.8531
 6004TIP3    H142207   1.374   4.697   2.780 -1.4232 -0.1253  0.5410
 6004TIP3    H242208   1.491   4.692   2.876  1.6851 -0.3025 -3.0270
 6005TIP3   OH242209   6.458   0.265   3.526 -0.2546  0.5745 -0.2971
 6005TIP3    H142210   6.551   0.273   3.504 -0.1632  1.0094  0.2166
 6005TIP3    H242211   6.433   0.177   3.497  0.1996  0.6275 -0.8608
 6006TIP3   OH242212   0.976   0.864   2.787  0.3704 -0.6302  0.2735
 6006TIP3    H142213   1.039   0.880   2.717 -0.5406  1.1559 -0.2052
 6006TIP3    H242214   0.891   0.860   2.743 -0.2499  0.7771  1.2662
 6007TIP3   OH242215   5.220   3.730   2.726  0.3506 -0.7119  0.8157
 6007TIP3    H142216   5.141   3.682   2.700  0.1502 -0.0538  0.1784
 6007TIP3    H242217   5.227   3.715   2.821 -0.4281 -0.9359  0.8455
 6008TIP3   OH242218   1.274   4.920   4.084 -0.1197  0.0112  0.2801
 6008TIP3    H142219   1.280   4.837   4.037 -3.4796 -0.3571  0.3235
 6008TIP3    H242220   1.365   4.952   4.086  1.2675 -3.4183 -0.0629
 6009TIP3   OH242221   3.667   3.871   3.988 -0.0230 -0.3108 -0.2162
 6009TIP3    H142222   3.705   3.784   3.995  1.5572  0.4017  0.7006
 6009TIP3    H242223   3.728   3.920   3.933  1.5017  1.3616  2.7193
 6010TIP3   OH242224   4.290   0.342   4.523  0.0687  0.3821 -0.2347
 6010TIP3    H142225   4.266   0.260   4.479  2.1289 -0.4322  0.0525
 6010TIP3    H242226   4.333   0.394   4.456  0.6942  0.3149  0.1077
 6011TIP3   OH242227   0.207   6.292   4.643 -1.0212 -0.1082  0.3083
 6011TIP3    H142228   0.159   6.228   4.589 -0.5917 -0.4551  0.3340
 6011TIP3    H242229   0.211   6.251   4.729  1.8540 -1.4439 -0.3521
 6012TIP3   OH242230   6.730   3.022   3.983  0.5816 -0.7875  0.3375
 6012TIP3    H142231   6.748   3.085   4.053  1.0927 -0.5604  0.0087
 6012TIP3    H242232   6.635   3.010   3.984  0.5936 -0.8457  1.1192
 6013TIP3   OH242233   2.444   4.337   4.335 -0.2000  0.0943  0.0328
 6013TIP3    H142234   2.424   4.338   4.242  1.2256 -0.3114 -0.3105
 6013TIP3    H242235   2.427   4.246   4.362 -0.4873  0.1795  0.1440
 6014TIP3   OH242236   3.191   3.859   1.872  0.2603 -0.2162  0.4093
 6014TIP3    H142237   3.171   3.852   1.779 -2.0404  0.8979  0.7539
 6014TIP3    H242238   3.253   3.788   1.889 -0.2341 -1.2166 -1.7179
 6015TIP3   OH242239   3.174   3.603   4.824  0.3091  0.0138 -0.2115
 6015TIP3    H142240   3.208   3.519   4.792 -0.8831 -0.8353  0.6535
 6015TIP3    H242241   3.253   3.652   4.849  1.0056 -1.6213  1.0714
 6016TIP3   OH242242   6.568   4.686   2.535  0.3198 -0.4381  0.2091
 6016TIP3    H142243   6.588   4.778   2.518  0.3407 -0.3882  0.5006
 6016TIP3    H242244   6.480   4.674   2.499 -1.0106  0.5029  2.8521
 6017TIP3   OH242245   1.941   5.527   3.914  0.2454  0.0126 -0.1633
 6017TIP3    H142246   1.875   5.568   3.970 -1.1259 -2.2590  0.0086
 6017TIP3    H242247   1.979   5.600   3.864 -1.4817  1.5624  0.6688
 6018TIP3   OH242248   5.347   0.970   4.485  0.6382 -0.3822  0.5752
 6018TIP3    H142249   5.379   1.051   4.445 -0.0323 -0.4950 -0.2104
 6018TIP3    H242250   5.394   0.965   4.569  0.1070  1.2190  1.0022
 6019TIP3   OH242251   4.816   3.876   4.055  0.0554  0.7326 -0.0527
 6019TIP3    H142252   4.786   3.785   4.052 -0.1193  0.8192 -1.4232
 6019TIP3    H242253   4.741   3.925   4.088  0.1981  0.3710  0.8322
 6020TIP3   OH242254   6.371   5.738   3.777  0.2179 -0.2645 -0.2268
 6020TIP3    H142255   6.466   5.728   3.781  0.0097 -2.3775  1.4645
 6020TIP3    H242256   6.350   5.727   3.685  1.5133 -1.4111 -0.4298
 6021TIP3   OH242257   3.253   3.028   2.788 -0.0445  0.0569 -0.1355
 6021TIP3    H142258   3.172   3.077   2.778 -0.4806 -0.9620 -2.2757
 6021TIP3    H242259   3.228   2.936   2.778  1.2923 -0.3194 -0.3318
 6022TIP3   OH242260   1.437   6.628   4.468  0.5221 -0.1683 -0.0212
 6022TIP3    H142261   1.468   6.709   4.509  0.0756  0.1474 -0.3060
 6022TIP3    H242262   1.459   6.638   4.376  0.7907 -0.5314  0.0000
 6023TIP3   OH242263   4.568   6.586   3.411  0.0741 -0.3337 -0.3029
 6023TIP3    H142264   4.550   6.499   3.373  1.1055 -0.7884  0.2050
 6023TIP3    H242265   4.557   6.573   3.505 -2.4334  0.7804 -0.3585
 6024TIP3   OH242266   0.314   2.199   5.314  0.4704 -0.6301  0.1548
 6024TIP3    H142267   0.231   2.152   5.326  0.5065 -0.5306  0.8759
 6024TIP3    H242268   0.381   2.131   5.317  0.5749 -0.4938  1.8892
 6025TIP3   OH242269   5.589   3.545   5.072 -0.1233  0.6306  0.2408
 6025TIP3    H142270   5.506   3.577   5.107 -0.2397  0.6179 -0.0246
 6025TIP3    H242271   5.565   3.477   5.010  0.1244  0.0974  0.7232
 6026TIP3   OH242272   2.384   0.176   2.274  0.5317  0.5868  0.0033
 6026TIP3    H142273   2.413   0.153   2.363 -0.4583 -1.6136 -0.1676
 6026TIP3    H242274   2.314   0.239   2.287  0.0147 -0.1337  0.8540
 6027TIP3   OH242275   1.002   5.669   3.352 -0.4033  0.3773  0.1153
 6027TIP3    H142276   1.006   5.585   3.306  0.1904  0.8371 -0.7036
 6027TIP3    H242277   1.049   5.654   3.434 -1.2580 -0.3845  0.4748
 6028TIP3   OH242278   4.978   2.458   2.794  0.4659  0.2435 -0.1097
 6028TIP3    H142279   4.909   2.520   2.774  1.1295  0.4454 -2.0059
 6028TIP3    H242280   5.028   2.451   2.713  0.2090 -3.0496 -0.1323
 6029TIP3   OH242281   2.751   6.342   4.553  0.1267  0.2014 -0.2309
 6029TIP3    H142282   2.778   6.360   4.643  2.1649  1.2152 -1.0003
 6029TIP3    H242283   2.719   6.426   4.520  2.3662  0.6527 -1.4037
 6030TIP3   OH242284   6.544   3.414   3.159  0.0889  0.8264 -0.1414
 6030TIP3    H142285   6.458   3.448   3.184  1.2741  2.6542  1.7295
 6030TIP3    H242286   6.590   3.489   3.121  1.6629  0.5563  1.1125
 6031TIP3   OH242287   2.289   3.374   3.357  0.0008 -0.5564  0.4901
 6031TIP3    H142288   2.239   3.456   3.359  0.5245 -0.0583 -2.5365
 6031TIP3    H242289   2.381   3.402   3.356  0.2336 -1.2713  1.0259
 6032TIP3   OH242290   3.523   6.382   2.368  0.0867 -0.2071  0.5242
 6032TIP3    H142291   3.617   6.391   2.350  0.4331  0.4105  2.3875
 6032TIP3    H242292   3.519   6.352   2.459 -1.5314  0.2588  0.6361
 6033TIP3   OH242293   0.666   5.983   4.265  0.6927  0.2058 -0.4525
 6033TIP3    H142294   0.654   5.920   4.336 -0.4077 -0.6788 -1.3641
 6033TIP3    H242295   0.699   5.930   4.192 -0.2519  0.6607 -1.2353
 6034TIP3   OH242296   5.849   3.343   2.891  0.1249 -0.2688 -0.1128
 6034TIP3    H142297   5.823   3.423   2.937  1.7680 -0.0974  0.5827
 6034TIP3    H242298   5.822   3.357   2.800 -0.1209  0.8367  0.1182
 6035TIP3   OH242299   5.453   5.161   3.475 -0.0481  0.1221  0.0067
 6035TIP3    H142300   5.502   5.101   3.419 -1.4360  0.4830 -1.6813
 6035TIP3    H242301   5.379   5.109   3.508 -1.1586  0.8064 -1.3229
 6036TIP3   OH242302   2.976   1.524   3.198  0.1200 -0.0740  0.1491
 6036TIP3    H142303   2.984   1.476   3.280  1.8046  0.1720  0.1731
 6036TIP3    H242304   2.884   1.550   3.194  0.0883  0.2870  2.1791
 6037TIP3   OH242305   0.102   5.754   2.442  0.2977 -0.7621 -0.6312
 6037TIP3    H142306   0.081   5.763   2.349 -0.9782  1.7761 -0.1971
 6037TIP3    H242307   0.177   5.812   2.455 -0.7771  0.4937  0.2293
 6038TIP3   OH242308   5.474   5.181   4.384 -0.1704  0.3066  0.5996
 6038TIP3    H142309   5.510   5.235   4.313 -1.3657  0.4256  0.0632
 6038TIP3    H242310   5.409   5.237   4.426  0.6990  0.3322  1.9858
 6039TIP3   OH242311   3.413   4.927   5.511 -0.3442 -0.2456 -0.4253
 6039TIP3    H142312   3.404   5.015   5.548  1.1940 -0.3455  0.2296
 6039TIP3    H242313   3.384   4.868   5.581  1.5650 -0.3801  0.3147
 6040TIP3   OH242314   0.660   5.506   3.522  0.5764  0.5647  0.7555
 6040TIP3    H142315   0.616   5.509   3.437 -1.3108  1.7679  1.7110
 6040TIP3    H242316   0.632   5.422   3.559  0.2669  0.6648  0.7542
 6041TIP3   OH242317   4.627   5.918   3.605 -0.4961  0.2559  0.0727
 6041TIP3    H142318   4.625   6.010   3.632 -0.6787  0.8538 -1.8180
 6041TIP3    H242319   4.696   5.914   3.539 -1.0224 -0.7948 -0.4394
 6042TIP3   OH242320   3.504   0.075   3.640 -0.1919  0.2918 -0.0634
 6042TIP3    H142321   3.579   0.133   3.624 -0.4611  0.8153  0.5285
 6042TIP3    H242322   3.463   0.110   3.719 -0.2101 -0.8724  0.4606
 6043TIP3   OH242323   4.101   1.691   4.958 -0.3902  0.1387 -0.1396
 6043TIP3    H142324   4.023   1.723   5.003  0.8349  0.8644  1.5995
 6043TIP3    H242325   4.163   1.764   4.963  1.1820 -1.1628  0.5933
 6044TIP3   OH242326   4.340   4.610   4.780 -0.0400 -0.5243 -0.0759
 6044TIP3    H142327   4.348   4.542   4.848 -1.1302 -1.6889 -1.0611
 6044TIP3    H242328   4.419   4.601   4.728  0.1804 -0.5321  0.2607
 6045TIP3   OH242329   4.761   2.995   4.583 -0.0338  1.0503  0.7498
 6045TIP3    H142330   4.677   2.973   4.622  0.5777 -0.2535  1.3796
 6045TIP3    H242331   4.745   2.993   4.488 -0.1121 -2.0005  0.7314
 6046TIP3   OH242332   6.221   6.086   3.427 -0.3163 -0.0217  0.1101
 6046TIP3    H142333   6.181   6.086   3.340 -0.7716 -0.6426  0.3135
 6046TIP3    H242334   6.274   6.007   3.429  0.0561  0.2281  0.2383
 6047TIP3   OH242335   1.185   6.660   2.563  0.4164 -0.4885  0.5050
 6047TIP3    H142336   1.240   6.583   2.550  0.4508 -0.5034  0.7387
 6047TIP3    H242337   1.110   6.628   2.613  1.3092 -0.0161  2.2130
 6048TIP3   OH242338   2.966   3.844   2.062  0.0791 -0.3440  0.0665
 6048TIP3    H142339   3.035   3.875   2.003 -0.3144  2.1603  0.8065
 6048TIP3    H242340   2.942   3.921   2.113 -3.4239 -1.0434 -0.2970
 6049TIP3   OH242341   5.779   4.821   4.574  0.6855 -0.0013  0.3820
 6049TIP3    H142342   5.757   4.909   4.542  0.6239  0.3965  1.4773
 6049TIP3    H242343   5.774   4.829   4.670  0.8912 -1.1460  0.4933
 6050TIP3   OH242344   2.456   1.169   4.765 -0.4368 -0.2322 -0.3327
 6050TIP3    H142345   2.444   1.213   4.849  2.4455  0.9035 -0.4048
 6050TIP3    H242346   2.515   1.096   4.783  0.6286  0.3220 -1.4135
 6051TIP3   OH242347   1.761   5.653   2.297  0.0369  0.0680 -0.3213
 6051TIP3    H142348   1.798   5.566   2.284 -1.3766 -0.5967 -0.0392
 6051TIP3    H242349   1.667   5.640   2.295 -0.2038  1.6022 -0.2756
 6052TIP3   OH242350   2.411   2.022   3.735  0.2419  0.0917 -0.1472
 6052TIP3    H142351   2.453   2.108   3.741  1.6448 -0.5652 -0.2123
 6052TIP3    H242352   2.476   1.961   3.768 -0.9138 -0.9218  0.3519
 6053TIP3   OH242353   3.248   5.213   5.206  0.2628 -0.0566  0.3091
 6053TIP3    H142354   3.160   5.251   5.210  0.2237 -0.2524  1.7428
 6053TIP3    H242355   3.237   5.122   5.231  0.7676 -0.2932 -0.3000
 6054TIP3   OH242356   3.174   2.768   2.768  0.1778  0.6356 -0.4825
 6054TIP3    H142357   3.182   2.706   2.696 -1.1292  0.3205 -0.3908
 6054TIP3    H242358   3.111   2.727   2.828  1.3885  0.7976  0.9516
 6055TIP3   OH242359   4.413   0.865   3.246 -0.2170 -0.1737 -0.1141
 6055TIP3    H142360   4.484   0.904   3.297 -0.3398 -0.1377  0.0311
 6055TIP3    H242361   4.448   0.860   3.157  0.3351 -1.0665  0.1366
 6056TIP3   OH242362   3.485   4.993   5.199  0.0075  0.0263 -0.4111
 6056TIP3    H142363   3.497   4.997   5.294 -2.2254  0.6625 -0.1055
 6056TIP3    H242364   3.539   5.065   5.165  0.6072 -0.0382  0.3788
 6057TIP3   OH242365   3.542   5.350   4.238 -0.1411  0.4475  0.1365
 6057TIP3    H142366   3.611   5.286   4.220 -0.6002 -0.2436  0.7788
 6057TIP3    H242367   3.463   5.309   4.202 -0.6049  0.2180  1.3908
 6058TIP3   OH242368   1.324   2.501   4.753  0.0709  0.1459 -0.4487
 6058TIP3    H142369   1.277   2.575   4.792 -1.2992 -0.1862 -1.4083
 6058TIP3    H242370   1.412   2.507   4.789 -0.9138  0.2537  2.1833
 6059TIP3   OH242371   6.520   1.201   2.556 -0.6875  0.0865  0.1965
 6059TIP3    H142372   6.535   1.107   2.548 -1.5158 -0.0251 -0.1119
 6059TIP3    H242373   6.608   1.239   2.556 -0.2921 -0.7666  1.4312
 6060TIP3   OH242374   1.603   1.061   2.299 -0.1146  0.1903 -0.0885
 6060TIP3    H142375   1.693   1.061   2.265 -1.1391 -1.1773 -3.2049
 6060TIP3    H242376   1.555   1.118   2.239 -1.5088  0.2283  1.0174
 6061TIP3   OH242377   0.758   0.696   3.556 -1.2198 -0.1669  0.4227
 6061TIP3    H142378   0.853   0.699   3.562 -1.0802 -0.7542 -1.1010
 6061TIP3    H242379   0.735   0.762   3.491 -1.7972 -0.5155  0.2660
 6062TIP3   OH242380   1.496   4.076   5.254 -0.0478 -0.0973  0.3176
 6062TIP3    H142381   1.436   4.123   5.196 -1.9348 -0.8275  1.5782
 6062TIP3    H242382   1.456   4.083   5.341  2.9024  1.3666  1.6985
 6063TIP3   OH242383   1.224   2.035   2.988  0.1993  0.6355  0.0530
 6063TIP3    H142384   1.180   1.952   3.007  0.8284  0.2456 -0.1716
 6063TIP3    H242385   1.307   2.030   3.036  0.5395  0.8421 -0.5042
 6064TIP3   OH242386   5.683   5.190   2.514 -0.2455 -0.0860  0.3553
 6064TIP3    H142387   5.618   5.129   2.479 -0.5056  0.4810 -0.1686
 6064TIP3    H242388   5.731   5.139   2.579  0.6726 -1.4119 -1.2714
 6065TIP3   OH242389   2.193   5.325   2.926 -0.3784  0.5595 -0.2811
 6065TIP3    H142390   2.102   5.353   2.932 -0.7046 -0.6692  1.0506
 6065TIP3    H242391   2.230   5.378   2.855 -2.4647  0.1092 -1.7863
 6066TIP3   OH242392   3.448   4.020   1.653 -0.2078  0.1748 -0.4650
 6066TIP3    H142393   3.403   4.071   1.586 -2.1113  1.2739  1.5204
 6066TIP3    H242394   3.443   4.074   1.732  1.0545 -1.4795  0.8245
 6067TIP3   OH242395   2.343   0.580   2.644 -0.0846  0.0207 -0.2290
 6067TIP3    H142396   2.417   0.523   2.628  1.2403  2.3279 -3.1203
 6067TIP3    H242397   2.378   0.651   2.699 -1.3319 -0.9861  2.0345
 6068TIP3   OH242398   3.788   2.578   4.417  0.2316 -0.3273  0.5891
 6068TIP3    H142399   3.779   2.592   4.511 -0.7789 -1.2123  0.6443
 6068TIP3    H242400   3.814   2.663   4.382  1.1543 -0.1180  1.7265
 6069TIP3   OH242401   5.523   4.977   2.447 -0.4879 -0.2356 -0.0633
 6069TIP3    H142402   5.567   4.892   2.447 -0.8553 -0.4392 -1.2752
 6069TIP3    H242403   5.437   4.959   2.486 -0.8573 -0.5938 -1.0160
 6070TIP3   OH242404   4.195   1.447   4.741 -0.1470 -0.2451 -0.0503
 6070TIP3    H142405   4.237   1.533   4.744 -0.6042  0.0207 -0.9589
 6070TIP3    H242406   4.168   1.430   4.831 -0.8217  0.9609 -0.0057
 6071TIP3   OH242407   0.517   5.162   4.411  0.1542 -0.7805  0.2366
 6071TIP3    H142408   0.568   5.089   4.375  1.8622  0.8847 -0.8914
 6071TIP3    H242409   0.464   5.193   4.337 -0.7129 -0.9725  0.7626
 6072TIP3   OH242410   3.912   1.496   1.925  0.1740  0.2172 -0.0711
 6072TIP3    H142411   3.882   1.508   2.015 -1.0392 -1.9088 -0.1303
 6072TIP3    H242412   3.843   1.533   1.871 -0.5540 -1.1520 -0.1331
 6073TIP3   OH242413   0.728   2.822   4.896  0.0808 -0.2768  0.1357
 6073TIP3    H142414   0.759   2.900   4.849 -1.3977 -0.1216 -0.6196
 6073TIP3    H242415   0.808   2.775   4.919  0.9963  1.2927  0.3316
 6074TIP3   OH242416   0.704   4.645   4.537 -0.6241  0.3901  0.4823
 6074TIP3    H142417   0.772   4.665   4.471 -1.3617  1.1171 -0.0830
 6074TIP3    H242418   0.730   4.696   4.613 -0.1679  0.1331  0.5030
 6075TIP3   OH242419   3.686   3.242   3.108 -0.3852  0.3179  0.0108
 6075TIP3    H142420   3.683   3.299   3.185 -0.0773  0.5833 -0.1676
 6075TIP3    H242421   3.780   3.231   3.090 -0.3828 -1.2816  0.7918
 6076TIP3   OH242422   6.139   5.192   3.886 -0.1389 -0.3081 -0.5183
 6076TIP3    H142423   6.107   5.264   3.941 -0.3007 -0.8672  0.1253
 6076TIP3    H242424   6.059   5.150   3.854 -0.1688  1.6730 -3.4949
 6077TIP3   OH242425   1.221   5.145   3.110 -0.0479 -0.1994  0.1179
 6077TIP3    H142426   1.253   5.235   3.111  0.1336 -0.2661  0.2259
 6077TIP3    H242427   1.220   5.119   3.202 -0.6677 -0.1073  0.1466
 6078TIP3   OH242428   0.664   1.589   4.601  0.2885 -0.2164  0.3765
 6078TIP3    H142429   0.599   1.602   4.532 -0.1625  1.4081  1.0604
 6078TIP3    H242430   0.644   1.504   4.638 -3.1545  1.2469  2.2698
 6079TIP3   OH242431   5.815   0.941   3.497  0.3088  0.3234 -0.1216
 6079TIP3    H142432   5.837   0.866   3.442  0.5630  0.4760 -0.2283
 6079TIP3    H242433   5.736   0.977   3.457  1.1548  1.1388 -1.0944
 6080TIP3   OH242434   6.148   2.191   4.038  0.3778 -0.0907 -0.2252
 6080TIP3    H142435   6.077   2.145   3.992  0.3422 -1.0103  0.7056
 6080TIP3    H242436   6.103   2.248   4.100  0.4207 -0.9607  0.6395
 6081TIP3   OH242437   3.072   0.228   4.180 -0.0137 -0.3405  0.1903
 6081TIP3    H142438   3.006   0.276   4.229  1.0458  1.5638 -0.1499
 6081TIP3    H242439   3.116   0.173   4.245  0.0801  0.6879  1.0198
 6082TIP3   OH242440   5.504   6.398   2.551  0.1385 -0.0600  0.5466
 6082TIP3    H142441   5.477   6.306   2.541 -0.4644  0.3243 -2.2180
 6082TIP3    H242442   5.579   6.407   2.492 -0.4935  1.4544 -0.0657
 6083TIP3   OH242443   2.680   2.243   3.754  0.3570 -0.1410  0.6276
 6083TIP3    H142444   2.716   2.220   3.668 -1.5469 -1.2462  0.0545
 6083TIP3    H242445   2.745   2.211   3.817  0.9722 -0.9305 -0.3724
 6084TIP3   OH242446   3.445   2.935   2.961  0.0718  0.2550 -0.0169
 6084TIP3    H142447   3.374   2.984   2.921 -1.1625 -0.8518  0.7454
 6084TIP3    H242448   3.439   2.847   2.923  0.4169 -0.1157  0.7594
 6085TIP3   OH242449   0.338   2.342   2.970  0.5078  0.2023 -0.7946
 6085TIP3    H142450   0.396   2.399   2.919 -0.4233  2.2744  0.3585
 6085TIP3    H242451   0.262   2.328   2.914  0.7544  0.0844 -1.0985
 6086TIP3   OH242452   3.649   1.056   3.572  0.2855  0.1132 -0.4796
 6086TIP3    H142453   3.624   1.110   3.497 -0.4002  0.1930 -0.2038
 6086TIP3    H242454   3.614   1.103   3.648 -1.2954 -1.2248 -0.3110
 6087TIP3   OH242455   1.239   3.038   2.847 -0.1412  0.3662  0.2354
 6087TIP3    H142456   1.176   2.988   2.899 -0.7281 -0.9666 -1.6285
 6087TIP3    H242457   1.224   3.129   2.871 -1.0097 -0.1324  1.6987
 6088TIP3   OH242458   5.291   2.466   3.672 -0.3540  0.4871 -0.4450
 6088TIP3    H142459   5.274   2.420   3.754 -2.3983  0.0345 -1.0768
 6088TIP3    H242460   5.308   2.556   3.698 -1.9697  0.5712  0.4348
 6089TIP3   OH242461   4.677   5.456   2.061 -0.5645  0.3183  0.0631
 6089TIP3    H142462   4.697   5.497   2.146 -1.3684  1.5826 -0.3337
 6089TIP3    H242463   4.594   5.494   2.035 -0.5191 -0.3571 -1.1232
 6090TIP3   OH242464   4.124   3.698   3.627  0.1361 -0.2550  0.1227
 6090TIP3    H142465   4.179   3.774   3.641  0.6506 -0.7311  0.7111
 6090TIP3    H242466   4.184   3.623   3.632 -0.4231 -0.7267 -0.0695
 6091TIP3   OH242467   3.333   5.605   3.255  0.0009 -0.1802  0.0720
 6091TIP3    H142468   3.374   5.537   3.202  0.5329  1.3281 -1.5433
 6091TIP3    H242469   3.245   5.613   3.220 -0.1485 -0.2190  0.4364
 6092TIP3   OH242470   1.146   0.735   5.036  0.1324  0.3000 -0.2092
 6092TIP3    H142471   1.213   0.799   5.058  0.7306 -0.3456 -0.1153
 6092TIP3    H242472   1.136   0.681   5.114 -1.9676  1.6090  0.5084
 6093TIP3   OH242473   3.650   5.455   4.966 -0.1611  0.0998 -0.0603
 6093TIP3    H142474   3.702   5.524   5.006 -0.0747 -0.1863  0.3306
 6093TIP3    H242475   3.571   5.499   4.936  0.6426  0.6901 -1.3839
 6094TIP3   OH242476   1.946   5.908   3.578  0.6994 -0.4369  0.2514
 6094TIP3    H142477   2.023   5.946   3.537 -0.0222  0.3130 -0.4499
 6094TIP3    H242478   1.876   5.919   3.513  0.2225 -2.0037  0.4728
 6095TIP3   OH242479   1.241   4.278   4.326  0.4144 -0.2960 -0.2283
 6095TIP3    H142480   1.270   4.198   4.369 -0.9905 -0.6058  0.1974
 6095TIP3    H242481   1.207   4.333   4.397 -0.3162 -0.0924 -0.7137
 6096TIP3   OH242482   0.457   6.699   3.443  0.2230  0.2373 -0.2462
 6096TIP3    H142483   0.511   6.674   3.519 -0.5761  3.6063  1.6297
 6096TIP3    H242484   0.515   6.687   3.368  1.7186 -1.4096  1.0520
 6097TIP3   OH242485   2.771   1.039   2.630  0.0182  0.0739  0.2815
 6097TIP3    H142486   2.790   0.948   2.607  0.2774 -0.0836  1.0772
 6097TIP3    H242487   2.856   1.082   2.630  0.1269 -0.0995  1.6056
 6098TIP3   OH242488   1.155   2.306   2.964  0.1496 -0.3854 -0.7569
 6098TIP3    H142489   1.209   2.351   3.029  0.0772 -0.4039 -0.6843
 6098TIP3    H242490   1.209   2.231   2.936 -0.3796 -1.1812  0.3053
 6099TIP3   OH242491   3.702   4.938   4.610 -0.9591 -0.6263 -0.4166
 6099TIP3    H142492   3.670   5.017   4.654  1.0303 -0.9516  1.8107
 6099TIP3    H242493   3.722   4.967   4.521 -1.2964  1.1085  0.0262
 6100TIP3   OH242494   3.108   3.700   2.519  0.1694 -0.1849  0.2161
 6100TIP3    H142495   3.113   3.614   2.563 -0.3403  0.9461  2.6532
 6100TIP3    H242496   3.128   3.681   2.428 -0.6623 -3.0245  0.5174
 6101TIP3   OH242497   4.005   6.469   4.786 -0.1481  1.0370 -0.4711
 6101TIP3    H142498   3.970   6.444   4.871  2.0517 -0.4954  0.0513
 6101TIP3    H242499   3.978   6.399   4.727 -1.5153  2.0061 -1.0404
 6102TIP3   OH242500   1.107   6.088   4.018 -0.1173 -0.0868 -0.0025
 6102TIP3    H142501   1.057   6.126   4.091 -0.2141 -0.5115  0.1557
 6102TIP3    H242502   1.095   5.994   4.028 -1.7872 -0.1237 -1.7273
 6103TIP3   OH242503   3.468   2.541   1.805 -0.3108 -0.0031 -0.6619
 6103TIP3    H142504   3.414   2.619   1.802  0.5072  0.5565 -1.7247
 6103TIP3    H242505   3.557   2.573   1.788 -0.0686 -1.2373 -1.8840
 6104TIP3   OH242506   6.699   6.076   4.175  0.1803  0.4677  0.2922
 6104TIP3    H142507   6.652   6.117   4.102  0.0466  0.4017  0.3392
 6104TIP3    H242508   6.655   6.109   4.254 -0.1310  0.0045  0.3231
 6105TIP3   OH242509   3.963   0.946   2.718 -0.1873 -0.3199  0.0877
 6105TIP3    H142510   3.898   0.974   2.783 -0.0776 -0.4532  0.2578
 6105TIP3    H242511   4.021   1.021   2.708 -0.1264 -0.3445  0.2465
 6106TIP3   OH242512   1.767   0.196   5.082 -0.4134  0.1829  0.0190
 6106TIP3    H142513   1.673   0.192   5.063 -0.0216  0.0314 -2.0330
 6106TIP3    H242514   1.783   0.116   5.133 -1.5591  0.7393  1.3201
 6107TIP3   OH242515   2.908   0.863   3.946  0.1812 -0.0292 -0.2792
 6107TIP3    H142516   2.988   0.855   3.998 -0.7040 -0.8757  0.9954
 6107TIP3    H242517   2.902   0.781   3.898 -1.0726 -0.9646  1.3735
 6108TIP3   OH242518   6.619   0.532   4.182  0.4893  0.3745  0.1284
 6108TIP3    H142519   6.607   0.533   4.087  0.0466  2.1788  0.1760
 6108TIP3    H242520   6.545   0.580   4.217  0.8375  0.0431  1.3822
 6109TIP3   OH242521   2.708   1.911   2.773 -0.4692 -0.1324 -0.6677
 6109TIP3    H142522   2.798   1.880   2.761  0.6240  3.1105 -1.7331
 6109TIP3    H242523   2.668   1.902   2.686 -1.1132 -1.1678 -0.2918
 6110TIP3   OH242524   5.075   6.412   1.742  0.1344 -0.3998 -0.5910
 6110TIP3    H142525   5.122   6.338   1.782 -0.9984 -1.7856 -1.7117
 6110TIP3    H242526   5.079   6.395   1.648 -2.6317 -0.6511 -0.7509
 6111TIP3   OH242527   3.003   2.346   2.476  0.3701  0.3284 -0.3471
 6111TIP3    H142528   2.963   2.430   2.498  0.6729  0.8358 -1.6346
 6111TIP3    H242529   3.067   2.367   2.408  0.4323 -0.9515 -0.7121
 6112TIP3   OH242530   2.902   3.693   4.887  0.0593  0.4451 -0.3475
 6112TIP3    H142531   2.979   3.637   4.881  0.5449  1.1318 -0.6499
 6112TIP3    H242532   2.873   3.704   4.796 -0.0736  0.6245 -0.2849
 6113TIP3   OH242533   5.439   4.833   4.906  0.0060 -0.2425  0.1350
 6113TIP3    H142534   5.350   4.849   4.877  0.5999 -0.9640 -2.3806
 6113TIP3    H242535   5.445   4.876   4.991 -2.1103  1.6425 -0.5668
 6114TIP3   OH242536   4.798   4.988   2.860  0.7568 -0.1906 -0.6329
 6114TIP3    H142537   4.789   5.078   2.890 -0.8747 -0.9199  1.3073
 6114TIP3    H242538   4.789   4.935   2.939  3.0546 -2.0610 -1.5141
 6115TIP3   OH242539   2.299   2.352   3.392  0.0322 -0.4227 -0.5980
 6115TIP3    H142540   2.294   2.288   3.463  1.5472 -0.0377 -0.1040
 6115TIP3    H242541   2.247   2.426   3.422  1.5580  0.2003  0.6651
 6116TIP3   OH242542   3.505   1.377   2.795 -0.0760  0.1712 -0.2081
 6116TIP3    H142543   3.514   1.472   2.794  3.1174  0.0353 -2.8591
 6116TIP3    H242544   3.478   1.354   2.706  0.4774 -1.4301 -0.0007
 6117TIP3   OH242545   3.680   0.316   3.571 -0.0019  0.4800  0.0914
 6117TIP3    H142546   3.712   0.263   3.498  0.5220  2.1520 -0.9451
 6117TIP3    H242547   3.641   0.393   3.530 -2.4679  0.0783  1.4723
 6118TIP3   OH242548   1.739   0.802   4.044  0.1640 -0.0110  0.0524
 6118TIP3    H142549   1.679   0.732   4.071  0.3332  0.4239  1.6297
 6118TIP3    H242550   1.692   0.883   4.062  1.5616  0.3806  2.3889
 6119TIP3   OH242551   3.481   5.390   4.502 -0.5971  0.3968 -0.2425
 6119TIP3    H142552   3.404   5.445   4.510 -0.7693  0.2419 -0.7928
 6119TIP3    H242553   3.497   5.385   4.407  0.6586  1.2254 -0.1003
 6120TIP3   OH242554   1.071   3.300   4.712  0.0396  0.3782 -0.5753
 6120TIP3    H142555   1.023   3.377   4.743  0.0755  0.0619  0.2634
 6120TIP3    H242556   1.057   3.234   4.779  0.8872 -0.0171 -0.7796
 6121TIP3   OH242557   1.633   6.099   2.859 -0.0418 -0.1269  0.6022
 6121TIP3    H142558   1.649   6.119   2.951 -0.4216 -2.0043  1.1336
 6121TIP3    H242559   1.701   6.147   2.811 -0.6160  1.8736  1.7239
 6122TIP3   OH242560   5.701   1.927   2.163 -0.1580 -0.3521  0.0895
 6122TIP3    H142561   5.607   1.928   2.180 -0.5120 -1.0303 -1.6075
 6122TIP3    H242562   5.715   1.997   2.099  0.3534 -0.7289 -0.2287
 6123TIP3   OH242563   1.608   6.554   4.843  0.1188  0.3158 -0.5507
 6123TIP3    H142564   1.604   6.647   4.863 -1.3053  0.2908 -0.5994
 6123TIP3    H242565   1.611   6.510   4.928 -0.3364  0.3884 -0.4917
 6124TIP3   OH242566   1.586   0.928   5.335  0.0775  0.2009  0.3449
 6124TIP3    H142567   1.577   0.982   5.413  1.5506  0.7810  0.1601
 6124TIP3    H242568   1.681   0.915   5.327 -0.1151 -0.5867 -0.8444
 6125TIP3   OH242569   2.197   4.092   4.771 -0.2255 -0.0102 -0.1138
 6125TIP3    H142570   2.282   4.088   4.814 -0.0817 -2.4086 -0.4953
 6125TIP3    H242571   2.139   4.134   4.835  0.8764  0.2160  0.7584
 6126TIP3   OH242572   6.059   2.985   3.744  0.2266 -0.1841 -0.0511
 6126TIP3    H142573   5.963   2.984   3.740  0.1895 -0.0839  0.7119
 6126TIP3    H242574   6.086   2.941   3.663 -0.4491  0.3313 -0.5706
 6127TIP3   OH242575   4.057   2.458   3.231 -0.2306 -0.5024  0.2214
 6127TIP3    H142576   4.150   2.478   3.247 -0.3638  0.3633 -0.0366
 6127TIP3    H242577   4.032   2.515   3.159 -0.7266 -1.4179 -0.3539
 6128TIP3   OH242578   1.428   2.113   3.828 -0.6390 -0.2563 -1.0301
 6128TIP3    H142579   1.456   2.118   3.737  0.0126  1.2339 -0.7919
 6128TIP3    H242580   1.366   2.185   3.838 -0.0940  0.1130 -0.1283
 6129TIP3   OH242581   1.668   4.701   2.494  0.2050 -0.1902  0.3262
 6129TIP3    H142582   1.675   4.756   2.572  1.4687 -0.8017  0.6698
 6129TIP3    H242583   1.577   4.712   2.465 -0.4982 -0.4666  2.2746
 6130TIP3   OH242584   1.360   2.895   3.634  0.6831  0.6295  0.4899
 6130TIP3    H142585   1.323   2.882   3.721  1.2632  0.3718  0.7082
 6130TIP3    H242586   1.452   2.917   3.651  0.2562  3.0447  0.0482
 6131TIP3   OH242587   4.398   1.114   4.121  0.3196 -0.1343  0.0655
 6131TIP3    H142588   4.434   1.116   4.210 -0.4468 -1.9900  0.4781
 6131TIP3    H242589   4.332   1.044   4.124 -1.3991  1.3118 -1.3654
 6132TIP3   OH242590   5.402   1.483   3.452 -0.6373 -0.0680 -0.0828
 6132TIP3    H142591   5.323   1.430   3.461 -0.9458  0.3168 -0.4680
 6132TIP3    H242592   5.435   1.463   3.365 -0.4602 -0.0259 -0.0247
 6133TIP3   OH242593   1.745   4.045   4.835  0.0429 -0.3591  0.3156
 6133TIP3    H142594   1.767   4.101   4.909 -1.0052 -2.9925  2.8573
 6133TIP3    H242595   1.803   3.969   4.844 -0.0573 -0.7277 -1.6577
 6134TIP3   OH242596   4.473   2.798   2.262  0.3513 -0.3209 -0.4923
 6134TIP3    H142597   4.424   2.721   2.234 -2.2187  1.1533 -0.3657
 6134TIP3    H242598   4.409   2.853   2.306  2.3855  1.3223  0.6295
 6135TIP3   OH242599   1.931   0.863   2.516  0.3649  0.0400  0.3529
 6135TIP3    H142600   2.006   0.852   2.576 -0.1350 -0.1612  0.9470
 6135TIP3    H242601   1.863   0.806   2.552 -0.5713  1.3146  0.6471
 6136TIP3   OH242602   1.891   3.417   3.521  0.0956 -0.1215  0.5156
 6136TIP3    H142603   1.797   3.433   3.523 -0.1016 -0.7588 -1.6309
 6136TIP3    H242604   1.926   3.485   3.464  1.3776  1.7156  3.2700
 6137TIP3   OH242605   2.045   6.684   1.977  0.1698 -0.0608 -0.1601
 6137TIP3    H142606   2.080   6.599   1.954  0.1211  0.1414 -1.0303
 6137TIP3    H242607   2.093   6.711   2.055  1.0681 -0.3267 -0.6201
 6138TIP3   OH242608   4.421   3.122   2.601  0.0574 -0.1036  0.5559
 6138TIP3    H142609   4.515   3.119   2.588 -0.1765 -1.2948 -1.1779
 6138TIP3    H242610   4.405   3.206   2.643  1.8785  0.0897  0.9435
 6139TIP3   OH242611   5.434   1.900   2.248 -0.1100 -0.3550  0.3740
 6139TIP3    H142612   5.383   1.979   2.234 -0.5687 -1.0623 -2.7281
 6139TIP3    H242613   5.395   1.859   2.325 -1.1751  1.4150  0.8174
 6140TIP3   OH242614   3.163   1.754   4.630  0.4130 -0.1281 -0.2662
 6140TIP3    H142615   3.175   1.726   4.720 -1.3258  0.6551  0.2432
 6140TIP3    H242616   3.128   1.843   4.637 -0.3515 -0.2905 -1.6872
 6141TIP3   OH242617   2.364   4.651   5.086  0.5843 -0.2587  0.4038
 6141TIP3    H142618   2.421   4.603   5.146  0.3464 -0.2943  0.6049
 6141TIP3    H242619   2.282   4.663   5.135  0.8703  0.9385  0.6033
 6142TIP3   OH242620   3.598   1.936   3.393 -0.9030  0.2903 -0.3671
 6142TIP3    H142621   3.574   1.844   3.403 -0.2449  0.1902  0.4108
 6142TIP3    H242622   3.656   1.954   3.467  0.4771  0.8378 -1.5296
 6143TIP3   OH242623   4.864   4.986   5.086  0.1596  0.1303 -0.1887
 6143TIP3    H142624   4.928   5.001   5.155  0.5972  0.9405 -0.7448
 6143TIP3    H242625   4.884   4.898   5.053  1.0701  0.4189 -0.4359
 6144TIP3   OH242626   1.896   3.809   4.883 -0.0868 -0.1737  0.0862
 6144TIP3    H142627   1.986   3.822   4.914 -0.1510 -1.1180  0.6931
 6144TIP3    H242628   1.898   3.723   4.841 -0.5743  0.0630 -0.4270
 6145TIP3   OH242629   2.681   6.111   2.482 -0.1823  0.1253  0.1286
 6145TIP3    H142630   2.606   6.160   2.449 -0.1652 -0.3861 -0.7017
 6145TIP3    H242631   2.750   6.177   2.491 -0.5620  0.4963  0.3567
 6146TIP3   OH242632   6.159   2.248   3.243  0.7174 -0.7948 -0.4013
 6146TIP3    H142633   6.124   2.188   3.177 -2.5499  0.1970  0.2467
 6146TIP3    H242634   6.202   2.192   3.307  0.0442 -2.2092 -1.1403
 6147TIP3   OH242635   4.358   3.309   3.222  0.2133  0.2677 -0.6907
 6147TIP3    H142636   4.377   3.218   3.202 -0.4924  0.1327 -0.7661
 6147TIP3    H242637   4.316   3.343   3.142 -2.9224 -0.3578  0.5227
 6148TIP3   OH242638   4.112   0.996   2.178 -0.1202 -0.2105 -0.1244
 6148TIP3    H142639   4.070   0.915   2.150 -2.9260  0.8334  0.7317
 6148TIP3    H242640   4.069   1.064   2.126  0.6593  0.9373  0.6891
 6149TIP3   OH242641   3.461   5.689   3.919 -0.1414  0.3319 -0.2816
 6149TIP3    H142642   3.420   5.714   3.837  0.1294 -1.7022 -1.0884
 6149TIP3    H242643   3.397   5.631   3.961  0.5761 -0.3290 -0.0722
 6150TIP3   OH242644   5.685   0.957   2.701  0.2467  0.4011  0.3671
 6150TIP3    H142645   5.616   0.898   2.670 -0.0691  1.3364 -0.7601
 6150TIP3    H242646   5.731   0.984   2.622  0.6051  1.3861  0.8943
 6151TIP3   OH242647   2.835   3.832   4.132 -0.0726  0.2295 -0.0072
 6151TIP3    H142648   2.763   3.896   4.128 -0.4391  0.1448  3.1916
 6151TIP3    H242649   2.915   3.886   4.130 -0.3719  0.8134  2.0183
 6152TIP3   OH242650   1.387   0.349   1.962 -0.2330  0.0365  0.6464
 6152TIP3    H142651   1.424   0.390   1.884  1.1358 -1.5024  0.4186
 6152TIP3    H242652   1.388   0.255   1.941 -1.9490 -0.2529  1.6590
 6153TIP3   OH242653   5.187   4.735   2.381  0.2178  0.5898  0.0586
 6153TIP3    H142654   5.221   4.803   2.439  0.2798  3.4116 -2.9918
 6153TIP3    H242655   5.137   4.782   2.315 -1.0031 -2.5295 -1.4573
 6154TIP3   OH242656   0.740   0.740   2.648 -0.5113 -0.8290 -0.8606
 6154TIP3    H142657   0.734   0.667   2.709  0.4464  0.1629  0.4921
 6154TIP3    H242658   0.818   0.722   2.596 -0.9175 -1.3155 -1.3098
 6155TIP3   OH242659   0.312   3.916   2.314 -0.7467  0.0161  0.2732
 6155TIP3    H142660   0.399   3.911   2.276 -0.8254  1.7463 -0.2213
 6155TIP3    H242661   0.322   3.975   2.389 -1.7248  1.4356 -0.6469
 6156TIP3   OH242662   5.152   6.513   2.721  0.0596  0.7786  0.2322
 6156TIP3    H142663   5.142   6.447   2.652  0.4358  0.2588  0.6625
 6156TIP3    H242664   5.097   6.586   2.692 -0.5919  0.1711 -0.1225
 6157TIP3   OH242665   1.599   1.556   2.526  0.0435 -0.0509  0.4403
 6157TIP3    H142666   1.607   1.465   2.555 -0.1438  0.2209  1.3599
 6157TIP3    H242667   1.606   1.608   2.606  2.3249  0.8756 -0.2698
 6158TIP3   OH242668   4.418   5.576   2.201  0.6496 -0.2362 -0.1071
 6158TIP3    H142669   4.446   5.594   2.112 -1.0149  0.4163 -0.5317
 6158TIP3    H242670   4.462   5.643   2.254  1.3942 -0.4344 -0.4521
 6159TIP3   OH242671   1.977   0.335   2.642 -0.6739  0.2048 -0.2569
 6159TIP3    H142672   1.913   0.286   2.590 -0.1014 -0.2144 -0.5755
 6159TIP3    H242673   1.948   0.426   2.635 -0.0527  0.2903 -2.1479
 6160TIP3   OH242674   3.113   4.283   2.027  0.7712  0.9815 -0.5723
 6160TIP3    H142675   3.111   4.378   2.018 -2.5066  1.1816  0.6097
 6160TIP3    H242676   3.153   4.267   2.112  0.9623  1.3385 -0.5965
 6161TIP3   OH242677   4.924   0.446   4.188  0.3568 -0.3664  0.0366
 6161TIP3    H142678   4.976   0.374   4.223 -1.1450 -0.8084  1.5359
 6161TIP3    H242679   4.928   0.436   4.093  2.4824 -0.7035  0.1196
 6162TIP3   OH242680   6.011   2.398   4.179  0.2711 -0.0279  0.7029
 6162TIP3    H142681   5.947   2.470   4.182  0.0101 -0.2547  0.6123
 6162TIP3    H242682   6.096   2.442   4.176  0.0743  0.3906 -2.3246
 6163TIP3   OH242683   5.542   5.655   2.739 -0.1141  0.5257 -0.1851
 6163TIP3    H142684   5.528   5.566   2.709 -1.0291  0.9718 -1.1609
 6163TIP3    H242685   5.633   5.657   2.769 -0.5086 -1.1068  1.2747
 6164TIP3   OH242686   3.478   5.979   3.381 -0.4490  0.2352 -0.0125
 6164TIP3    H142687   3.551   5.920   3.362  0.3268  1.1199  0.1036
 6164TIP3    H242688   3.443   5.949   3.464  1.3073  1.1896  1.1419
 6165TIP3   OH242689   1.772   0.481   3.668  0.5421  1.0403  0.2010
 6165TIP3    H142690   1.754   0.575   3.678 -0.5722  0.7596  0.9596
 6165TIP3    H242691   1.714   0.438   3.731  0.7103 -0.1936 -0.4513
 6166TIP3   OH242692   4.368   6.407   4.592  0.4876  0.0531  0.6563
 6166TIP3    H142693   4.445   6.451   4.557 -0.0866  1.1903  0.7671
 6166TIP3    H242694   4.295   6.444   4.543 -0.0200 -0.7488  0.7936
 6167TIP3   OH242695   4.419   5.336   2.334 -0.1283  0.2870 -0.4669
 6167TIP3    H142696   4.408   5.399   2.263  0.3991  0.9699  0.0473
 6167TIP3    H242697   4.510   5.347   2.362 -0.8861  1.5022  1.6968
 6168TIP3   OH242698   4.567   1.143   4.764 -0.0718  0.2354 -0.0770
 6168TIP3    H142699   4.646   1.125   4.712  0.3791 -0.5760  0.8550
 6168TIP3    H242700   4.548   1.235   4.748  0.8574  0.3436 -0.6107
 6169TIP3   OH242701   6.734   5.555  11.090  0.2645  0.3067  0.2128
 6169TIP3    H142702   6.722   5.506  11.171  0.5060  1.2575  0.8398
 6169TIP3    H242703   6.733   5.488  11.021 -0.5524 -0.4527  0.9353
 6170TIP3   OH242704   3.546   2.026   4.262 -0.5855  0.0364 -0.0818
 6170TIP3    H142705   3.605   1.980   4.203 -1.1920 -0.6521 -0.1624
 6170TIP3    H242706   3.601   2.093   4.303  0.8872 -2.0666  1.5987
 6171TIP3   OH242707   1.629   0.383   2.712 -0.0833 -0.5432  0.0048
 6171TIP3    H142708   1.577   0.450   2.756 -1.5487 -1.3050 -0.5055
 6171TIP3    H242709   1.671   0.335   2.784  1.0274  0.8898  0.3755
 6172TIP3   OH242710   3.687   1.614   4.559  0.5155  0.3405  0.0444
 6172TIP3    H142711   3.771   1.643   4.594  0.4615 -2.0987  2.6633
 6172TIP3    H242712   3.628   1.615   4.635 -1.5461  0.9371 -1.4714
 6173TIP3   OH242713   2.900   1.052   4.858 -0.6109 -0.0820 -0.6997
 6173TIP3    H142714   2.861   1.049   4.946  0.4121 -1.6700 -0.2689
 6173TIP3    H242715   2.834   1.012   4.802 -0.8698  0.0561 -0.5013
 6174TIP3   OH242716   5.267   0.096   4.736  0.1190  0.2272  0.2803
 6174TIP3    H142717   5.311   0.145   4.806  1.3196  1.2728 -1.1392
 6174TIP3    H242718   5.175   0.119   4.745  0.2833  0.5027  1.3875
 6175TIP3   OH242719   0.724   3.230   3.391 -0.3771 -0.5192 -0.5665
 6175TIP3    H142720   0.813   3.213   3.361 -0.1593  1.4729 -1.2363
 6175TIP3    H242721   0.699   3.312   3.347 -2.2285 -0.5829  0.2513
 6176TIP3   OH242722   1.208   1.601   4.175 -0.0097  0.2156 -0.0828
 6176TIP3    H142723   1.186   1.619   4.267 -2.1120  0.3161 -0.5457
 6176TIP3    H242724   1.175   1.678   4.128 -1.3341 -0.9839 -1.1734
 6177TIP3   OH242725   5.933   5.457   1.815  0.6521 -0.0074  0.3373
 6177TIP3    H142726   5.992   5.444   1.741  2.1595  1.4905  1.2215
 6177TIP3    H242727   5.947   5.380   1.870 -0.0018 -0.8120 -0.5739
 6178TIP3   OH242728   5.201   6.066   4.022 -0.0490 -0.1850 -0.3327
 6178TIP3    H142729   5.279   6.119   4.037 -1.0840  1.0990  0.7370
 6178TIP3    H242730   5.235   5.977   4.009  1.5311  0.0751  1.5312
 6179TIP3   OH242731   2.446   5.262   2.368 -0.0327  0.5863  0.2578
 6179TIP3    H142732   2.371   5.228   2.416 -0.6205  0.7993 -0.4848
 6179TIP3    H242733   2.467   5.345   2.411 -0.7879  0.9554 -0.0604
 6180TIP3   OH242734   5.188   3.400   2.058 -0.0585 -0.0840 -0.6891
 6180TIP3    H142735   5.182   3.489   2.023  0.7409  0.3797  0.3148
 6180TIP3    H242736   5.136   3.402   2.138  1.9493  0.2200  0.7000
 6181TIP3   OH242737   3.455   2.672   2.846 -0.2819 -0.4183  0.4437
 6181TIP3    H142738   3.466   2.659   2.752  0.3455 -2.0250  0.7031
 6181TIP3    H242739   3.373   2.626   2.867 -0.8765  0.6619  0.5700
 6182TIP3   OH242740   0.342   3.014   3.414 -0.5133  0.5481 -0.2340
 6182TIP3    H142741   0.386   2.979   3.492 -0.2819  1.8490  0.2449
 6182TIP3    H242742   0.300   3.094   3.444 -0.5867  0.9747 -1.4134
 6183TIP3   OH242743   2.928   4.751   3.030 -0.0427  0.6079  0.0081
 6183TIP3    H142744   2.913   4.720   2.941 -1.6169  0.9300  0.1257
 6183TIP3    H242745   3.018   4.784   3.030  0.2693 -0.2033 -1.2094
 6184TIP3   OH242746   5.658   6.737   2.388  0.2230 -0.3331 -0.2464
 6184TIP3    H142747   5.663   6.698   2.301 -3.2390 -2.2479  0.2195
 6184TIP3    H242748   5.706   6.676   2.445  0.2142 -0.4977 -0.4162
 6185TIP3   OH242749   1.574   4.188   2.685 -0.4185 -0.5526 -0.1203
 6185TIP3    H142750   1.531   4.158   2.765 -0.6459 -2.3008 -0.8505
 6185TIP3    H242751   1.647   4.242   2.715 -2.1312  1.1590  1.1802
 6186TIP3   OH242752   2.011   3.454   2.516  0.0714  0.3386  0.5430
 6186TIP3    H142753   2.055   3.539   2.511  0.6363  0.3282  3.4562
 6186TIP3    H242754   1.919   3.475   2.531 -0.0220  0.3949 -0.0691
 6187TIP3   OH242755   2.650   1.516   1.977 -0.0815 -0.4213  0.2905
 6187TIP3    H142756   2.615   1.464   2.049  1.2263 -0.4196  0.9566
 6187TIP3    H242757   2.745   1.511   1.987  0.1133  0.3323 -0.9035
 6188TIP3   OH242758   6.425   3.389   5.935 -0.1444 -0.1951  0.5231
 6188TIP3    H142759   6.424   3.295   5.953  1.9532 -0.0485  1.8512
 6188TIP3    H242760   6.463   3.396   5.848  1.4081 -0.5904  1.1189
 6189TIP3   OH242761   5.906   5.126   2.664 -0.0216 -0.6513  0.6735
 6189TIP3    H142762   5.980   5.068   2.678  2.1515  1.7646  0.0237
 6189TIP3    H242763   5.945   5.210   2.639 -2.9670  0.9474  0.8959
 6190TIP3   OH242764   6.171   1.480   4.062  0.4022 -0.1577 -0.0403
 6190TIP3    H142765   6.228   1.519   4.129 -0.6507 -0.2528  0.9331
 6190TIP3    H242766   6.223   1.409   4.025  1.8151  1.2251 -0.8497
 6191TIP3   OH242767   3.257   5.685   3.732  0.0619 -0.1200 -0.3687
 6191TIP3    H142768   3.166   5.712   3.737 -0.2926 -1.2992 -0.1171
 6191TIP3    H242769   3.259   5.619   3.662  0.5737 -0.6456  0.1281
 6192TIP3   OH242770   5.668   5.990   3.281  0.0906 -0.0884 -0.1933
 6192TIP3    H142771   5.706   5.960   3.199  0.9302  0.9441 -0.2086
 6192TIP3    H242772   5.739   5.980   3.345 -0.6045 -1.0357  0.4530
 6193TIP3   OH242773   4.287   4.868   4.671  0.0757 -0.1877  0.0342
 6193TIP3    H142774   4.198   4.890   4.699  0.1682 -0.1653  0.3138
 6193TIP3    H242775   4.298   4.777   4.697  0.3720  0.0069  0.6206
 6194TIP3   OH242776   5.608   3.238   3.726 -0.0218 -0.5013 -0.0157
 6194TIP3    H142777   5.517   3.215   3.712 -0.6215  0.6801  1.6595
 6194TIP3    H242778   5.607   3.296   3.802  2.0277  0.2672 -0.5038
 6195TIP3   OH242779   4.044   0.506   3.586 -0.7853  0.5588  0.6621
 6195TIP3    H142780   4.066   0.555   3.507  1.9937  1.6722  1.9917
 6195TIP3    H242781   4.049   0.570   3.656 -2.1961 -0.6116  1.8906
 6196TIP3   OH242782   1.078   1.557   2.643 -0.2191  0.1426  0.1724
 6196TIP3    H142783   1.158   1.520   2.606 -0.1553 -0.0534  0.4999
 6196TIP3    H242784   1.032   1.481   2.680  0.4169  0.5213  1.7953
 6197TIP3   OH242785   5.767   6.234   3.560  0.0273  0.2878 -0.3030
 6197TIP3    H142786   5.842   6.225   3.619 -0.9747 -1.0562  0.8596
 6197TIP3    H242787   5.804   6.262   3.476  2.0368 -1.8610 -0.2204
 6198TIP3   OH242788   3.150   0.187   3.097 -0.2387 -0.0949 -0.0420
 6198TIP3    H142789   3.223   0.228   3.143  0.1619 -1.4781  0.6020
 6198TIP3    H242790   3.098   0.261   3.066  1.5202  0.9401 -0.6985
 6199TIP3   OH242791   1.641   6.762   3.904  0.5420 -0.0717  0.1188
 6199TIP3    H142792   1.699   6.729   3.835 -0.7210 -1.1068 -0.4940
 6199TIP3    H242793   1.688   6.837   3.941  2.4347 -1.0973 -0.0807
 6200TIP3   OH242794   4.780   5.239   2.994 -0.6475 -0.2134 -0.2985
 6200TIP3    H142795   4.799   5.315   3.049 -0.0627 -0.9854  0.6025
 6200TIP3    H242796   4.804   5.164   3.048 -0.2212 -1.0108 -1.5529
 6201TIP3   OH242797   4.467   3.334   4.232  0.4289 -0.2984 -0.2405
 6201TIP3    H142798   4.471   3.421   4.272 -0.7995 -0.1605 -0.3951
 6201TIP3    H242799   4.522   3.341   4.155 -0.4401  0.6547 -0.8051
 6202TIP3   OH242800   5.919   6.736   5.471 -0.0813 -0.2634  0.0336
 6202TIP3    H142801   5.886   6.740   5.561  0.6266 -0.1620  0.2948
 6202TIP3    H242802   5.867   6.667   5.430 -0.4726 -0.2493  0.4920
 6203TIP3   OH242803   3.726   2.925   3.771 -0.2018  0.3298  0.2282
 6203TIP3    H142804   3.703   2.850   3.716 -1.4313 -0.8436  2.2093
 6203TIP3    H242805   3.806   2.899   3.816  0.8463  1.3190 -0.9826
 6204TIP3   OH242806   6.519   4.459   3.824  0.2407 -0.2465  0.0599
 6204TIP3    H142807   6.477   4.463   3.909 -0.0445  1.3103 -0.1240
 6204TIP3    H242808   6.613   4.471   3.842  0.1254  0.6280  0.1328
 6205TIP3   OH242809   5.825   2.211   3.078 -0.1174 -0.1752 -0.1504
 6205TIP3    H142810   5.777   2.211   2.995 -1.3561 -1.1495  0.5380
 6205TIP3    H242811   5.906   2.163   3.059  0.0083  0.3424 -0.9937
 6206TIP3   OH242812   0.457   3.179   4.497  0.4586  0.0749  0.3108
 6206TIP3    H142813   0.540   3.208   4.460  0.5129 -1.9210 -1.3221
 6206TIP3    H242814   0.409   3.260   4.517  1.5460  1.2592 -1.6397
 6207TIP3   OH242815   6.226   0.799   2.588  0.0473 -0.1817 -0.0744
 6207TIP3    H142816   6.229   0.703   2.592  1.7177 -0.1566 -0.0847
 6207TIP3    H242817   6.206   0.819   2.497  0.6054 -0.5343 -0.2816
 6208TIP3   OH242818   4.379   6.144   5.817  0.2816  0.2170 -0.1789
 6208TIP3    H142819   4.465   6.172   5.848  0.5221 -0.0156 -0.6186
 6208TIP3    H242820   4.376   6.050   5.835 -0.0580  0.3072  0.2382
 6209TIP3   OH242821   3.667   0.282   5.270  0.0332 -0.0882 -0.4931
 6209TIP3    H142822   3.584   0.273   5.223  0.1830 -1.9098 -0.4787
 6209TIP3    H242823   3.733   0.267   5.203  0.2797 -1.1480 -0.0327
 6210TIP3   OH242824   0.529   1.275   2.565  0.2810 -0.2090 -0.0985
 6210TIP3    H142825   0.514   1.187   2.531  0.4112 -0.2605 -0.0227
 6210TIP3    H242826   0.477   1.332   2.509  1.9166 -0.0856 -1.5712
 6211TIP3   OH242827   1.053   1.791   4.039  0.3027 -0.1238  0.2307
 6211TIP3    H142828   1.038   1.743   3.957  0.1202 -0.7894  0.6469
 6211TIP3    H242829   0.985   1.759   4.098  0.4215  0.3721  0.6346
 6212TIP3   OH242830   0.795   5.033   3.640 -0.0747 -0.1588 -0.5654
 6212TIP3    H142831   0.877   5.069   3.675  2.0911 -2.6520 -2.6864
 6212TIP3    H242832   0.768   4.969   3.706 -0.6404  0.9843  0.3571
 6213TIP3   OH242833   6.097   3.695   2.670 -0.1074 -0.2802 -0.1864
 6213TIP3    H142834   6.172   3.718   2.614 -1.0835  0.7291 -1.1230
 6213TIP3    H242835   6.093   3.600   2.667  1.3161 -0.3682  0.1117
 6214TIP3   OH242836   3.143   3.042   4.167  0.3323 -0.4422 -0.0325
 6214TIP3    H142837   3.060   3.001   4.190 -0.1255  0.7267  0.4712
 6214TIP3    H242838   3.199   2.969   4.138  0.1506 -1.6842  2.4969
 6215TIP3   OH242839   6.533   2.672   5.313 -0.1448 -0.1739 -0.0784
 6215TIP3    H142840   6.537   2.587   5.269  0.0719 -1.4067  2.1925
 6215TIP3    H242841   6.608   2.720   5.280  0.6031 -1.4487 -0.3105
 6216TIP3   OH242842   2.039   3.754   5.327 -0.2618 -0.0179  0.5994
 6216TIP3    H142843   2.074   3.811   5.258  0.3044 -1.4284 -0.3154
 6216TIP3    H242844   1.952   3.729   5.296 -0.6681  0.5945  1.1814
 6217TIP3   OH242845   3.232   3.286   4.945 -0.0826 -0.2923 -0.0863
 6217TIP3    H142846   3.285   3.339   4.885 -0.0980 -0.9972 -0.7441
 6217TIP3    H242847   3.246   3.325   5.031  1.8055 -0.6638 -0.1814
 6218TIP3   OH242848   5.035   3.225   4.400 -0.2928  0.0676 -0.3179
 6218TIP3    H142849   5.121   3.249   4.433 -0.9362  0.1192  1.4741
 6218TIP3    H242850   4.982   3.304   4.413 -0.7991 -0.2095 -0.6696
 6219TIP3   OH242851   0.895   1.205   2.460  0.1629 -0.5570 -0.1012
 6219TIP3    H142852   0.954   1.129   2.468  0.9215  0.1418  1.4136
 6219TIP3    H242853   0.866   1.221   2.550  0.0060  0.9285 -0.4035
 6220TIP3   OH242854   2.105   2.297   4.585 -0.6204 -0.5634  0.2491
 6220TIP3    H142855   2.100   2.223   4.524 -1.4199 -0.6454  0.3979
 6220TIP3    H242856   2.143   2.260   4.665  0.8855 -0.3459 -0.3476
 6221TIP3   OH242857   5.527   2.637   2.926  0.1870 -0.0909 -0.2274
 6221TIP3    H142858   5.453   2.687   2.891  1.1227  0.6102 -1.2772
 6221TIP3    H242859   5.549   2.682   3.008 -0.8695 -0.6428  0.3901
 6222TIP3   OH242860   3.240   6.336   3.792  0.0224  1.0597  0.3562
 6222TIP3    H142861   3.317   6.320   3.738 -0.7414 -0.2160 -0.4147
 6222TIP3    H242862   3.172   6.364   3.730 -0.3826  1.3332  0.9068
 6223TIP3   OH242863   2.719   1.854   3.616  0.2578  0.0646  0.1478
 6223TIP3    H142864   2.705   1.906   3.537 -1.0919 -0.1823  0.1987
 6223TIP3    H242865   2.734   1.765   3.583  0.2304  0.0643  0.1352
 6224TIP3   OH242866   4.286   3.896   2.013  0.7675  0.1051 -0.0810
 6224TIP3    H142867   4.266   3.987   2.034 -2.8266 -0.5349 -0.2131
 6224TIP3    H242868   4.336   3.864   2.088  1.3397  1.9052  0.3413
 6225TIP3   OH242869   2.968   4.274   4.725  0.5365  0.0251  0.0333
 6225TIP3    H142870   2.992   4.235   4.641  1.4099  0.3230  0.1357
 6225TIP3    H242871   3.037   4.246   4.785  0.2298  0.2971  0.5198
 6226TIP3   OH242872   0.852   3.008   4.450 -1.0487 -0.2566  0.2119
 6226TIP3    H142873   0.812   2.932   4.407 -1.7571  0.1674  0.1156
 6226TIP3    H242874   0.925   3.032   4.392  0.2178 -1.8247  1.0488
 6227TIP3   OH242875   0.254   6.232   1.683  0.4354  0.1073  0.2373
 6227TIP3    H142876   0.203   6.228   1.602  0.7239  0.0463  0.0570
 6227TIP3    H242877   0.318   6.162   1.674  0.1346 -0.2372  0.7501
 6228TIP3   OH242878   1.946   4.874   2.504 -0.2109 -0.3565 -0.2604
 6228TIP3    H142879   1.980   4.789   2.534 -2.0636 -1.3370 -0.7869
 6228TIP3    H242880   1.860   4.854   2.467 -0.2969  1.6304 -1.2676
 6229TIP3   OH242881   4.624   2.164   2.130 -0.2881 -0.1197  0.0830
 6229TIP3    H142882   4.600   2.129   2.216 -1.1000 -2.5577 -1.0516
 6229TIP3    H242883   4.610   2.091   2.069 -2.7868  2.3477 -2.6406
 6230TIP3   OH242884   0.569   0.280   3.871  0.2171 -0.6829  0.4515
 6230TIP3    H142885   0.550   0.300   3.779  0.0010 -1.5892  0.2832
 6230TIP3    H242886   0.651   0.230   3.868 -1.0801 -2.9752  0.4501
 6231TIP3   OH242887   3.151   4.138   3.948 -0.0306 -0.1038  0.1776
 6231TIP3    H142888   3.133   4.045   3.938 -0.1087  0.0210 -0.9180
 6231TIP3    H242889   3.130   4.177   3.863 -0.3482  0.9726  0.7232
 6232TIP3   OH242890   1.739   5.566   4.106  0.4806 -0.0079 -0.2731
 6232TIP3    H142891   1.702   5.484   4.072 -1.3210  0.4487  0.4393
 6232TIP3    H242892   1.791   5.539   4.181  1.7411 -0.6898 -1.3570
 6233TIP3   OH242893   3.062   4.181   4.489 -0.0978  0.1025  0.3863
 6233TIP3    H142894   3.062   4.241   4.415  1.5866 -0.7973 -0.4030
 6233TIP3    H242895   3.145   4.133   4.481 -0.7373 -1.3328  1.7819
 6234TIP3   OH242896   4.829   2.434   1.988  0.2765 -0.2498 -0.1988
 6234TIP3    H142897   4.846   2.340   1.977  1.4067 -0.1187  0.3112
 6234TIP3    H242898   4.797   2.462   1.902 -0.8708 -1.2508 -0.1275
 6235TIP3   OH242899   3.331   6.301   4.907 -0.0857  0.3231 -0.3205
 6235TIP3    H142900   3.390   6.226   4.901  2.6315  2.3930 -1.6356
 6235TIP3    H242901   3.300   6.315   4.818 -2.0424 -0.2573  0.2245
 6236TIP3   OH242902   5.620   1.080   3.366 -0.4614 -0.1766 -0.2814
 6236TIP3    H142903   5.553   1.084   3.435 -0.0593  0.7291  0.0706
 6236TIP3    H242904   5.612   1.164   3.320  0.9172  0.2648  0.2329
 6237TIP3   OH242905   0.102   1.282   2.186 -0.1745 -0.0074  0.2195
 6237TIP3    H142906   0.008   1.291   2.171 -0.4109 -1.0670  0.9211
 6237TIP3    H242907   0.138   1.368   2.166 -1.1450  0.1199 -1.1030
 6238TIP3   OH242908   0.636   1.989   2.170 -0.1383 -0.1558  0.1073
 6238TIP3    H142909   0.646   2.081   2.198  0.0761 -0.7607  2.2007
 6238TIP3    H242910   0.711   1.973   2.114 -1.3979  1.5757 -2.2504
 6239TIP3   OH242911   1.643   5.919   4.201 -0.1034  0.0181 -0.4426
 6239TIP3    H142912   1.638   5.894   4.294  0.4429 -1.3071 -0.7567
 6239TIP3    H242913   1.571   5.871   4.160  0.0205  0.1519 -0.8145
 6240TIP3   OH242914   5.603   4.157   2.492  0.2544  0.3740 -0.1882
 6240TIP3    H142915   5.550   4.233   2.514  0.7322  0.3990  0.9079
 6240TIP3    H242916   5.679   4.193   2.446  0.0527  0.4705 -0.4489
 6241TIP3   OH242917   1.434   5.111   4.938 -0.5783  0.2344 -0.0683
 6241TIP3    H142918   1.441   5.129   4.845 -2.2616  0.5547 -0.1705
 6241TIP3    H242919   1.513   5.148   4.976  0.2561 -0.1260 -1.3807
 6242TIP3   OH242920   0.082   5.325   4.280 -0.2451  0.0001  0.3925
 6242TIP3    H142921   0.026   5.271   4.336 -0.6661  1.4445  1.4301
 6242TIP3    H242922   0.026   5.398   4.252  0.4194  0.1459 -0.6088
 6243TIP3   OH242923   3.282   3.202   4.609  0.2617  0.0162  0.2820
 6243TIP3    H142924   3.343   3.201   4.683  1.0813  2.2744 -0.2915
 6243TIP3    H242925   3.330   3.242   4.537 -1.1587 -0.2886 -0.8970
 6244TIP3   OH242926   0.531   1.259   5.065 -0.0393 -0.0023  0.0663
 6244TIP3    H142927   0.610   1.213   5.034  0.8903  1.3903  0.2685
 6244TIP3    H242928   0.459   1.210   5.027  0.9646 -0.6112 -1.1482
 6245TIP3   OH242929   6.054   5.573   4.621  0.0665 -0.3524  0.9621
 6245TIP3    H142930   6.082   5.491   4.663 -2.2211 -1.5109  0.4447
 6245TIP3    H242931   5.973   5.596   4.667  0.0226  0.9456  0.2763
 6246TIP3   OH242932   0.275   4.920   4.210 -0.2002  0.0321 -0.0596
 6246TIP3    H142933   0.280   4.926   4.306  1.3503 -0.4374 -0.0876
 6246TIP3    H242934   0.289   4.827   4.191 -0.7713  0.0768 -0.7412
 6247TIP3   OH242935   4.398   6.797   3.113 -0.0425  0.5166 -0.1364
 6247TIP3    H142936   4.321   6.757   3.154  1.1400 -0.6578  1.0130
 6247TIP3    H242937   4.467   6.732   3.123  1.5472  2.1997  0.3649
 6248TIP3   OH242938   3.781   0.666   3.899 -0.7385  0.4378 -0.0443
 6248TIP3    H142939   3.775   0.725   3.823 -0.8532  0.3573 -0.0981
 6248TIP3    H242940   3.752   0.581   3.866  0.7829  0.0034 -0.3307
 6249TIP3   OH242941   5.122   6.596   3.785 -0.2850 -0.1258  0.2352
 6249TIP3    H142942   5.096   6.559   3.700 -1.1617 -0.1427  0.5033
 6249TIP3    H242943   5.176   6.528   3.825  1.2673  0.3994 -0.8537
 6250TIP3   OH242944   3.379   3.560   4.233 -0.5829  0.1946 -0.5355
 6250TIP3    H142945   3.369   3.594   4.144  0.1599 -2.2629 -1.6468
 6250TIP3    H242946   3.473   3.564   4.249 -0.7982  1.5657  0.6096
 6251TIP3   OH242947   1.714   5.738   3.725  0.1143  0.4576 -0.1573
 6251TIP3    H142948   1.674   5.771   3.644  0.1329  0.1794 -0.2851
 6251TIP3    H242949   1.777   5.672   3.694 -0.3085 -0.0798  0.1173
 6252TIP3   OH242950   2.630   2.809   4.373  0.3642  0.2950 -0.4667
 6252TIP3    H142951   2.572   2.803   4.297  0.0570  0.6136 -0.2594
 6252TIP3    H242952   2.667   2.721   4.383  1.9906  0.7177 -2.2066
 6253TIP3   OH242953   6.635   4.533   2.134  0.2182 -0.0416  0.2024
 6253TIP3    H142954   6.584   4.596   2.084  0.4900 -0.9640 -1.3351
 6253TIP3    H242955   6.591   4.449   2.119  0.2845 -0.3402  1.5898
 6254TIP3   OH242956   6.637   6.552   4.785 -0.2219 -0.1925 -0.2048
 6254TIP3    H142957   6.691   6.498   4.842 -1.4031  1.1496  2.3088
 6254TIP3    H242958   6.562   6.497   4.763 -0.6553 -0.1189  1.0603
 6255TIP3   OH242959   1.680   0.090   3.418  0.3144 -0.1493  0.0194
 6255TIP3    H142960   1.771   0.114   3.403  0.3622 -0.3077  0.0560
 6255TIP3    H242961   1.635   0.116   3.337  0.1707  1.0244  0.4485
 6256TIP3   OH242962   3.481   3.053   3.233 -0.5166 -0.1306 -0.9167
 6256TIP3    H142963   3.438   2.980   3.277 -0.5726  0.6291  0.3461
 6256TIP3    H242964   3.505   3.019   3.147  0.4240 -1.9724  0.0197
 6257TIP3   OH242965   5.614   0.927   3.132  0.0288 -0.7402 -0.4537
 6257TIP3    H142966   5.612   0.954   3.224  1.5095 -0.3118 -0.5147
 6257TIP3    H242967   5.543   0.977   3.091 -0.0397 -0.2134  0.2862
 6258TIP3   OH242968   1.801   3.713   4.441 -0.4502 -0.5570  0.1846
 6258TIP3    H142969   1.765   3.801   4.454  0.2543 -0.4071  1.2154
 6258TIP3    H242970   1.732   3.666   4.393 -0.8078  0.5586 -0.4413
 6259TIP3   OH242971   3.712   3.775   4.713 -0.9283 -0.1581  0.1190
 6259TIP3    H142972   3.757   3.740   4.790 -0.3339  0.2491 -0.0360
 6259TIP3    H242973   3.662   3.701   4.678  0.7269 -1.0416 -0.5142
 6260TIP3   OH242974   0.005   0.447   3.631  0.0700  0.5968  0.4262
 6260TIP3    H142975  -0.016   0.353   3.633  1.2640  0.2988  0.0084
 6260TIP3    H242976   0.012   0.468   3.538  4.7778 -0.1767  0.3239
 6261TIP3   OH242977   4.277   5.857   5.901 -0.0810 -1.2550 -0.1146
 6261TIP3    H142978   4.197   5.842   5.851 -2.1808 -1.4556  3.0292
 6261TIP3    H242979   4.315   5.770   5.912  0.0580 -1.2867 -0.8182
 6262TIP3   OH242980   4.617   5.489   5.057  0.2961  0.3463  0.2226
 6262TIP3    H142981   4.541   5.451   5.100  0.8102 -2.8592 -1.4281
 6262TIP3    H242982   4.668   5.528   5.128 -1.1547 -0.5324  1.8273
 6263TIP3   OH242983   0.919   4.863   3.201 -0.1329 -0.1802  0.4924
 6263TIP3    H142984   0.868   4.908   3.268 -0.6724 -0.8526  0.5469
 6263TIP3    H242985   0.916   4.771   3.226  0.2551 -0.3559 -0.0721
 6264TIP3   OH242986   4.220   0.477   2.890  0.2931 -0.4575  0.0289
 6264TIP3    H142987   4.245   0.482   2.983  1.8262  0.6400 -0.4038
 6264TIP3    H242988   4.225   0.567   2.859  0.0647 -0.8535 -1.2133
 6265TIP3   OH242989   1.995   1.719   3.890 -0.5083  0.3246  0.5263
 6265TIP3    H142990   2.014   1.717   3.984 -0.5821 -0.0653  0.5338
 6265TIP3    H242991   1.967   1.630   3.869 -2.1567  0.8303  0.4697
 6266TIP3   OH242992   4.673   5.943   4.222 -0.5429  0.5292  0.0392
 6266TIP3    H142993   4.742   5.893   4.266 -0.3009  1.1500  0.3762
 6266TIP3    H242994   4.695   5.937   4.129  0.2697  1.1512  0.1759
 6267TIP3   OH242995   2.374   3.235   5.093  0.1049 -0.1325 -0.0346
 6267TIP3    H142996   2.323   3.304   5.050  0.5175  0.9390  1.1525
 6267TIP3    H242997   2.309   3.184   5.141 -0.0417  0.2728  0.2006
 6268TIP3   OH242998   0.825   1.719   4.161  0.3106 -0.5781 -0.4838
 6268TIP3    H142999   0.813   1.636   4.207  0.4539  0.2680  1.1253
 6268TIP3    H243000   0.858   1.780   4.227  1.5479  0.4265 -1.9313
 6269TIP3   OH243001   1.885   6.025   4.103 -0.3238  0.2264  0.5757
 6269TIP3    H143002   1.825   5.979   4.161 -0.5417 -0.3587 -0.0965
 6269TIP3    H243003   1.834   6.041   4.023 -0.0150  0.9714  0.5154
 6270TIP3   OH243004   6.012   5.511   4.349 -0.0301 -0.3637  0.2450
 6270TIP3    H143005   6.023   5.538   4.440  0.1566  0.7462 -0.0865
 6270TIP3    H243006   6.004   5.593   4.301  1.0800 -0.8819 -0.8989
 6271TIP3   OH243007   1.728   5.155   3.209 -0.0910  0.3735  0.5767
 6271TIP3    H143008   1.696   5.224   3.150 -0.1867 -0.6054 -0.5544
 6271TIP3    H243009   1.801   5.196   3.256  0.3414  1.0324 -0.6148
 6272TIP3   OH243010   4.150   4.854   2.697  0.0049  0.3931 -0.0335
 6272TIP3    H143011   4.189   4.934   2.733 -0.3724  0.6103 -0.1084
 6272TIP3    H243012   4.223   4.810   2.652  0.0408  1.0816 -0.6623
 6273TIP3   OH243013   0.781   6.549   4.629  0.0961 -0.7943 -0.0034
 6273TIP3    H143014   0.721   6.623   4.622  0.7221 -0.3194 -0.4753
 6273TIP3    H243015   0.852   6.570   4.569 -0.8439 -2.8686 -2.0007
 6274TIP3   OH243016   3.394   5.381   4.843  0.0645 -0.3925  0.1508
 6274TIP3    H143017   3.315   5.397   4.791  1.7698  0.9798 -2.2594
 6274TIP3    H243018   3.455   5.341   4.782  2.1182  1.0691  1.1278
 6275TIP3   OH243019   0.990   3.087   5.451  0.0285 -0.2728  0.1451
 6275TIP3    H143020   0.935   3.082   5.372 -2.4805 -0.5804  1.8133
 6275TIP3    H243021   1.034   3.002   5.455  0.8733  0.0571 -1.3397
 6276TIP3   OH243022   2.123   6.038   2.366  0.1276  0.1044 -0.1774
 6276TIP3    H143023   2.079   5.993   2.294 -2.1055  1.8497 -0.0294
 6276TIP3    H243024   2.074   6.011   2.444 -0.6771  2.0096  0.0182
 6277TIP3   OH243025   1.548   4.593   5.583 -0.3801  0.1656  0.5659
 6277TIP3    H143026   1.571   4.585   5.676  0.3414  0.6939  0.4316
 6277TIP3    H243027   1.468   4.541   5.575  0.8998 -1.9715  0.9616
 6278TIP3   OH243028   6.158   4.005   2.053  0.2383  0.0506 -0.0216
 6278TIP3    H143029   6.106   4.025   1.975 -1.6118  0.6771  1.2779
 6278TIP3    H243030   6.185   3.914   2.042 -2.2383 -0.7432 -0.2500
 6279TIP3   OH243031   6.073   3.755   3.724 -0.2315  0.0115 -0.2278
 6279TIP3    H143032   6.122   3.748   3.642 -0.0307  0.7297 -0.1744
 6279TIP3    H243033   6.070   3.665   3.757 -1.5218 -0.5232 -1.6980
 6280TIP3   OH243034   3.450   5.019   4.292 -0.6706  0.6773  0.3445
 6280TIP3    H143035   3.377   4.969   4.329 -1.2149 -0.5587 -2.2067
 6280TIP3    H243036   3.408   5.093   4.247 -0.0934  1.5419  1.1709
 6281TIP3   OH243037   4.608   4.582   3.487  0.2988 -0.3751 -0.4324
 6281TIP3    H143038   4.683   4.573   3.546  0.7390 -2.8678 -1.2796
 6281TIP3    H243039   4.554   4.650   3.527  1.6686 -0.4341  1.6396
 6282TIP3   OH243040   3.351   6.692   3.807 -0.2160  0.0195  0.0180
 6282TIP3    H143041   3.316   6.681   3.718  0.3939 -0.1019 -0.2129
 6282TIP3    H243042   3.274   6.692   3.863 -0.5509 -0.8499 -0.4191
 6283TIP3   OH243043   6.645   5.714   3.889 -0.1720 -0.7313 -0.1721
 6283TIP3    H143044   6.616   5.626   3.913 -0.2629 -1.0910 -1.5203
 6283TIP3    H243045   6.734   5.701   3.856 -0.4697 -0.4288 -1.0965
 6284TIP3   OH243046   3.089   5.449   2.438 -0.2944  0.2521  0.0646
 6284TIP3    H143047   3.158   5.395   2.476 -0.8339 -0.5214 -0.0320
 6284TIP3    H243048   3.136   5.510   2.381  0.3517  0.1128  0.4304
 6285TIP3   OH243049   0.805   1.154   5.326 -0.3009  0.0468  0.0669
 6285TIP3    H143050   0.796   1.222   5.393 -1.9655 -0.2803  0.2105
 6285TIP3    H243051   0.846   1.200   5.252 -2.5964  1.6122 -0.3279
 6286TIP3   OH243052   3.115   6.032   3.755  0.0359 -0.0229  0.1874
 6286TIP3    H143053   3.209   6.018   3.770  0.4189  0.5796 -1.4253
 6286TIP3    H243054   3.087   5.954   3.708  0.3119  0.8593 -1.5037
 6287TIP3   OH243055   6.342   2.544   2.633 -0.2054  0.3794  0.0396
 6287TIP3    H143056   6.372   2.501   2.552  1.0313  3.3479 -1.2260
 6287TIP3    H243057   6.249   2.558   2.619  0.2483  2.1493 -1.6091
 6288TIP3   OH243058   0.496   6.376   4.119 -0.1153  0.4845 -0.1519
 6288TIP3    H143059   0.400   6.380   4.123 -0.2236 -1.5643  2.7065
 6288TIP3    H243060   0.518   6.295   4.165  3.0624  1.3180  0.0295
 6289TIP3   OH243061   0.014   3.254   2.952  0.4919 -0.1385 -0.4648
 6289TIP3    H143062  -0.018   3.246   3.042 -0.6044 -1.9641 -0.9780
 6289TIP3    H243063   0.109   3.244   2.959  0.3117 -1.4056  0.3822
 6290TIP3   OH243064   4.957   3.855   3.314 -0.5733  0.0451  0.2232
 6290TIP3    H143065   4.862   3.866   3.303 -0.4519  0.0922 -0.9416
 6290TIP3    H243066   4.995   3.912   3.247  0.3072  0.6166  1.1914
 6291TIP3   OH243067   4.479   6.684   2.623 -0.5026 -0.0727 -0.2569
 6291TIP3    H143068   4.427   6.764   2.615 -0.5196 -0.1577 -0.9921
 6291TIP3    H243069   4.414   6.614   2.624 -0.4252 -0.1541 -0.8049
 6292TIP3   OH243070   2.330   2.143   2.966 -0.8381  0.1454  0.0403
 6292TIP3    H143071   2.301   2.185   2.885  1.2883  1.3878 -0.1211
 6292TIP3    H243072   2.354   2.054   2.939  0.9835  0.9007 -0.9841
 6293TIP3   OH243073   6.110   6.503   5.144 -0.1740 -0.4931 -0.4271
 6293TIP3    H143074   6.082   6.577   5.199 -1.6507 -0.4422 -1.2068
 6293TIP3    H243075   6.183   6.538   5.092  0.5874 -0.2526  0.7673
 6294TIP3   OH243076   1.051   0.826   4.621 -0.9004 -0.0155 -0.8133
 6294TIP3    H143077   1.055   0.769   4.544  0.0927 -1.8419  0.5062
 6294TIP3    H243078   1.044   0.766   4.695  1.5785  1.4558  0.7714
 6295TIP3   OH243079   2.365   6.687   3.367  0.1502 -0.1090 -1.1122
 6295TIP3    H143080   2.339   6.667   3.277 -2.2218 -1.2048 -0.2740
 6295TIP3    H243081   2.359   6.783   3.373 -1.4168 -0.1461 -1.6757
 6296TIP3   OH243082   1.188   5.464   3.219 -0.1829  0.1006 -1.0970
 6296TIP3    H143083   1.184   5.501   3.307 -0.7713 -0.1078 -1.0298
 6296TIP3    H243084   1.280   5.439   3.207 -0.0968  0.1452 -0.5500
 6297TIP3   OH243085   3.435   5.945   2.720 -0.2296 -0.0795 -0.8460
 6297TIP3    H143086   3.363   5.908   2.772 -0.4674  0.8217 -0.4979
 6297TIP3    H243087   3.504   5.880   2.724 -0.1788  0.0194  0.7663
 6298TIP3   OH243088   5.377   1.568   4.756 -0.0114  0.2054 -0.6955
 6298TIP3    H143089   5.340   1.482   4.731 -0.9651 -0.1478  1.6715
 6298TIP3    H243090   5.415   1.553   4.842 -0.7736  2.3178  0.0519
 6299TIP3   OH243091   3.917   5.464   2.484 -0.4702 -0.1977  0.0631
 6299TIP3    H143092   3.968   5.488   2.407 -1.5427 -1.4372 -1.0923
 6299TIP3    H243093   3.980   5.463   2.556  0.7617  0.0056 -0.9875
 6300TIP3   OH243094   0.299   4.763   3.392  0.2000  0.0149 -0.4137
 6300TIP3    H143095   0.328   4.847   3.356 -1.5383  0.8026 -0.0892
 6300TIP3    H243096   0.263   4.717   3.316  0.2392 -0.0165 -0.4130
 6301TIP3   OH243097   3.484   0.083   3.164 -0.2060  0.3146  0.3015
 6301TIP3    H143098   3.453   0.114   3.249  1.2166  1.2901  0.4986
 6301TIP3    H243099   3.550   0.017   3.185 -0.5991 -0.2222 -0.0890
 6302TIP3   OH243100   5.909   5.627   2.427  0.0117  0.0707  0.1640
 6302TIP3    H143101   5.861   5.554   2.388  0.8707 -0.7742  0.6660
 6302TIP3    H243102   5.840   5.681   2.467 -0.7631  0.3235 -1.4325
 6303TIP3   OH243103   3.483   5.047   3.461 -0.2790  0.0633 -0.0157
 6303TIP3    H143104   3.424   5.001   3.521 -0.4235  2.2492  1.6252
 6303TIP3    H243105   3.530   4.977   3.415 -1.6963 -1.7014  1.0836
 6304TIP3   OH243106   5.900   1.797   3.785  0.2383  0.1059 -0.2670
 6304TIP3    H143107   5.977   1.816   3.837  0.1588 -1.6149  0.5355
 6304TIP3    H243108   5.922   1.718   3.737 -0.8558 -0.1508 -0.3726
 6305TIP3   OH243109   4.990   0.718   2.310 -0.0780 -0.1835 -0.1861
 6305TIP3    H143110   4.944   0.694   2.230  1.4417 -1.5439 -0.7026
 6305TIP3    H243111   4.961   0.808   2.328  0.3708  0.5977 -2.8773
 6306TIP3   OH243112   5.001   0.173   4.649 -0.0577  0.6950 -0.3902
 6306TIP3    H143113   4.930   0.173   4.713  0.6459  0.5571  0.4145
 6306TIP3    H243114   4.978   0.104   4.588  0.0413 -0.2868  0.6402
 6307TIP3   OH243115   2.907   1.918   2.116  0.1871 -0.0122 -0.6008
 6307TIP3    H143116   2.824   1.873   2.100 -0.2572  0.3556  0.5897
 6307TIP3    H243117   2.926   1.902   2.208 -0.9524  3.7321  0.4368
 6308TIP3   OH243118   4.818   0.839   3.943  1.2171 -0.2389  0.2826
 6308TIP3    H143119   4.747   0.828   4.006 -0.6321  1.4087 -1.3614
 6308TIP3    H243120   4.868   0.913   3.975  0.3965  0.4742 -0.0481
 6309TIP3   OH243121   5.588   4.900   4.247  0.0428 -0.4358 -0.3288
 6309TIP3    H143122   5.522   4.954   4.290  0.7045 -0.1398  0.3360
 6309TIP3    H243123   5.655   4.961   4.218  0.5009 -0.8349 -0.1231
 6310TIP3   OH243124   4.108   2.745   2.890 -0.2385 -0.2458 -0.0190
 6310TIP3    H143125   4.116   2.784   2.977 -2.3278 -0.0245  0.1462
 6310TIP3    H243126   4.036   2.682   2.898 -1.7422  1.0632 -1.9483
 6311TIP3   OH243127   1.282   5.661   2.948  0.1422  0.3479 -0.0152
 6311TIP3    H143128   1.226   5.695   3.019  0.1239  3.0412 -1.1996
 6311TIP3    H243129   1.368   5.650   2.989  0.0182  1.4058  0.5670
 6312TIP3   OH243130   3.576   2.336   3.996 -0.5983 -0.1650 -0.4365
 6312TIP3    H143131   3.519   2.275   4.044  2.7185 -1.6637  1.9938
 6312TIP3    H243132   3.633   2.372   4.064  1.4533  1.0834 -2.7062
 6313TIP3   OH243133   4.814   0.257   2.867 -0.7467 -0.0261 -0.1599
 6313TIP3    H143134   4.804   0.337   2.919  2.4824 -0.2092  1.0376
 6313TIP3    H243135   4.875   0.282   2.797  0.3612 -1.3569  0.2776
 6314TIP3   OH243136   5.518   2.974   3.446  0.0229  0.0110 -0.6757
 6314TIP3    H143137   5.563   2.936   3.521 -0.9352 -2.4524 -1.2803
 6314TIP3    H243138   5.582   3.035   3.409  1.0955  0.0921  1.1802
 6315TIP3   OH243139   5.283   4.713   2.003 -0.4842  0.4944 -0.0742
 6315TIP3    H143140   5.355   4.710   1.940 -0.6094  0.4798 -0.2197
 6315TIP3    H243141   5.295   4.794   2.051  0.3453 -0.0974  0.7594
 6316TIP3   OH243142   6.513   0.953   4.570 -0.5284 -0.1409  0.3005
 6316TIP3    H143143   6.463   0.872   4.570  0.3138 -0.7438  2.4867
 6316TIP3    H243144   6.584   0.937   4.508  0.0703 -1.4159  1.2620
 6317TIP3   OH243145   3.229   3.973   2.521  0.2119 -0.5100  0.0092
 6317TIP3    H143146   3.317   3.960   2.486 -0.1722  0.5679 -1.4680
 6317TIP3    H243147   3.193   3.885   2.528  0.8823 -0.8701 -0.8433
 6318TIP3   OH243148   2.543   2.148   5.664  0.3388 -0.2194 -0.1496
 6318TIP3    H143149   2.473   2.083   5.655 -0.2413  0.6659 -4.1135
 6318TIP3    H243150   2.621   2.105   5.629  0.7936  0.1189  0.4344
 6319TIP3   OH243151   2.845   0.327   3.409 -0.7168 -0.0192 -0.0950
 6319TIP3    H143152   2.859   0.245   3.363  1.9012 -2.6085  4.5348
 6319TIP3    H243153   2.900   0.391   3.364 -0.7979 -1.4379 -2.3241
 6320TIP3   OH243154   4.351   0.738   5.796 -0.4744 -0.4392  0.3245
 6320TIP3    H143155   4.425   0.757   5.854  0.3766 -0.8609 -0.5788
 6320TIP3    H243156   4.392   0.713   5.713 -1.6226 -1.3514 -0.0015
 6321TIP3   OH243157   0.831   2.158   3.824  0.7937  0.2011 -0.6214
 6321TIP3    H143158   0.863   2.110   3.900 -0.4224 -1.5143 -1.1244
 6321TIP3    H243159   0.736   2.160   3.835  0.7886  2.7997 -0.4909
 6322TIP3   OH243160   5.834   5.876   4.858  0.2281 -0.3751  0.2767
 6322TIP3    H143161   5.901   5.839   4.916  0.1111 -2.0177 -0.5915
 6322TIP3    H243162   5.760   5.893   4.916  0.0203 -2.2276  0.6215
 6323TIP3   OH243163   6.288   6.513   4.608  0.2022 -0.8642  0.6323
 6323TIP3    H143164   6.262   6.596   4.649  1.8334 -0.3775  0.7557
 6323TIP3    H243165   6.283   6.449   4.679 -1.0794 -0.8928  0.5355
 6324TIP3   OH243166   3.860   5.191   2.809  0.6417 -0.4342 -0.1481
 6324TIP3    H143167   3.881   5.247   2.883 -0.0686 -1.0712  0.5659
 6324TIP3    H243168   3.822   5.112   2.848  0.3471 -0.8350 -1.1815
 6325TIP3   OH243169   5.412   1.057   2.974 -0.1295  0.0396  0.2452
 6325TIP3    H143170   5.390   1.002   2.899  0.3841 -0.4435  0.4513
 6325TIP3    H243171   5.425   1.144   2.936  1.7841 -0.5134 -0.5010
 6326TIP3   OH243172   1.385   2.750   2.317 -0.2980  0.0708  0.1196
 6326TIP3    H143173   1.358   2.796   2.396  0.6954 -1.7864  1.6234
 6326TIP3    H243174   1.479   2.769   2.309 -0.5892  1.1048 -1.2748
 6327TIP3   OH243175   1.546   4.079   2.076 -0.4113 -0.6866  0.1292
 6327TIP3    H143176   1.493   4.159   2.082  1.8475  0.7789  2.4610
 6327TIP3    H243177   1.500   4.016   2.131 -0.2622  0.2616  1.3717
 6328TIP3   OH243178   3.086   2.057   3.456 -0.1271 -0.8640  0.0261
 6328TIP3    H143179   3.004   2.012   3.438  0.3588 -1.3274 -1.1155
 6328TIP3    H243180   3.109   2.031   3.545 -0.4410 -1.9481 -0.2011
 6329TIP3   OH243181   3.861   3.746   3.489  0.5272 -0.1974  0.2481
 6329TIP3    H143182   3.877   3.798   3.410  0.0427  0.6542  0.6960
 6329TIP3    H243183   3.946   3.745   3.534  0.4541  0.5551  0.4269
 6330TIP3   OH243184   2.743   1.996   5.536 -0.6917  0.5982 -0.2692
 6330TIP3    H143185   2.690   1.981   5.458 -0.8493  2.7023 -0.6417
 6330TIP3    H243186   2.832   1.978   5.509 -0.7024  1.6977 -1.0754
 6331TIP3   OH243187   0.104   1.526   2.808  0.1713  0.0029  1.0010
 6331TIP3    H143188   0.014   1.534   2.776  0.8526 -1.5609 -1.6062
 6331TIP3    H243189   0.150   1.601   2.770 -0.0060  0.9789  2.5846
 6332TIP3   OH243190   5.088   6.593   3.146 -0.4061 -0.7697 -0.3679
 6332TIP3    H143191   5.085   6.654   3.073  0.0623 -0.8001 -0.4200
 6332TIP3    H243192   5.079   6.647   3.224 -1.1362 -0.7629 -0.4545
 6333TIP3   OH243193   2.761   3.709   4.639  0.2615 -0.5852  0.3131
 6333TIP3    H143194   2.791   3.724   4.550  0.7977  2.5794  0.9231
 6333TIP3    H243195   2.750   3.614   4.645  1.1938 -0.9818 -2.7708
 6334TIP3   OH243196   0.451   5.081   3.031  0.9333 -0.5127 -0.1114
 6334TIP3    H143197   0.484   5.157   2.983 -2.2166  0.7655 -0.4723
 6334TIP3    H243198   0.386   5.043   2.973  0.7744 -2.1112  1.0654
 6335TIP3   OH243199   0.075   2.323   3.647 -0.2346  0.1683 -0.6172
 6335TIP3    H143200   0.032   2.312   3.732 -1.8874  1.7613 -1.1927
 6335TIP3    H243201   0.035   2.401   3.609  0.6798 -0.3209 -2.7490
 6336TIP3   OH243202   0.403   3.234   3.210 -0.5413  0.0881 -0.0710
 6336TIP3    H143203   0.375   3.320   3.241 -1.8445 -0.1355 -0.5676
 6336TIP3    H243204   0.451   3.196   3.284  0.1850  1.2829  0.1009
 6337TIP3   OH243205   2.400   5.453   4.800 -0.3546 -0.0676  0.2530
 6337TIP3    H143206   2.470   5.518   4.812 -0.7385  0.2266  0.8802
 6337TIP3    H243207   2.430   5.401   4.725  0.2886  0.3888  0.1812
 6338TIP3   OH243208   0.973   6.409   3.471 -0.3825  0.1065  0.3349
 6338TIP3    H143209   0.988   6.459   3.391 -0.6154  1.5163  1.1384
 6338TIP3    H243210   1.040   6.341   3.471  1.6710  2.0312  0.4801
 6339TIP3   OH243211   0.927   6.419   2.573 -0.3158 -1.1211 -0.6419
 6339TIP3    H143212   0.990   6.371   2.627  0.6726 -1.6632 -2.1719
 6339TIP3    H243213   0.939   6.382   2.485 -2.2056 -0.6429 -1.1497
 6340TIP3   OH243214   6.151   4.638   3.983  0.4705 -0.0662 -0.5490
 6340TIP3    H143215   6.139   4.570   3.917 -1.0116  0.0618 -0.4423
 6340TIP3    H243216   6.142   4.720   3.934 -1.7737  0.0373 -0.0620
 6341TIP3   OH243217   1.687   3.593   3.431  0.0491 -0.0983  0.6249
 6341TIP3    H143218   1.773   3.576   3.394  0.7521  1.3337  1.5514
 6341TIP3    H243219   1.639   3.639   3.361 -0.0699 -1.1115  0.0244
 6342TIP3   OH243220   1.018   4.105   3.847  0.0802  0.4847 -0.5612
 6342TIP3    H143221   1.010   4.118   3.941 -0.6936  2.2646 -0.8355
 6342TIP3    H243222   0.982   4.017   3.832  1.2968 -0.3186  0.9020
 6343TIP3   OH243223   0.715   3.761   4.509  0.1923 -0.3181 -0.1920
 6343TIP3    H143224   0.636   3.790   4.463  0.8832 -0.6562 -1.6536
 6343TIP3    H243225   0.707   3.665   4.511 -0.4164 -0.2728  1.5458
 6344TIP3   OH243226   1.931   6.849   1.801 -0.1618 -0.0879  0.6190
 6344TIP3    H143227   1.973   6.788   1.861  2.2899  0.6045 -0.3054
 6344TIP3    H243228   1.976   6.932   1.814 -2.8674  1.3930  1.2310
 6345TIP3   OH243229   0.173   6.176   2.827 -0.2927 -0.1533  0.1759
 6345TIP3    H143230   0.178   6.247   2.764  0.7640 -0.0455  0.3483
 6345TIP3    H243231   0.254   6.184   2.878 -0.6306 -0.8683  0.8527
 6346TIP3   OH243232   1.164   5.332   2.341 -0.3501  0.1580 -0.3040
 6346TIP3    H143233   1.183   5.241   2.364  1.3578  0.5499  0.0143
 6346TIP3    H243234   1.096   5.327   2.273 -0.8231 -1.3024  0.2599
 6347TIP3   OH243235   3.068   1.248   2.170 -0.0127 -0.0143  0.1664
 6347TIP3    H143236   3.118   1.171   2.198  0.1332 -0.3624 -1.0232
 6347TIP3    H243237   2.977   1.225   2.190  0.0068 -0.5984 -0.3753
 6348TIP3   OH243238   0.274   2.321   1.961  0.6922 -0.4436  0.1345
 6348TIP3    H143239   0.180   2.337   1.961  0.8631  0.6830 -0.6179
 6348TIP3    H243240   0.283   2.226   1.969 -0.5020 -0.5976 -0.2201
 6349TIP3   OH243241   2.483   3.765   3.595  0.1216  0.0072 -0.1745
 6349TIP3    H143242   2.395   3.765   3.634 -0.1436 -0.4531 -0.7338
 6349TIP3    H243243   2.542   3.743   3.667 -0.2288  0.2680  0.1960
 6350TIP3   OH243244   6.624   1.750   3.937  0.0417  0.0159 -0.0457
 6350TIP3    H143245   6.711   1.733   3.974  0.1788  0.7201 -0.0371
 6350TIP3    H243246   6.630   1.719   3.846  0.1583 -0.3498  0.0843
 6351TIP3   OH243247   1.767   0.541   1.902 -0.8301 -0.4159  0.2891
 6351TIP3    H143248   1.779   0.620   1.954 -1.5018 -0.6615  0.8295
 6351TIP3    H243249   1.727   0.478   1.962  0.6808 -1.5403  0.1732
 6352TIP3   OH243250   2.927   5.979   3.958 -0.2916 -0.2452  0.1052
 6352TIP3    H143251   2.941   5.979   4.053 -1.6139  0.6345  0.3262
 6352TIP3    H243252   3.001   6.030   3.923 -1.4514  2.2401  1.0057
 6353TIP3   OH243253   0.770   0.183   2.599 -0.1300 -0.6161  0.5304
 6353TIP3    H143254   0.688   0.143   2.571 -1.8063  1.6019  1.9782
 6353TIP3    H243255   0.801   0.231   2.522 -2.9625  2.6933  1.2053
 6354TIP3   OH243256   3.055   1.467   4.600 -0.1125 -0.2233 -0.3302
 6354TIP3    H143257   3.107   1.547   4.609 -1.5871  0.6133  1.3731
 6354TIP3    H243258   3.117   1.396   4.616  0.6618  0.7178  1.0422
 6355TIP3   OH243259   3.563   4.192   3.376  0.3372 -0.3566  0.3795
 6355TIP3    H143260   3.578   4.151   3.461  2.7371  0.2948  0.3538
 6355TIP3    H243261   3.651   4.202   3.339 -0.5250  0.8165 -1.4988
 6356TIP3   OH243262   0.401   0.355   2.301  0.3473  0.4697  0.2448
 6356TIP3    H143263   0.324   0.320   2.346  0.1759  0.6183  0.0668
 6356TIP3    H243264   0.455   0.389   2.372 -0.7243  2.3066  0.2420
 6357TIP3   OH243265   4.501   6.774   2.269  0.0778  0.2033 -0.1823
 6357TIP3    H143266   4.417   6.820   2.280 -1.0022 -1.5623 -0.5567
 6357TIP3    H243267   4.476   6.686   2.242  2.1521  0.1681 -2.2264
 6358TIP3   OH243268   1.311   3.510   4.385 -0.3239 -0.2082 -0.2918
 6358TIP3    H143269   1.224   3.549   4.390 -0.3950 -0.4373  0.3777
 6358TIP3    H243270   1.298   3.429   4.336 -0.9162 -1.3332  1.6001
 6359TIP3   OH243271   6.551   3.205   4.883 -0.4731 -0.1954  0.1499
 6359TIP3    H143272   6.565   3.295   4.856  1.8971 -0.6643 -0.3939
 6359TIP3    H243273   6.621   3.187   4.945  1.6586 -2.7936 -2.7267
 6360TIP3   OH243274   0.306   0.053   2.474 -0.3203 -0.6394  0.2015
 6360TIP3    H143275   0.254   0.082   2.399 -1.0130 -0.1062  0.8645
 6360TIP3    H243276   0.393   0.088   2.458 -0.2608 -1.1619 -0.7087
 6361TIP3   OH243277   1.581   4.684   5.319  0.4349 -0.5127  0.2158
 6361TIP3    H143278   1.604   4.640   5.400  1.1948  0.4230  0.5244
 6361TIP3    H243279   1.553   4.772   5.346  0.8235 -0.1464 -0.5401
 6362TIP3   OH243280   1.216   2.290   3.913  0.2039  0.1100  0.1801
 6362TIP3    H143281   1.173   2.278   3.998 -0.0385  1.4104  0.2570
 6362TIP3    H243282   1.144   2.288   3.850  0.3330 -0.3765  0.0437
 6363TIP3   OH243283   0.552   0.167   2.891 -0.5685  0.1878  0.2640
 6363TIP3    H143284   0.643   0.138   2.880 -1.1919 -2.4070  1.2724
 6363TIP3    H243285   0.549   0.200   2.981 -0.3718  1.5560 -0.1978
 6364TIP3   OH243286   3.739   4.868   3.481  0.7312  0.0381 -0.3847
 6364TIP3    H143287   3.722   4.926   3.556  1.8487  1.3446 -1.0868
 6364TIP3    H243288   3.795   4.920   3.424 -0.5857 -0.6998 -2.4320
 6365TIP3   OH243289   4.297   3.970   2.912 -0.3789 -0.1260  0.1622
 6365TIP3    H143290   4.309   3.974   2.817 -0.1482 -0.1638  0.1906
 6365TIP3    H243291   4.235   3.899   2.925 -1.1150  0.4649 -0.0266
 6366TIP3   OH243292   0.304   5.185   4.188  0.3887 -0.0301 -0.0632
 6366TIP3    H143293   0.222   5.218   4.224  0.6844 -0.6608  1.2397
 6366TIP3    H243294   0.289   5.091   4.177  0.4872  0.0632 -1.1245
 6367TIP3   OH243295   1.052   2.856   2.952  0.1072 -0.3651 -0.0154
 6367TIP3    H143296   1.038   2.854   3.046 -0.9135  2.1923 -0.0431
 6367TIP3    H243297   0.992   2.790   2.917  0.8654 -1.7040  1.1094
 6368TIP3   OH243298   3.171   1.114   4.440  0.1092  0.4202  0.0990
 6368TIP3    H143299   3.116   1.112   4.518  0.1388 -1.7689  0.1152
 6368TIP3    H243300   3.156   1.201   4.402 -2.1154  0.4705  0.9594
 6369TIP3   OH243301   2.590   6.318   4.055  0.0948  0.6590  0.2895
 6369TIP3    H143302   2.623   6.405   4.078  0.9502  0.3935  0.0988
 6369TIP3    H243303   2.530   6.334   3.982  1.0045  1.0040 -0.4163
 6370TIP3   OH243304   0.156   6.460   4.868 -0.1341  0.1260 -0.4788
 6370TIP3    H143305   0.218   6.470   4.796 -0.5417  0.0311 -0.8464
 6370TIP3    H243306   0.169   6.538   4.922  0.9262 -0.3218 -0.0693
 6371TIP3   OH243307   5.906   1.520   4.017 -0.5114 -0.0100 -0.0299
 6371TIP3    H143308   5.901   1.455   3.947 -0.8202 -3.0381  2.5679
 6371TIP3    H243309   5.995   1.512   4.051 -0.4800  1.1282  0.1993
 6372TIP3   OH243310   3.966   2.420   1.777  0.0534 -0.0290  0.1726
 6372TIP3    H143311   3.970   2.424   1.682 -0.7956 -0.3996  0.1112
 6372TIP3    H243312   4.031   2.355   1.801  1.3411  1.1337 -0.0322
 6373TIP3   OH243313   3.805   2.928   5.051  0.2145  0.0162  0.1195
 6373TIP3    H143314   3.756   2.866   5.103  1.7514 -0.4916  1.0222
 6373TIP3    H243315   3.776   2.912   4.961  0.4427 -1.8894  0.3457
 6374TIP3   OH243316   0.276   2.814   3.938  0.1684  0.4519  0.3117
 6374TIP3    H143317   0.337   2.757   3.984  0.4445  1.7146  1.5879
 6374TIP3    H243318   0.256   2.768   3.856  2.2617 -0.3231  0.1872
 6375TIP3   OH243319   4.324   0.647   2.498 -0.1900 -0.3604  0.0563
 6375TIP3    H143320   4.277   0.728   2.479  1.5439  0.9098  0.8507
 6375TIP3    H243321   4.265   0.596   2.554 -1.6050 -0.0208 -1.0608
 6376TIP3   OH243322   2.208   2.252   2.752 -0.1472 -0.8951 -0.8327
 6376TIP3    H143323   2.208   2.348   2.755  0.4946 -0.9225  0.4005
 6376TIP3    H243324   2.162   2.231   2.670 -1.4437  0.4438 -0.4975
 6377TIP3   OH243325   3.459   5.963   2.391 -0.2743  0.2249 -0.0897
 6377TIP3    H143326   3.461   5.867   2.394  2.2295  0.2004 -0.4650
 6377TIP3    H243327   3.385   5.987   2.445 -0.7408 -1.9210  0.3163
 6378TIP3   OH243328   2.582   3.567   4.800  0.2707  0.2839 -0.0928
 6378TIP3    H143329   2.579   3.513   4.879  0.6418 -0.3252 -0.4922
 6378TIP3    H243330   2.552   3.653   4.829 -0.1469 -0.0828  0.5889
 6379TIP3   OH243331   5.402   2.222   3.096  0.5946 -0.4856 -0.1171
 6379TIP3    H143332   5.388   2.129   3.080  2.0194 -0.8970  0.8664
 6379TIP3    H243333   5.358   2.265   3.023 -1.1806 -1.8459  0.0879
 6380TIP3   OH243334   1.657   1.303   4.183 -0.3324 -0.2959  0.0825
 6380TIP3    H143335   1.596   1.367   4.220 -0.6677  0.7691 -2.1106
 6380TIP3    H243336   1.737   1.313   4.233 -1.5271 -0.8567  2.2301
 6381TIP3   OH243337   6.476   2.224   2.988  0.2292 -0.1222 -0.1464
 6381TIP3    H143338   6.394   2.194   2.949 -0.4190 -0.1118  1.1502
 6381TIP3    H243339   6.472   2.319   2.983 -0.8905  0.0077  1.8311
 6382TIP3   OH243340   4.770   5.252   3.862  0.1369 -0.2630 -0.3939
 6382TIP3    H143341   4.764   5.269   3.956  1.4852 -0.5729 -0.2289
 6382TIP3    H243342   4.782   5.338   3.822 -0.6050 -0.1154 -0.2981
 6383TIP3   OH243343   5.226   2.087   2.028 -0.0464  0.1217 -0.2777
 6383TIP3    H143344   5.134   2.094   2.054  0.3873 -1.9855  2.2877
 6383TIP3    H243345   5.231   2.003   1.983  0.3085  1.1626 -2.2628
 6384TIP3   OH243346   5.617   5.351   4.605 -0.2520  0.2588  0.4006
 6384TIP3    H143347   5.606   5.428   4.550 -1.1726 -1.9678 -2.9065
 6384TIP3    H243348   5.710   5.329   4.597 -0.2655  0.2757  0.1796
 6385TIP3   OH243349   3.382   2.197   4.152 -0.5646 -0.3820 -0.0238
 6385TIP3    H143350   3.297   2.160   4.129 -1.2861  1.1545  0.1220
 6385TIP3    H243351   3.427   2.126   4.199 -1.8312 -1.1420  0.0752
 6386TIP3   OH243352   1.910   3.058   3.121  0.2928 -0.4016 -0.5137
 6386TIP3    H143353   1.949   2.972   3.104  1.5286  0.0280  0.0273
 6386TIP3    H243354   1.980   3.120   3.098 -0.0662  0.3990  0.5183
 6387TIP3   OH243355   0.041   4.908   3.683 -0.2213  0.7111  0.1669
 6387TIP3    H143356   0.060   4.947   3.768 -1.2978 -0.6192  1.0767
 6387TIP3    H243357  -0.022   4.967   3.643 -1.0316  0.5022  1.0721
 6388TIP3   OH243358   5.987   4.658   4.501  0.1675  0.1195 -0.1763
 6388TIP3    H143359   5.912   4.714   4.518 -0.1196 -0.1630 -0.4778
 6388TIP3    H243360   5.990   4.650   4.405  0.9671  0.6435 -0.2072
 6389TIP3   OH243361   6.802   2.141   3.478  0.4196 -0.4839  0.2737
 6389TIP3    H143362   6.873   2.092   3.436  0.2923 -1.5982  1.3190
 6389TIP3    H243363   6.846   2.196   3.542  0.3942 -0.6426  0.4261
 6390TIP3   OH243364   2.067   2.850   4.790  0.5672  0.0654 -0.2078
 6390TIP3    H143365   2.053   2.759   4.816 -0.6855  0.1419 -0.5369
 6390TIP3    H243366   2.026   2.901   4.859  2.4779  0.4603  0.7066
 6391TIP3   OH243367   5.037   5.542   2.135  0.3200 -0.0867 -0.2461
 6391TIP3    H143368   4.963   5.486   2.113  0.7268 -0.9695  0.5541
 6391TIP3    H243369   5.043   5.537   2.231  0.5288  1.1249 -0.1789
 6392TIP3   OH243370   2.903   5.197   2.361 -0.3768 -0.1506 -0.0384
 6392TIP3    H143371   2.939   5.116   2.325  1.4505  0.8331 -0.5509
 6392TIP3    H243372   2.974   5.261   2.352 -1.5521  1.3595  0.9145
 6393TIP3   OH243373   3.402   4.068   4.948  0.1919  0.3496 -0.0081
 6393TIP3    H143374   3.490   4.033   4.942  0.7721  1.9291 -1.6410
 6393TIP3    H243375   3.414   4.163   4.952 -1.4071  0.5555  1.2401
 6394TIP3   OH243376   0.533   5.892   2.884 -0.1906  0.6404  0.3520
 6394TIP3    H143377   0.566   5.836   2.954  0.8498 -1.5949 -1.7786
 6394TIP3    H243378   0.588   5.872   2.809 -2.1900  1.7989 -1.5388
 6395TIP3   OH243379   6.557   1.593   4.428 -0.2538  0.8438  0.2802
 6395TIP3    H143380   6.590   1.682   4.425  0.7272  0.4739 -1.5455
 6395TIP3    H243381   6.616   1.548   4.488  1.3714  0.7068 -1.3021
 6396TIP3   OH243382   4.897   6.028  11.466 -0.3939  0.3789 -0.0043
 6396TIP3    H143383   4.863   5.967  11.531 -0.4133  0.3011 -0.0869
 6396TIP3    H243384   4.857   6.112  11.488  0.3667  0.5791  0.6937
 6397TIP3   OH243385   0.392   1.413   3.248  0.2424  0.8755  0.3095
 6397TIP3    H143386   0.324   1.369   3.300  2.0365 -2.0596  0.4298
 6397TIP3    H243387   0.346   1.443   3.170 -1.2740 -0.8750  0.4460
 6398TIP3   OH243388   2.719   3.336   5.761  0.2627 -0.7669  0.1605
 6398TIP3    H143389   2.705   3.328   5.856  1.6191  0.4983  0.4945
 6398TIP3    H243390   2.795   3.393   5.753 -0.8292  0.4974 -1.7448
 6399TIP3   OH243391   1.727   6.525   2.965  0.1767 -0.2909  0.7872
 6399TIP3    H143392   1.803   6.468   2.966  0.7436  0.3748 -0.7457
 6399TIP3    H243393   1.760   6.610   2.995  0.5324  0.4887 -1.5990
 6400TIP3   OH243394   2.042   1.413   2.266  0.2130 -0.4584  0.5118
 6400TIP3    H143395   2.008   1.456   2.188 -1.5615  0.1303  1.5470
 6400TIP3    H243396   2.039   1.480   2.334 -0.0357 -1.4554  1.5133
 6401TIP3   OH243397   0.060   2.549   3.044  0.5944  0.7610 -0.1966
 6401TIP3    H143398   0.058   2.636   3.004 -0.7263  1.1799  0.7448
 6401TIP3    H243399  -0.032   2.527   3.059  1.0115  0.7498  2.8557
 6402TIP3   OH243400   5.959   3.606   2.993 -0.6269 -0.5493  0.6848
 6402TIP3    H143401   5.868   3.603   2.963 -0.2021  0.6957 -0.8529
 6402TIP3    H243402   6.007   3.554   2.928 -0.0669 -0.1760  0.7985
 6403TIP3   OH243403   3.101   5.086   5.604  0.4815 -0.3030 -1.1882
 6403TIP3    H143404   3.141   5.156   5.656 -1.4619  0.9305 -1.2379
 6403TIP3    H243405   3.113   5.007   5.657  2.6908  0.0418 -1.1122
 6404TIP3   OH243406   6.264   3.148   2.029 -0.3808  0.1712 -0.0019
 6404TIP3    H143407   6.291   3.179   1.943 -0.6037  0.9053  0.1897
 6404TIP3    H243408   6.192   3.206   2.055  0.0407  0.3056  0.9147
 6405TIP3   OH243409   3.522   1.441   3.970  0.3225  0.2312 -0.7847
 6405TIP3    H143410   3.579   1.379   3.924 -2.0557 -1.3685 -1.8251
 6405TIP3    H243411   3.550   1.436   4.062  0.0519 -2.7719 -0.7530
 6406TIP3   OH243412   2.925   3.409   3.835  0.1130 -1.0412  0.1764
 6406TIP3    H143413   2.979   3.386   3.910 -1.6835 -0.5477  1.6850
 6406TIP3    H243414   2.866   3.477   3.868  1.1881  1.3901 -2.4621
 6407TIP3   OH243415   6.440   1.084   2.841  0.0914  0.2174  0.4824
 6407TIP3    H143416   6.532   1.112   2.843  0.0050  0.4686  1.3612
 6407TIP3    H243417   6.396   1.148   2.785  0.2893  0.6355  0.7971
 6408TIP3   OH243418   4.344   1.116   5.637  0.4472 -0.0733  0.1239
 6408TIP3    H143419   4.363   1.095   5.728 -1.9763  0.2440  0.7609
 6408TIP3    H243420   4.405   1.062   5.587  0.0145 -2.3367  1.8843
 6409TIP3   OH243421   2.126   3.321   4.452 -0.0723  0.0403  0.3036
 6409TIP3    H143422   2.210   3.296   4.490 -0.2418 -0.9523  0.0683
 6409TIP3    H243423   2.129   3.416   4.447  1.0625  0.0155  0.2507
 6410TIP3   OH243424   1.200   0.973   3.038  0.0437  0.0403  0.7307
 6410TIP3    H143425   1.110   0.942   3.048  0.4548 -0.9359  1.6437
 6410TIP3    H243426   1.245   0.901   2.993  0.3853  0.4827  0.3646
 6411TIP3   OH243427   2.433   1.420   4.440  0.0969 -0.7902 -0.7246
 6411TIP3    H143428   2.461   1.332   4.463 -0.9702 -0.7198  0.9371
 6411TIP3    H243429   2.360   1.408   4.379  0.3553 -1.0342 -0.9869
 6412TIP3   OH243430   2.295   0.354   2.802  0.0055  0.7296 -0.1502
 6412TIP3    H143431   2.282   0.297   2.726 -1.3741 -1.1721  1.3809
 6412TIP3    H243432   2.291   0.443   2.767 -3.4831  0.0434 -2.0262
 6413TIP3   OH243433   1.525   0.754   2.199  0.0442 -0.2194  0.1820
 6413TIP3    H143434   1.555   0.664   2.184  1.0599 -0.0664  1.1391
 6413TIP3    H243435   1.584   0.807   2.146  1.5403  0.0832  2.0485
 6414TIP3   OH243436   5.519   6.324   3.595  0.6825 -0.3884  0.1248
 6414TIP3    H143437   5.611   6.326   3.565  0.6668  2.9085 -0.1302
 6414TIP3    H243438   5.525   6.317   3.690  1.1958 -0.3440  0.1019
 6415TIP3   OH243439   0.454   3.527   3.208  0.0058  0.1792  0.1454
 6415TIP3    H143440   0.456   3.488   3.121  0.7726  1.8387 -0.6266
 6415TIP3    H243441   0.362   3.524   3.234 -0.3112  0.1294 -0.9414
 6416TIP3   OH243442   5.070   4.983   5.284 -0.2972  0.5462 -0.2978
 6416TIP3    H143443   5.143   5.044   5.287 -1.1353  1.5423  1.0331
 6416TIP3    H243444   5.030   4.988   5.371 -0.6369 -1.6187 -0.2658
 6417TIP3   OH243445   3.711   2.306   2.387  0.1280  0.2957  0.3192
 6417TIP3    H143446   3.794   2.351   2.373 -0.4393  0.9908 -1.0528
 6417TIP3    H243447   3.688   2.271   2.301 -0.3760 -1.0134  0.9638
 6418TIP3   OH243448   4.939   4.223   3.785  0.1774  0.4462  0.0307
 6418TIP3    H143449   5.018   4.183   3.749 -0.6935  0.8011 -2.5085
 6418TIP3    H243450   4.887   4.149   3.817  0.2225 -0.1228 -1.1482
 6419TIP3   OH243451   4.193   1.807   4.188 -0.4640  0.0899 -0.1491
 6419TIP3    H143452   4.208   1.783   4.279  1.3025 -1.4607 -0.7915
 6419TIP3    H243453   4.275   1.847   4.160  0.1187 -2.0593 -1.8106
 6420TIP3   OH243454   6.124   3.247   3.791 -0.3937  0.0250  0.2331
 6420TIP3    H143455   6.109   3.153   3.780  1.6621 -0.2172 -0.9729
 6420TIP3    H243456   6.187   3.253   3.862  1.3618  0.2583 -1.2661
 6421TIP3   OH243457   3.875   4.929   2.450 -0.5018 -0.5512  0.0210
 6421TIP3    H143458   3.845   5.019   2.459 -0.4243 -0.1747 -2.5607
 6421TIP3    H243459   3.962   4.937   2.410 -0.4904 -1.7668 -0.2388
 6422TIP3   OH243460   3.370   5.709   5.922 -0.9040  0.3732  0.7998
 6422TIP3    H143461   3.322   5.659   5.856 -1.4252  0.7313  0.9049
 6422TIP3    H243462   3.402   5.643   5.984 -1.0387  0.1105  0.5894
 6423TIP3   OH243463   1.536   5.697   3.248 -0.0588 -0.3281  0.1419
 6423TIP3    H143464   1.484   5.769   3.214  1.4546  1.1604  0.7860
 6423TIP3    H243465   1.550   5.639   3.173 -2.1996 -0.5663 -0.1367
 6424TIP3   OH243466   6.826   3.567   5.397  0.2465 -0.3420 -0.2756
 6424TIP3    H143467   6.800   3.512   5.323 -2.8643 -0.4616  0.7751
 6424TIP3    H243468   6.828   3.656   5.361 -0.7336 -0.4607 -0.6659
 6425TIP3   OH243469   6.071   2.988   4.829  0.1315 -0.1331  0.1462
 6425TIP3    H143470   6.114   3.072   4.838  0.9421 -0.5707  0.4045
 6425TIP3    H243471   6.123   2.940   4.765 -0.0391 -0.6237  0.3658
 6426TIP3   OH243472   6.129   5.362   3.027  0.1865 -0.0926  0.0208
 6426TIP3    H143473   6.104   5.393   2.940 -1.1360  0.6716  0.6333
 6426TIP3    H243474   6.128   5.441   3.081  2.8115 -0.2276  0.3967
 6427TIP3   OH243475   2.657   2.536   4.378 -0.2918  0.4495  0.5395
 6427TIP3    H143476   2.581   2.479   4.391 -0.1617  0.0683 -0.2839
 6427TIP3    H243477   2.710   2.524   4.456 -1.1687  0.8625  1.2092
 6428TIP3   OH243478   3.827   1.833   2.222  0.6498  0.3926  0.1791
 6428TIP3    H143479   3.880   1.904   2.185 -1.0226  2.7133  1.9103
 6428TIP3    H243480   3.737   1.863   2.212 -0.0562 -0.9170  2.0518
 6429TIP3   OH243481   4.580   6.732   2.885 -0.3153  0.7335 -0.3382
 6429TIP3    H143482   4.488   6.738   2.912  0.0085  0.7640  0.7908
 6429TIP3    H243483   4.576   6.711   2.792 -1.4721  0.5537 -0.2620
 6430TIP3   OH243484   6.432   0.151   1.970 -0.4601 -0.2176  0.2671
 6430TIP3    H143485   6.437   0.177   2.062 -1.1780 -0.1416  0.2887
 6430TIP3    H243486   6.523   0.154   1.939  0.0419 -2.0527  1.4473
 6431TIP3   OH243487   3.085   1.246   4.839  0.4864 -0.0740  0.0207
 6431TIP3    H143488   3.014   1.183   4.824  1.5025 -1.5549  1.1675
 6431TIP3    H243489   3.040   1.325   4.867 -0.7388 -1.1326  1.2349
 6432TIP3   OH243490   1.100   2.661   3.763  0.5581  0.1937 -0.2784
 6432TIP3    H143491   1.150   2.611   3.828 -0.6081 -0.9180 -0.1966
 6432TIP3    H243492   1.129   2.626   3.679  0.5564  0.1783 -0.2725
 6433TIP3   OH243493   3.072   5.831   3.284  0.4476  0.2772 -0.1073
 6433TIP3    H143494   3.126   5.802   3.211 -1.2856 -0.9345 -0.9593
 6433TIP3    H243495   3.011   5.894   3.246  0.0212  0.2190  0.4607
 6434TIP3   OH243496   3.932   1.608   2.599  0.1761  0.2756 -0.3756
 6434TIP3    H143497   3.942   1.682   2.659  1.1893 -0.1340 -0.0158
 6434TIP3    H243498   3.849   1.568   2.624  1.0806 -0.5339  1.5108
 6435TIP3   OH243499   0.965   0.330   4.253  0.2152 -0.5091  0.5786
 6435TIP3    H143500   0.978   0.282   4.335  2.0880 -1.6563 -0.3218
 6435TIP3    H243501   1.051   0.370   4.235 -0.2432 -0.0415 -0.6796
 6436TIP3   OH243502   4.542   1.876   2.070 -0.3106  0.5928  0.3382
 6436TIP3    H143503   4.549   1.796   2.018 -1.9187  1.0564 -0.6536
 6436TIP3    H243504   4.627   1.882   2.116  0.4985 -0.7333 -0.8959
 6437TIP3   OH243505   6.291   6.181   2.864  0.2847  0.8335 -0.0385
 6437TIP3    H143506   6.315   6.203   2.954  0.8458 -2.3951  0.7130
 6437TIP3    H243507   6.351   6.111   2.839 -1.8354 -0.5080 -1.8032
 6438TIP3   OH243508   2.918   2.522   3.530 -0.1965 -0.2126 -0.2524
 6438TIP3    H143509   2.865   2.578   3.587 -2.1705 -2.3118  0.1115
 6438TIP3    H243510   2.967   2.583   3.475  0.4527  1.8704  2.4602
 6439TIP3   OH243511   2.446   2.237   2.131 -0.0480 -0.5250 -0.2464
 6439TIP3    H143512   2.457   2.285   2.213  2.0610 -0.8989 -0.2767
 6439TIP3    H243513   2.515   2.269   2.074  0.1765 -2.1562 -0.9529
 6440TIP3   OH243514   2.212   0.371   3.234 -0.1628  0.1671 -0.0205
 6440TIP3    H143515   2.242   0.352   3.145 -1.1576 -2.3558  0.0737
 6440TIP3    H243516   2.124   0.406   3.223  0.3753  1.5420 -0.0674
 6441TIP3   OH243517   3.332   4.466   2.648 -0.2141  0.1635 -0.7201
 6441TIP3    H143518   3.373   4.472   2.562  0.9696 -0.1461 -0.2117
 6441TIP3    H243519   3.333   4.372   2.668 -0.1275  0.2645 -0.2257
 6442TIP3   OH243520   6.367   3.899   2.515 -0.0952 -0.3822 -0.1507
 6442TIP3    H143521   6.334   3.930   2.431  0.6360 -0.8756 -0.6340
 6442TIP3    H243522   6.394   3.808   2.499  2.4276  0.2640 -0.0892
 6443TIP3   OH243523   5.113   6.193   2.756 -0.0194 -0.1120 -0.5528
 6443TIP3    H143524   5.139   6.234   2.673 -1.4683 -1.9090 -1.9747
 6443TIP3    H243525   5.041   6.248   2.788 -1.0549 -0.7169 -1.7577
 6444TIP3   OH243526   6.160   4.752   2.448  0.0699  0.0204  0.2598
 6444TIP3    H143527   6.132   4.717   2.532 -1.5287  1.4003  0.3587
 6444TIP3    H243528   6.194   4.839   2.467 -1.0844  0.6867 -0.5803
 6445TIP3   OH243529   2.479   3.573   2.551  0.0126  0.1162 -0.0045
 6445TIP3    H143530   2.408   3.555   2.490 -0.0682  0.1205  0.0893
 6445TIP3    H243531   2.542   3.502   2.537 -1.3650 -1.6052  2.0198
 6446TIP3   OH243532   0.034   0.903   2.753  0.6728  0.5323 -0.4459
 6446TIP3    H143533   0.031   0.808   2.741  2.5515  0.2824  0.5863
 6446TIP3    H243534   0.034   0.938   2.664 -1.5911 -0.2971 -0.8440
 6447TIP3   OH243535   5.204   1.303   3.485 -0.3233 -0.1670 -0.6207
 6447TIP3    H143536   5.208   1.289   3.579  0.3027  0.3631 -0.5581
 6447TIP3    H243537   5.114   1.330   3.468 -0.7154 -1.2302 -0.3278
 6448TIP3   OH243538   6.460   1.656   3.096  0.6285  0.0932 -0.4531
 6448TIP3    H143539   6.533   1.615   3.049  1.7344 -1.4479  2.3316
 6448TIP3    H243540   6.389   1.592   3.092  1.9988 -1.8783  2.9819
 6449TIP3   OH243541   1.894   5.148   5.543  0.3287 -0.2023 -0.3911
 6449TIP3    H143542   1.805   5.144   5.579  0.5660  1.3666  0.4202
 6449TIP3    H243543   1.907   5.061   5.503 -0.6378 -1.3531  1.6544
 6450TIP3   OH243544   6.290   1.247   3.025 -0.2970 -0.4799 -0.5312
 6450TIP3    H143545   6.214   1.192   3.047  0.6405 -1.6413 -0.1256
 6450TIP3    H243546   6.360   1.184   3.006  0.8771  0.5833  0.1872
 6451TIP3   OH243547   2.853   0.719   3.051 -0.1728 -0.0225  0.0765
 6451TIP3    H143548   2.822   0.772   2.977 -0.0401  0.0351  0.0628
 6451TIP3    H243549   2.813   0.633   3.037  1.6554 -0.6973 -1.3041
 6452TIP3   OH243550   2.657   4.473   4.424  0.2498 -0.0351  0.3618
 6452TIP3    H143551   2.667   4.445   4.516  0.7999 -1.3309 -0.0660
 6452TIP3    H243552   2.568   4.447   4.400 -0.8511  2.6220  1.2502
 6453TIP3   OH243553   6.141   1.297   4.804 -0.0415 -0.7107 -0.0456
 6453TIP3    H143554   6.212   1.324   4.862 -2.3141  0.2498  2.5009
 6453TIP3    H243555   6.126   1.374   4.749 -0.4178 -0.1405  0.8279
 6454TIP3   OH243556   0.126   1.262   2.745 -0.0497  0.1253 -0.2080
 6454TIP3    H143557   0.193   1.268   2.678 -0.6955  0.3434 -0.8513
 6454TIP3    H243558   0.133   1.344   2.794 -0.1697  0.3577 -0.5812
 6455TIP3   OH243559   2.097   3.225   4.781 -0.4585 -0.5669  0.3402
 6455TIP3    H143560   2.096   3.140   4.824  1.0896 -0.0432  1.5010
 6455TIP3    H243561   2.175   3.224   4.726 -0.7521 -0.1167 -0.0955
 6456TIP3   OH243562   6.198   6.813   2.031 -0.2182  0.1019  0.2154
 6456TIP3    H143563   6.271   6.753   2.046 -0.4978 -0.1754  0.4614
 6456TIP3    H243564   6.235   6.900   2.047  0.1561 -0.0073 -0.0319
 6457TIP3   OH243565   5.867   4.858   5.342 -0.2248  0.1127  0.2460
 6457TIP3    H143566   5.775   4.883   5.356  0.1393 -0.1971  4.3518
 6457TIP3    H243567   5.917   4.937   5.363  0.4989 -0.3063  0.1306
 6458TIP3   OH243568   5.011   5.453   4.020 -0.6097  0.1357  0.1132
 6458TIP3    H143569   4.937   5.431   4.076 -0.8180  0.9394  0.1618
 6458TIP3    H243570   4.978   5.442   3.931  0.0893 -2.4047  0.0832
 6459TIP3   OH243571   1.853   2.962   2.389  0.0887 -0.7271 -0.1396
 6459TIP3    H143572   1.936   2.931   2.425 -0.1746  0.7044  1.8579
 6459TIP3    H243573   1.832   3.040   2.440 -1.6015 -0.0053 -1.8147
 6460TIP3   OH243574   3.920   5.303   3.203 -0.1909  0.4556 -0.1542
 6460TIP3    H143575   3.956   5.346   3.281  1.1407  1.0855 -1.0697
 6460TIP3    H243576   3.992   5.249   3.170 -0.2997  1.1809 -1.6487
 6461TIP3   OH243577   0.675   0.889   2.271 -0.4290  0.0906  0.1940
 6461TIP3    H143578   0.621   0.910   2.348  1.0294  0.1597  1.2520
 6461TIP3    H243579   0.761   0.868   2.308  0.2081 -0.2436 -1.4158
 6462TIP3   OH243580   4.891   4.683   4.793  0.2596  0.5474 -0.1899
 6462TIP3    H143581   4.862   4.697   4.883 -0.2788 -0.7204 -0.1514
 6462TIP3    H243582   4.828   4.621   4.757  2.6626 -2.0396 -0.2402
 6463TIP3   OH243583   3.385   2.513   4.524 -0.4792 -0.0182  0.3837
 6463TIP3    H143584   3.366   2.429   4.482 -1.7261  0.3485  0.1906
 6463TIP3    H243585   3.424   2.566   4.454  0.3855 -0.4412  0.5266
 6464TIP3   OH243586   2.779   0.509   2.356 -0.4975 -0.9310  0.6457
 6464TIP3    H143587   2.741   0.578   2.410  2.1322  1.3527 -0.2190
 6464TIP3    H243588   2.714   0.438   2.360 -3.6930  1.7322  1.1005
 6465TIP3   OH243589   4.464   5.461   4.432  0.6370  0.3721 -0.2027
 6465TIP3    H143590   4.472   5.502   4.518 -0.1090 -0.7282  0.4232
 6465TIP3    H243591   4.515   5.381   4.439 -0.0969 -0.1305 -0.5067
 6466TIP3   OH243592   2.172   6.375   3.998 -0.3277  0.2862 -0.3599
 6466TIP3    H143593   2.169   6.281   4.013 -1.3707  0.4214  0.4270
 6466TIP3    H243594   2.080   6.401   3.995 -0.1204  1.6689  2.2022
 6467TIP3   OH243595   3.314   2.270   2.653 -0.2253 -0.1938  0.6167
 6467TIP3    H143596   3.405   2.295   2.636 -0.2099  0.0617  1.0447
 6467TIP3    H243597   3.309   2.179   2.625  0.2033 -0.2568  0.7262
 6468TIP3   OH243598   2.504   4.642   4.851  0.5051 -0.3104 -0.3333
 6468TIP3    H143599   2.461   4.653   4.936  0.8840  0.4163 -0.2272
 6468TIP3    H243600   2.455   4.572   4.808  0.9904 -1.4330  0.9078
 6469TIP3   OH243601   4.811   0.975   3.694  0.1727  0.0186  0.2438
 6469TIP3    H143602   4.748   1.042   3.718 -2.1258 -2.2768  0.9977
 6469TIP3    H243603   4.820   0.920   3.772  0.7228 -1.4877 -0.8259
 6470TIP3   OH243604   2.745   6.052   3.469  0.1890  0.0141 -0.0968
 6470TIP3    H143605   2.682   6.074   3.538 -0.8913 -0.8195 -0.7841
 6470TIP3    H243606   2.829   6.085   3.502 -0.3027 -0.3295  1.6025
 6471TIP3   OH243607   2.178   1.077   4.712  0.2543 -0.6560 -0.2845
 6471TIP3    H143608   2.183   0.986   4.742  0.4607 -0.5340  0.0655
 6471TIP3    H243609   2.264   1.114   4.733 -0.0010 -0.2406  0.0462
 6472TIP3   OH243610   4.842   3.358   2.138 -0.2792  0.2951 -0.8147
 6472TIP3    H143611   4.920   3.375   2.190 -1.9486 -0.4873  2.1595
 6472TIP3    H243612   4.861   3.275   2.093 -0.3128 -1.4726  2.1263
 6473TIP3   OH243613   6.760   6.679   2.586 -0.3675 -0.0685  0.1070
 6473TIP3    H143614   6.721   6.640   2.665  0.6333 -0.0209  0.6409
 6473TIP3    H243615   6.775   6.605   2.528  0.2143 -0.3024  0.5454
 6474TIP3   OH243616   1.807   2.500   4.199 -0.7745 -0.1821 -0.7695
 6474TIP3    H143617   1.840   2.590   4.193 -0.1250 -0.3951 -0.3861
 6474TIP3    H243618   1.851   2.463   4.275 -1.0594 -0.8249 -0.9128
 6475TIP3   OH243619   3.154   0.624   4.888  0.2932  0.5598 -0.6754
 6475TIP3    H143620   3.231   0.609   4.942 -0.6154  1.0882  0.8533
 6475TIP3    H243621   3.143   0.719   4.887  0.1363  0.5378 -1.5708
 6476TIP3   OH243622   0.316   1.967   3.551 -0.3288  0.1276  0.2091
 6476TIP3    H143623   0.280   2.019   3.479 -1.0049 -0.8347 -0.1664
 6476TIP3    H243624   0.335   1.882   3.511  0.0439 -0.1533  0.9844
 6477TIP3   OH243625   2.160   5.791   4.540  0.7838  0.4540  0.1283
 6477TIP3    H143626   2.209   5.872   4.554  0.7312  0.7875 -1.3939
 6477TIP3    H243627   2.227   5.723   4.533  0.9611  0.6908 -0.5620
 6478TIP3   OH243628   4.770   4.208   3.186  0.4181  0.6324  0.5988
 6478TIP3    H143629   4.854   4.246   3.212 -1.1447  3.4644  2.0723
 6478TIP3    H243630   4.755   4.242   3.097  0.7580  0.2266  0.3836
 6479TIP3   OH243631   2.703   5.435   2.705 -0.0742  0.6762  0.5355
 6479TIP3    H143632   2.623   5.454   2.657 -0.4077 -0.5880  0.5430
 6479TIP3    H243633   2.773   5.454   2.643 -0.5231 -2.4517 -1.1408
 6480TIP3   OH243634   2.652   3.237   3.143  0.1028  0.1853 -0.4072
 6480TIP3    H143635   2.738   3.255   3.182 -0.7544  0.7613  1.3276
 6480TIP3    H243636   2.619   3.323   3.117 -0.6460  0.1998  0.5262
 6481TIP3   OH243637   0.087   1.802   3.620  0.2403  0.5726  0.2311
 6481TIP3    H143638   0.168   1.843   3.649  1.0808  0.8455 -2.2154
 6481TIP3    H243639   0.101   1.785   3.526 -1.8146 -1.1303  0.1439
 6482TIP3   OH243640   5.908   1.271   2.723 -0.5333 -0.1187 -0.4180
 6482TIP3    H143641   5.951   1.195   2.683  0.7691  0.5584 -0.3578
 6482TIP3    H243642   5.894   1.332   2.651 -2.0686 -0.6001 -0.5655
 6483TIP3   OH243643   5.748   6.054   2.627  0.4423  0.5003  0.7813
 6483TIP3    H143644   5.812   6.080   2.561  1.6261 -0.7851  1.3757
 6483TIP3    H243645   5.789   6.079   2.710 -0.2170  0.4630  1.1197
 6484TIP3   OH243646   1.360   3.420   2.760  0.0478 -0.0236  0.1507
 6484TIP3    H143647   1.442   3.446   2.802 -0.1463 -0.7450  1.0165
 6484TIP3    H243648   1.299   3.408   2.832 -0.3592 -1.0690 -0.3397
 6485TIP3   OH243649   3.733   0.527   4.846 -0.1946  0.4872 -0.0524
 6485TIP3    H143650   3.688   0.603   4.810 -0.7118  0.3810  0.3472
 6485TIP3    H243651   3.670   0.489   4.908  0.4026  0.2614  0.4306
 6486TIP3   OH243652   1.826   5.505   5.566 -0.0476 -0.5379 -0.4018
 6486TIP3    H143653   1.891   5.569   5.536  1.1044 -1.2636  0.4612
 6486TIP3    H243654   1.817   5.444   5.493  1.2312 -1.1701 -0.0421
 6487TIP3   OH243655   4.645   5.195   2.136 -0.3126  0.2005  0.4879
 6487TIP3    H143656   4.640   5.225   2.226  3.6682 -0.9169  1.3077
 6487TIP3    H243657   4.663   5.274   2.085  1.1576  0.4186  1.2871
 6488TIP3   OH243658   3.891   6.717   4.736 -0.6685  0.4730 -0.5561
 6488TIP3    H143659   3.822   6.693   4.798 -0.1872  0.3022 -0.0782
 6488TIP3    H243660   3.941   6.637   4.724 -0.1440  0.7725 -0.3682
 6489TIP3   OH243661   5.210   2.848   4.735  0.2879 -0.5860  0.5921
 6489TIP3    H143662   5.116   2.828   4.729 -0.3615  2.0403  0.9521
 6489TIP3    H243663   5.229   2.844   4.828  0.7415 -1.7116  0.4782
 6490TIP3   OH243664   6.590   5.456   3.964  0.0898  0.2895  0.4783
 6490TIP3    H143665   6.554   5.408   3.890 -0.3224  1.6298 -0.2221
 6490TIP3    H243666   6.673   5.411   3.984 -0.1323 -0.5074 -0.3333
 6491TIP3   OH243667   2.457   3.318   2.255 -0.5812  0.1530  0.2562
 6491TIP3    H143668   2.408   3.248   2.212  0.9665 -1.1225  0.4947
 6491TIP3    H243669   2.390   3.382   2.280 -2.1028 -1.4287  0.4123
 6492TIP3   OH243670   5.211   2.968   4.418  0.2209  0.1776 -0.4900
 6492TIP3    H143671   5.116   2.961   4.425  0.4250 -2.3420  0.6694
 6492TIP3    H243672   5.235   3.031   4.487 -0.6454  1.8705 -1.6626
 6493TIP3   OH243673   4.942   4.267   4.228  0.0538 -0.3156 -0.2959
 6493TIP3    H143674   4.867   4.270   4.168  0.0662  0.8835 -0.2780
 6493TIP3    H243675   4.906   4.236   4.311 -0.3126 -0.2925 -0.4466
 6494TIP3   OH243676   5.590   4.822   2.072 -0.0722  0.4093  0.6878
 6494TIP3    H143677   5.644   4.823   1.993 -1.4865 -0.1220 -0.3184
 6494TIP3    H243678   5.576   4.915   2.092 -0.5748  0.5648 -0.3191
 6495TIP3   OH243679   5.055   6.704   5.012  0.2310  0.1848  0.0717
 6495TIP3    H143680   4.967   6.743   5.015 -0.5442 -1.5104  0.9880
 6495TIP3    H243681   5.099   6.739   5.089 -0.2055 -0.1694  0.4913
 6496TIP3   OH243682   6.098   5.142   2.364  0.1609 -0.5126 -0.7423
 6496TIP3    H143683   6.038   5.079   2.323  0.2854 -1.1349  0.0151
 6496TIP3    H243684   6.179   5.092   2.377  0.5587  0.0663 -0.9435
 6497TIP3   OH243685   1.475   3.879   4.313 -0.1069 -0.0105  0.0778
 6497TIP3    H143686   1.400   3.872   4.253  0.1688  0.5185 -0.3372
 6497TIP3    H243687   1.495   3.973   4.315 -0.0132 -0.0425  0.8830
 6498TIP3   OH243688   2.957   5.631   2.596 -0.0199 -0.7191 -0.1095
 6498TIP3    H143689   2.887   5.683   2.558  1.3240  0.8067 -0.6472
 6498TIP3    H243690   2.980   5.568   2.527 -0.6770 -1.0441 -0.0333
 6499TIP3   OH243691   1.566   3.050   3.873  0.4384  0.2026  0.1111
 6499TIP3    H143692   1.607   3.054   3.786  0.0196 -2.9700 -0.3433
 6499TIP3    H243693   1.639   3.028   3.932  0.2807 -0.2635  0.1337
 6500TIP3   OH243694   6.065   0.084   3.854 -0.3532 -0.4882  0.0473
 6500TIP3    H143695   6.100   0.168   3.824  0.9123 -0.8369  0.4647
 6500TIP3    H243696   5.990   0.107   3.908 -0.7403  0.3057 -0.8126
 6501TIP3   OH243697   1.614   0.479   4.422  0.2856  0.2668 -0.0313
 6501TIP3    H143698   1.597   0.481   4.516  0.7231  1.4603  0.0409
 6501TIP3    H243699   1.625   0.386   4.402  0.5260  0.0175  1.1597
 6502TIP3   OH243700   3.851   6.569   3.985 -0.2486 -0.1128 -0.4023
 6502TIP3    H143701   3.877   6.622   4.060 -2.3905  0.0875  0.2799
 6502TIP3    H243702   3.847   6.480   4.018  0.6685 -0.3279 -0.8257
 6503TIP3   OH243703   6.043   1.176   4.134 -0.4078  0.3058  0.1951
 6503TIP3    H143704   5.955   1.147   4.159  0.1367 -1.4319  0.2087
 6503TIP3    H243705   6.077   1.220   4.211 -0.9531  0.2605  0.4687
 6504TIP3   OH243706   2.126   6.033   2.667  0.3047 -0.0647  0.3685
 6504TIP3    H143707   2.105   6.013   2.758  0.0655 -1.8298 -0.0471
 6504TIP3    H243708   2.098   6.124   2.656 -0.2459 -0.0182  1.8785
 6505TIP3   OH243709   2.765   1.341   2.691  0.0105 -0.1587  0.2159
 6505TIP3    H143710   2.760   1.432   2.721  0.1487 -1.0381  3.2578
 6505TIP3    H243711   2.724   1.290   2.762  1.1286 -2.5765 -0.7503
 6506TIP3   OH243712   3.560   1.177   2.323  0.1896 -0.1979 -0.3595
 6506TIP3    H143713   3.502   1.158   2.249  1.8160 -2.3215 -1.2026
 6506TIP3    H243714   3.525   1.124   2.395  0.3080 -0.4453 -0.4823
 6507TIP3   OH243715   0.285   4.464   3.348 -0.0628  0.8046 -0.5525
 6507TIP3    H143716   0.370   4.505   3.362  0.4827 -0.1269 -0.9937
 6507TIP3    H243717   0.261   4.487   3.258 -1.6879  3.4874  0.4695
 6508TIP3   OH243718   2.328   6.427   2.289 -0.3921 -0.2091  0.0689
 6508TIP3    H143719   2.397   6.466   2.342  1.0488 -0.1551 -1.7341
 6508TIP3    H243720   2.323   6.483   2.212  0.2818 -2.3466 -1.6252
 6509TIP3   OH243721   6.184   4.521   4.599 -0.3549  0.3374 -0.1656
 6509TIP3    H143722   6.100   4.565   4.585 -1.4329 -1.2825  0.7682
 6509TIP3    H243723   6.211   4.548   4.687  0.2719  1.0771 -0.5736
 6510TIP3   OH243724   3.531   2.073   2.944  0.0343 -0.2933 -0.0426
 6510TIP3    H143725   3.604   2.040   2.890  1.1248  0.1182  1.1217
 6510TIP3    H243726   3.528   2.167   2.924 -0.1961 -0.3156 -0.1081
 6511TIP3   OH243727   4.341   3.441   1.877 -0.0446  0.0705 -0.7355
 6511TIP3    H143728   4.295   3.359   1.896 -1.2593  0.5686 -1.4439
 6511TIP3    H243729   4.273   3.499   1.844  0.9408  1.1412 -0.9112
 6512TIP3   OH243730   0.195   6.103   4.226 -0.4479 -0.3856  0.1041
 6512TIP3    H143731   0.173   6.019   4.184  0.9278 -0.3147 -0.7961
 6512TIP3    H243732   0.166   6.169   4.163 -0.2506 -0.2160  0.1935
 6513TIP3   OH243733   0.351   4.721   3.102  0.0238  0.0601  0.1865
 6513TIP3    H143734   0.421   4.761   3.049 -0.9891  0.3384 -0.9944
 6513TIP3    H243735   0.278   4.782   3.095 -1.1678 -1.3940 -0.6624
 6514TIP3   OH243736   6.700   6.192   4.468 -0.4433 -0.0263  0.1311
 6514TIP3    H143737   6.783   6.145   4.467 -0.7791 -0.6174  0.0013
 6514TIP3    H243738   6.678   6.201   4.561 -0.4643 -0.2780  0.1496
 6515TIP3   OH243739   0.601   2.653   3.803  0.3521 -0.1310  0.2482
 6515TIP3    H143740   0.549   2.634   3.725  1.8881 -1.1559 -0.5717
 6515TIP3    H243741   0.538   2.650   3.875 -0.6427 -1.9332 -0.6410
 6516TIP3   OH243742   1.161   2.632   4.231  0.2348 -0.2251  0.1179
 6516TIP3    H143743   1.190   2.719   4.257  0.4917  0.4078 -2.0481
 6516TIP3    H243744   1.237   2.592   4.189  0.4240 -1.9354  1.9508
 6517TIP3   OH243745   4.700   3.913   3.253  0.1862  0.3948 -0.2302
 6517TIP3    H143746   4.653   3.831   3.243  0.2028 -0.0921  2.7801
 6517TIP3    H243747   4.656   3.974   3.193 -1.9958 -0.9399 -0.0876
 6518TIP3   OH243748   2.187   5.561   4.984  0.2075  0.8042  0.3220
 6518TIP3    H143749   2.137   5.480   5.000  0.2227  0.6058 -0.5847
 6518TIP3    H243750   2.248   5.538   4.913  1.3193  1.1630  1.1429
 6519TIP3   OH243751   0.177   3.931   5.201 -0.5125 -0.0753  0.2219
 6519TIP3    H143752   0.234   3.854   5.202 -1.4798 -0.8083  0.7837
 6519TIP3    H243753   0.201   3.977   5.121  1.1459 -0.1315  0.6504
 6520TIP3   OH243754   2.950   4.282   2.305  0.0696 -0.0455 -0.2795
 6520TIP3    H143755   2.909   4.347   2.247  0.8931 -0.0866 -0.9187
 6520TIP3    H243756   3.018   4.330   2.352 -1.2074  0.2205  1.4099
 6521TIP3   OH243757   4.100   3.209   4.364  0.7624  0.5645 -0.0141
 6521TIP3    H143758   4.179   3.233   4.410  1.2227 -0.5706 -0.1666
 6521TIP3    H243759   4.042   3.174   4.432  1.0183 -0.0810 -0.1156
 6522TIP3   OH243760   1.118   5.061   5.174 -0.3460  0.1224 -0.1667
 6522TIP3    H143761   1.197   5.056   5.228 -0.0729  0.9377 -0.4858
 6522TIP3    H243762   1.064   4.988   5.205  0.2550 -0.0583  0.4864
 6523TIP3   OH243763   4.538   0.266   2.796 -0.4726 -0.1919  0.4320
 6523TIP3    H143764   4.633   0.269   2.805 -0.1722 -3.0715 -0.7104
 6523TIP3    H243765   4.517   0.334   2.731  0.7252  0.7535  1.0129
 6524TIP3   OH243766   1.244   5.514   2.538  0.3495  0.5490 -0.7023
 6524TIP3    H143767   1.262   5.444   2.601 -2.0569  1.7774  1.5255
 6524TIP3    H243768   1.222   5.468   2.457  0.6095 -1.1925  0.1627
 6525TIP3   OH243769   4.580   6.052   2.156  0.8634 -0.2666 -0.6903
 6525TIP3    H143770   4.662   6.005   2.168  2.0059  1.2553 -2.0529
 6525TIP3    H243771   4.565   6.051   2.062  0.5295  1.3817 -0.6900
 6526TIP3   OH243772   5.033   0.146   5.521  0.1057  0.6477 -0.3651
 6526TIP3    H143773   4.984   0.065   5.506  0.3818  0.4366 -0.1314
 6526TIP3    H243774   5.111   0.137   5.466  0.3996  0.5176  0.0688
 6527TIP3   OH243775   1.811   4.209   5.042  0.0609 -0.5195 -0.2805
 6527TIP3    H143776   1.862   4.284   5.011  0.3771 -0.4010  0.4762
 6527TIP3    H243777   1.878   4.148   5.075 -0.2717 -0.2617  0.9485
 6528TIP3   OH243778   3.705   5.983   4.484  0.1394  0.2303 -0.4272
 6528TIP3    H143779   3.740   5.927   4.414  0.0395  1.4077 -1.4531
 6528TIP3    H243780   3.781   6.033   4.515  0.2885 -0.6465  0.6927
 6529TIP3   OH243781   0.563   6.605   3.929 -0.2421  1.2180 -0.8483
 6529TIP3    H143782   0.535   6.514   3.926  1.1912  0.7276 -0.1468
 6529TIP3    H243783   0.522   6.640   4.009  2.2207  0.0737  1.0466
 6530TIP3   OH243784   5.006   2.555   4.326  0.2318 -0.8641 -0.0715
 6530TIP3    H143785   5.074   2.615   4.355 -0.1120 -1.4099  2.0041
 6530TIP3    H243786   4.924   2.599   4.348 -0.0617 -1.0866 -0.6964
 6531TIP3   OH243787   5.848   3.338   3.612  0.8055  0.4029 -0.2320
 6531TIP3    H143788   5.880   3.406   3.671 -0.2556  0.4941  0.2628
 6531TIP3    H243789   5.774   3.299   3.658  0.4378 -0.0428 -1.1731
 6532TIP3   OH243790   2.929   6.568   2.980  0.4845  0.1666 -0.2971
 6532TIP3    H143791   2.966   6.503   3.040  0.5917  0.1675 -0.3635
 6532TIP3    H243792   2.855   6.523   2.939  0.9521 -0.1269 -0.8229
 6533TIP3   OH243793   6.427   5.235   3.829  0.3252  0.3340 -0.0929
 6533TIP3    H143794   6.338   5.217   3.858 -0.2448  0.4750 -1.6898
 6533TIP3    H243795   6.417   5.287   3.749  1.8365  0.2245 -0.3854
 6534TIP3   OH243796   1.688   2.141   3.295  0.1811  0.4947 -0.5664
 6534TIP3    H143797   1.656   2.074   3.234 -0.9587  0.5267 -0.0353
 6534TIP3    H243798   1.712   2.214   3.239  0.6679 -0.0596 -1.0929
 6535TIP3   OH243799   3.760   1.678   3.918  0.1596 -0.0763  0.7579
 6535TIP3    H143800   3.713   1.697   3.999  0.4260  0.0369  0.8873
 6535TIP3    H243801   3.842   1.637   3.946 -0.6719 -2.0593  0.4603
 6536TIP3   OH243802   2.491   5.225   3.306 -0.6824 -0.2749 -0.2197
 6536TIP3    H143803   2.533   5.140   3.313 -1.1193 -0.5748 -1.0431
 6536TIP3    H243804   2.470   5.234   3.213 -0.6818  0.7147 -0.1389
 6537TIP3   OH243805   3.255   1.390   3.583  0.0085  0.2012  0.3423
 6537TIP3    H143806   3.216   1.304   3.573  0.3932  0.1353 -0.7617
 6537TIP3    H243807   3.224   1.421   3.668 -0.1666 -1.0003  0.7349
 6538TIP3   OH243808   1.473   5.212   4.660 -0.0813  1.0291  0.3846
 6538TIP3    H143809   1.558   5.179   4.690 -0.5199  0.7105  1.2975
 6538TIP3    H243810   1.477   5.203   4.564  0.6267  0.3131  0.4686
 6539TIP3   OH243811   5.769   1.690   5.205  0.0167  0.4011  0.1693
 6539TIP3    H143812   5.770   1.647   5.291 -1.5570  0.8000  0.4264
 6539TIP3    H243813   5.857   1.676   5.170  1.1426  1.3099  2.3786
 6540TIP3   OH243814   3.471   2.631   4.051 -0.0126 -0.3122 -0.2818
 6540TIP3    H143815   3.462   2.591   4.138 -0.6951 -0.4649 -0.4139
 6540TIP3    H243816   3.476   2.556   3.991 -0.9889 -0.2170 -0.5034
 6541TIP3   OH243817   1.971   6.168   5.093  0.1075 -0.6269 -0.3279
 6541TIP3    H143818   1.880   6.186   5.068  0.3126 -0.4469 -0.9744
 6541TIP3    H243819   1.989   6.231   5.163  0.2553  0.5224 -1.3593
 6542TIP3   OH243820   4.023   2.410   4.456  0.1314  0.0664 -0.2635
 6542TIP3    H143821   3.932   2.439   4.446 -0.0377 -0.1926  0.4664
 6542TIP3    H243822   4.017   2.321   4.489  0.6134  0.6806  1.6524
 6543TIP3   OH243823   1.946   1.814   3.615 -0.5248  0.1953 -0.0814
 6543TIP3    H143824   1.981   1.769   3.692 -0.7076 -1.3114 -0.8272
 6543TIP3    H243825   1.921   1.900   3.646  0.1788 -0.0913  1.3527
 6544TIP3   OH243826   1.310   4.891   3.771 -0.5684  0.1527  0.2266
 6544TIP3    H143827   1.221   4.860   3.754 -0.7725  0.5086  0.6095
 6544TIP3    H243828   1.349   4.822   3.824 -0.2498 -0.5085 -0.8416
 6545TIP3   OH243829   6.338   4.855   5.181  0.3596 -0.1291  0.1583
 6545TIP3    H143830   6.381   4.788   5.129 -2.1109 -1.1316 -0.7411
 6545TIP3    H243831   6.329   4.817   5.268 -0.5541 -0.7776 -0.2090
 6546TIP3   OH243832   3.719   2.975   2.069  0.0854  0.5711  0.3581
 6546TIP3    H143833   3.748   2.884   2.077  0.4905  0.7304  0.7723
 6546TIP3    H243834   3.637   2.970   2.020 -0.2998 -0.0871  1.0358
 6547TIP3   OH243835   1.919   6.742   3.117 -0.3401  0.2010  0.0908
 6547TIP3    H143836   1.975   6.699   3.053 -2.6017 -3.4837  0.2740
 6547TIP3    H243837   1.955   6.716   3.202 -0.8749 -0.1381  0.2204
 6548TIP3   OH243838   6.841   4.307   4.642  0.5964 -0.3089  0.5018
 6548TIP3    H143839   6.898   4.290   4.717  0.9842 -0.3267  0.2129
 6548TIP3    H243840   6.886   4.264   4.569 -1.1338 -2.7077  0.7211
 6549TIP3   OH243841   0.715   4.002   3.437  0.6771 -0.3604 -0.4458
 6549TIP3    H143842   0.689   3.968   3.351  0.2275 -0.8242 -0.1303
 6549TIP3    H243843   0.663   3.951   3.500  0.7754  0.1901  0.0879
 6550TIP3   OH243844   0.635   5.063   4.662  0.3708 -1.0472 -0.0818
 6550TIP3    H143845   0.667   5.013   4.737  1.0239 -1.1206 -0.4057
 6550TIP3    H243846   0.568   5.007   4.623  0.9678 -1.5959 -0.3369
 6551TIP3   OH243847   0.222   6.114   3.430 -0.1851 -0.8227  0.0777
 6551TIP3    H143848   0.251   6.023   3.424 -1.1152 -1.0534 -1.4046
 6551TIP3    H243849   0.226   6.146   3.340 -0.1543  0.5142  0.5410
 6552TIP3   OH243850   1.570   0.504   2.132  0.1075 -0.4829 -0.4613
 6552TIP3    H143851   1.496   0.466   2.084  0.5954 -0.6165 -1.1220
 6552TIP3    H243852   1.609   0.430   2.178 -0.5330 -0.3050  0.3868
 6553TIP3   OH243853   1.280   5.104   2.608 -0.5812  0.1902 -0.3787
 6553TIP3    H143854   1.196   5.144   2.632 -0.2470  0.2141  0.8280
 6553TIP3    H243855   1.345   5.156   2.656 -0.2068 -2.5205  2.3643
 6554TIP3   OH243856   3.822   4.996   4.922  0.0816  0.1688 -0.4773
 6554TIP3    H143857   3.759   5.041   4.979  0.7239  0.8077 -0.2657
 6554TIP3    H243858   3.825   4.906   4.956  0.0610  0.4060  0.1617
 6555TIP3   OH243859   0.007   0.681   2.166  0.1434 -0.2500  0.3731
 6555TIP3    H143860  -0.044   0.755   2.135  0.6103  0.3421  0.9857
 6555TIP3    H243861   0.038   0.637   2.087 -0.2038  0.1657  0.0083
 6556TIP3   OH243862   3.785   5.839   1.800 -0.4974  0.0963 -0.1231
 6556TIP3    H143863   3.779   5.860   1.707 -1.5605 -0.6647 -0.2366
 6556TIP3    H243864   3.720   5.897   1.841 -0.4777 -0.0178  0.0659
 6557TIP3   OH243865   5.767   5.278   3.251 -0.0339 -0.4516 -0.1240
 6557TIP3    H143866   5.832   5.228   3.301 -0.8430 -0.6713  0.7478
 6557TIP3    H243867   5.804   5.284   3.163  0.9836 -0.8979  0.2517
 6558TIP3   OH243868   2.567   3.036   4.756 -0.2602 -0.4458  0.3517
 6558TIP3    H143869   2.571   3.066   4.847 -0.8255 -3.5031  1.5150
 6558TIP3    H243870   2.478   3.002   4.745 -0.0979 -0.4448 -1.2379
 6559TIP3   OH243871   4.517   6.136   2.414  0.4169  0.8440 -0.1430
 6559TIP3    H143872   4.453   6.085   2.463  0.8314  0.5439  0.1041
 6559TIP3    H243873   4.521   6.093   2.328  2.1546 -0.7845  0.6782
 6560TIP3   OH243874   0.397   1.154   3.426 -0.0334 -0.0870  0.5100
 6560TIP3    H143875   0.309   1.145   3.462 -0.3863 -0.2813 -0.3834
 6560TIP3    H243876   0.385   1.153   3.331  1.1465 -2.8599  0.2816
 6561TIP3   OH243877   6.620   2.592   3.706 -0.6155 -0.5657 -1.2993
 6561TIP3    H143878   6.571   2.659   3.658 -0.0554  0.2924 -0.6892
 6561TIP3    H243879   6.658   2.537   3.637  0.9000  1.1515 -1.9022
 6562TIP3   OH243880   3.233   4.194   2.718  0.2477  0.0775  0.2440
 6562TIP3    H143881   3.153   4.155   2.752 -1.4074  2.2864 -0.8456
 6562TIP3    H243882   3.235   4.167   2.626  0.9975 -0.3083  0.3708
 6563TIP3   OH243883   3.852   6.643   2.051 -0.2972 -0.4701 -0.1765
 6563TIP3    H143884   3.901   6.581   1.997  0.7253  0.6349 -0.5829
 6563TIP3    H243885   3.763   6.640   2.017 -0.1067 -1.2158 -0.6253
 6564TIP3   OH243886   6.221   0.201   5.120 -0.0983  0.2424 -0.1021
 6564TIP3    H143887   6.276   0.150   5.180  0.2400  1.6465  0.8295
 6564TIP3    H243888   6.208   0.143   5.045  1.7243 -0.5734  0.1458
 6565TIP3   OH243889   0.986   4.935   3.943 -0.1910 -0.0341 -0.1652
 6565TIP3    H143890   0.933   4.924   4.022  0.8389 -1.0338  0.4186
 6565TIP3    H243891   1.074   4.952   3.976  1.2282 -4.6011 -0.8918
 6566TIP3   OH243892   4.043   2.648   2.132 -0.6446 -0.4809  0.3139
 6566TIP3    H143893   3.956   2.641   2.092 -0.2623  4.2447 -2.1383
 6566TIP3    H243894   4.103   2.626   2.061  0.2930 -3.1305  1.8262
 6567TIP3   OH243895   4.852   0.558   3.888 -0.2189 -0.0655 -0.2529
 6567TIP3    H143896   4.784   0.532   3.825  0.8112  1.1149 -1.9041
 6567TIP3    H243897   4.827   0.646   3.915 -0.8962 -0.7209  1.4048
 6568TIP3   OH243898   1.781   6.696   2.096 -0.2388  0.4327  0.2566
 6568TIP3    H143899   1.854   6.718   2.038  0.1003 -0.2528  0.4156
 6568TIP3    H243900   1.806   6.613   2.136 -1.4421 -0.1943 -0.2427
 6569TIP3   OH243901   5.296   0.470   4.817 -0.7581  0.1734 -0.2221
 6569TIP3    H143902   5.219   0.415   4.800  0.4610 -1.9456  0.7857
 6569TIP3    H243903   5.272   0.520   4.895 -1.7943  0.9458 -1.0092
 6570TIP3   OH243904   1.717   3.187   2.535 -0.3918  0.0579 -0.1487
 6570TIP3    H143905   1.622   3.196   2.534 -0.6860 -2.0133  1.3688
 6570TIP3    H243906   1.743   3.220   2.621 -0.2490 -2.6155  0.9317
 6571TIP3   OH243907   0.909   4.613   3.312 -0.3220  0.5111  0.3247
 6571TIP3    H143908   0.866   4.530   3.292 -1.4754  1.3111 -0.6628
 6571TIP3    H243909   0.917   4.614   3.407 -1.2900 -0.2567  0.4295
 6572TIP3   OH243910   0.814   1.880   2.388  0.0570 -0.2667  0.2137
 6572TIP3    H143911   0.812   1.941   2.461 -1.0889  0.7917 -0.6652
 6572TIP3    H243912   0.761   1.922   2.320 -0.2973 -1.9825 -0.6221
 6573TIP3   OH243913   6.215   3.706   3.220  0.6223  0.1473  0.5972
 6573TIP3    H143914   6.233   3.766   3.147 -0.8677 -2.1939 -1.9001
 6573TIP3    H243915   6.123   3.721   3.242 -0.0181 -1.6378 -0.6197
 6574TIP3   OH243916   1.808   0.853   3.114  0.1675  0.2873  0.6685
 6574TIP3    H143917   1.800   0.928   3.173  0.2820  1.3957 -0.6950
 6574TIP3    H243918   1.775   0.779   3.166  1.3094  0.9971  2.5181
 6575TIP3   OH243919   4.674   5.752   3.824 -0.1308 -0.5251 -0.2288
 6575TIP3    H143920   4.731   5.816   3.866 -0.5275  0.1538 -0.7201
 6575TIP3    H243921   4.642   5.795   3.745 -0.9904 -1.0542 -0.1879
 6576TIP3   OH243922   0.739   6.367   2.344  0.2407 -0.4020 -0.2568
 6576TIP3    H143923   0.686   6.350   2.422 -1.2533  2.7246 -0.4311
 6576TIP3    H243924   0.682   6.342   2.271  0.4863 -0.5600 -0.3943
 6577TIP3   OH243925   2.928   2.252   2.737 -0.0111 -0.1006  0.1642
 6577TIP3    H143926   2.834   2.237   2.729 -0.2373  1.0716  0.4980
 6577TIP3    H243927   2.955   2.280   2.650  0.0243 -0.4017  0.0777
 6578TIP3   OH243928   1.573   5.553   3.459  0.3395  0.3275 -0.2452
 6578TIP3    H143929   1.541   5.577   3.372 -2.1372  1.4498  0.8903
 6578TIP3    H243930   1.547   5.461   3.469 -2.4239  1.1262  0.5259
 6579TIP3   OH243931   6.673   2.431   2.115 -0.6874  0.4203 -0.5137
 6579TIP3    H143932   6.582   2.438   2.086 -0.7330  2.0336 -0.0362
 6579TIP3    H243933   6.690   2.512   2.163  1.3976  0.7606 -1.6957
 6580TIP3   OH243934   4.247   2.192   2.538  0.6379 -0.0475 -0.2589
 6580TIP3    H143935   4.303   2.167   2.611  0.2222  0.1859  0.1461
 6580TIP3    H243936   4.161   2.155   2.561 -0.0045  1.7362  0.3604
 6581TIP3   OH243937   5.040   6.362   3.591 -0.0393  0.3481  0.0087
 6581TIP3    H143938   5.069   6.290   3.647 -0.2983 -0.9157 -1.4280
 6581TIP3    H243939   5.118   6.388   3.542  0.3271  1.8363  1.2940
 6582TIP3   OH243940   5.051   2.127   3.007  0.8854 -0.2469  0.2491
 6582TIP3    H143941   4.980   2.083   3.054  0.7822  0.6368  0.9563
 6582TIP3    H243942   5.131   2.090   3.044  0.9016 -3.2195 -2.3996
 6583TIP3   OH243943   1.680   4.147   3.351  0.2225  0.1150  0.2945
 6583TIP3    H143944   1.700   4.218   3.412 -0.2774  1.4559 -1.0296
 6583TIP3    H243945   1.595   4.113   3.381 -0.9563  2.0140 -0.6726
 6584TIP3   OH243946   5.223   2.883   3.501  0.1845  0.0368 -0.0942
 6584TIP3    H143947   5.248   2.972   3.475  0.3255 -0.1578 -0.6600
 6584TIP3    H243948   5.274   2.826   3.442  0.7010 -0.4423  0.7903
 6585TIP3   OH243949   4.884   5.802   4.316  0.2977  0.2522  0.1124
 6585TIP3    H143950   4.941   5.778   4.243  1.1030  1.2884  0.3756
 6585TIP3    H243951   4.910   5.743   4.387 -2.9107 -3.2929 -1.3444
 6586TIP3   OH243952   6.600   2.281   3.297 -0.4075  0.1627  0.0500
 6586TIP3    H143953   6.661   2.211   3.273 -1.5009 -1.0673  0.7658
 6586TIP3    H243954   6.641   2.361   3.263  1.7770 -0.5720  0.7923
 6587TIP3   OH243955   6.218   2.127   2.181  0.3237  0.6505  0.4706
 6587TIP3    H143956   6.242   2.034   2.179  3.0834  1.0900  3.6583
 6587TIP3    H243957   6.122   2.127   2.185  0.0954 -1.8517 -1.8991
 6588TIP3   OH243958   0.792   1.572   2.910  0.0312  0.2372  0.2423
 6588TIP3    H143959   0.775   1.496   2.854 -1.4473  1.0037 -0.4270
 6588TIP3    H243960   0.818   1.535   2.994 -0.2282 -0.9990 -0.2000
 6589TIP3   OH243961   0.525   4.804   2.256  0.5419  0.0654 -0.3914
 6589TIP3    H143962   0.496   4.740   2.191 -0.8629  0.1813  0.0829
 6589TIP3    H243963   0.454   4.868   2.259 -0.3435 -0.8935  2.5604
 6590TIP3   OH243964   1.131   4.686   4.986 -0.1214  0.2176  0.6098
 6590TIP3    H143965   1.078   4.715   5.061  1.4512  1.0268  1.4548
 6590TIP3    H243966   1.205   4.747   4.984  0.4188 -0.4478 -0.9735
 6591TIP3   OH243967   6.389   6.436   3.029 -0.7267  0.2317 -0.2380
 6591TIP3    H143968   6.371   6.516   2.981 -0.2292  1.0541  0.8769
 6591TIP3    H243969   6.463   6.396   2.983 -0.9124  0.4703 -0.7430
 6592TIP3   OH243970   5.325   5.831   2.656 -0.2069  0.1465  0.2513
 6592TIP3    H143971   5.403   5.787   2.689 -0.3184  0.6998  1.2832
 6592TIP3    H243972   5.344   5.848   2.563  0.9003  0.3195  0.5026
 6593TIP3   OH243973   5.713   4.361   2.345  0.6713  0.3950 -0.6750
 6593TIP3    H143974   5.781   4.429   2.342  0.4739  0.7272  1.2764
 6593TIP3    H243975   5.630   4.410   2.345  0.5315  0.2651  1.4176
 6594TIP3   OH243976   0.593   3.115   2.973  0.4541  0.2563  0.2132
 6594TIP3    H143977   0.684   3.136   2.955  0.4051  0.6995  0.4633
 6594TIP3    H243978   0.566   3.179   3.039 -0.1247  0.3169 -0.0750
 6595TIP3   OH243979   3.897   4.373   3.886 -0.5119  0.3020 -0.2911
 6595TIP3    H143980   3.908   4.460   3.848  0.2627  0.0864 -0.5850
 6595TIP3    H243981   3.845   4.388   3.965 -0.1278  1.0804 -0.1704
 6596TIP3   OH243982   2.319   1.621   5.070 -0.8681 -0.6606 -0.1188
 6596TIP3    H143983   2.244   1.658   5.118 -1.6279  1.3571 -2.6429
 6596TIP3    H243984   2.333   1.681   4.997  3.1642 -1.0500  0.0956
 6597TIP3   OH243985   2.752   3.657   5.113 -0.4421  0.2475 -0.1483
 6597TIP3    H143986   2.781   3.675   5.024  0.5964 -0.3948  0.0407
 6597TIP3    H243987   2.713   3.570   5.109  1.1209 -0.5207  0.3094
 6598TIP3   OH243988   0.922   5.529   2.734  0.1117  0.2892 -0.4558
 6598TIP3    H143989   0.935   5.494   2.822 -2.2386 -1.4065 -0.6705
 6598TIP3    H243990   0.917   5.624   2.746 -0.6689  0.0712  1.3418
 6599TIP3   OH243991   6.488   3.716   4.170 -0.0416  0.3437 -0.1414
 6599TIP3    H143992   6.401   3.675   4.170  0.1540 -0.1108 -1.2146
 6599TIP3    H243993   6.536   3.669   4.239 -0.7995  0.9663  0.8300
 6600TIP3   OH243994   0.288   5.342   4.474  0.2471 -0.4249  0.3860
 6600TIP3    H143995   0.317   5.254   4.451  0.0859 -0.2533 -0.5480
 6600TIP3    H243996   0.209   5.355   4.420  0.1304  0.1968  0.7014
 6601TIP3   OH243997   4.583   4.989   2.700 -0.4170  0.0568  0.1283
 6601TIP3    H143998   4.630   4.986   2.617 -0.6096 -1.7486  0.0336
 6601TIP3    H243999   4.652   4.991   2.766 -0.2643  1.4712 -0.0599
 6602TIP3   OH244000   6.249   3.837   2.967 -0.2018 -0.2481 -0.1598
 6602TIP3    H144001   6.162   3.860   2.934 -1.2133 -0.7442  2.0214
 6602TIP3    H244002   6.303   3.914   2.947 -1.2203  0.2361 -1.1640
 6603TIP3   OH244003   1.940   6.132   4.520  0.0956 -0.1647 -0.0762
 6603TIP3    H144004   1.881   6.161   4.451  1.0779 -0.0249 -0.8722
 6603TIP3    H244005   1.893   6.060   4.563 -0.7586  0.1189 -0.5103
 6604TIP3   OH244006   5.412   5.818   4.387 -0.6495 -0.2732  0.1996
 6604TIP3    H144007   5.433   5.733   4.349  1.5693  0.2231  0.1517
 6604TIP3    H244008   5.334   5.847   4.341 -0.6583 -1.6881 -0.7240
 6605TIP3   OH244009   6.757   5.218   4.074  0.3064 -0.2094 -0.0069
 6605TIP3    H144010   6.686   5.174   4.027  1.6416 -1.8627 -0.5584
 6605TIP3    H244011   6.836   5.198   4.024  1.6227 -0.9992  2.2223
 6606TIP3   OH244012   1.425   2.130   2.492 -0.1376  0.0431 -0.0595
 6606TIP3    H144013   1.427   2.047   2.444  1.8613 -0.6605  1.1257
 6606TIP3    H244014   1.371   2.188   2.438  0.3103 -1.3316 -2.0838
 6607TIP3   OH244015   1.517   0.128   3.634 -0.1195  0.1370  0.1238
 6607TIP3    H144016   1.454   0.063   3.604  0.5651 -1.2187  1.4819
 6607TIP3    H244017   1.586   0.126   3.568 -1.7194  2.1646 -1.7780
 6608TIP3   OH244018   1.171   1.423   4.526 -0.4331 -0.0356 -0.0333
 6608TIP3    H144019   1.075   1.415   4.525 -0.5360  1.0521 -0.3975
 6608TIP3    H244020   1.187   1.515   4.548  0.5038  0.0524 -1.0130
 6609TIP3   OH244021   2.984   3.604   2.264  0.1332 -0.2522 -0.1235
 6609TIP3    H144022   2.922   3.602   2.191  0.3817  2.2655 -0.4871
 6609TIP3    H244023   3.061   3.649   2.229 -0.2771  2.3493  1.9640
 6610TIP3   OH244024   2.355   2.249  12.073  0.0173  0.2466 -0.3293
 6610TIP3    H144025   2.294   2.267  12.144  0.4959 -1.3455  0.5221
 6610TIP3    H244026   2.413   2.326  12.070 -0.6503  0.7782  0.2994
 6611TIP3   OH244027   2.977   5.327   5.168 -0.1598 -0.0736  0.3932
 6611TIP3    H144028   2.967   5.384   5.092 -0.7888  0.5768  0.9479
 6611TIP3    H244029   2.916   5.255   5.152  0.7368 -0.6942 -0.3748
 6612TIP3   OH244030   2.047   0.672   3.045 -0.0396  0.7255 -0.6787
 6612TIP3    H144031   2.007   0.585   3.043  0.6099  0.4340 -1.9850
 6612TIP3    H244032   1.981   0.730   3.008 -1.3780  1.2557  2.2125
 6613TIP3   OH244033   4.740   5.588   2.288  0.5287  0.1192 -0.1107
 6613TIP3    H144034   4.755   5.675   2.251  1.1168 -0.1904 -0.6114
 6613TIP3    H244035   4.716   5.605   2.379  0.6551  0.8043 -0.1972
 6614TIP3   OH244036   2.944   6.223   3.646  1.0524 -0.3688  0.2825
 6614TIP3    H144037   3.015   6.177   3.691  2.7316  0.9203 -0.9565
 6614TIP3    H244038   2.876   6.233   3.713  2.6747 -0.2444  1.9867
 6615TIP3   OH244039   4.136   4.159   2.697 -0.5897  0.4736 -0.1303
 6615TIP3    H144040   4.077   4.084   2.702 -0.6894  0.5499 -0.1614
 6615TIP3    H244041   4.223   4.123   2.715 -0.1967 -0.1759 -2.9351
 6616TIP3   OH244042   5.997   5.336   5.301 -0.1214 -0.0924  0.4770
 6616TIP3    H144043   5.980   5.359   5.392  0.3128  0.3112  0.4592
 6616TIP3    H244044   6.064   5.397   5.273 -0.4859 -0.0016 -0.2176
 6617TIP3   OH244045   6.605   6.245   4.736  0.0980 -0.4618  0.6545
 6617TIP3    H144046   6.670   6.297   4.784  1.9806 -1.2342 -0.9364
 6617TIP3    H244047   6.545   6.215   4.804  0.0105  2.1773  1.8778
 6618TIP3   OH244048   0.689   2.242   5.328 -0.3535  0.8513 -0.3664
 6618TIP3    H144049   0.781   2.216   5.324 -0.3347  1.0271 -1.5116
 6618TIP3    H244050   0.647   2.175   5.381  0.2286  0.1272 -0.8046
 6619TIP3   OH244051   6.641   0.688   4.514 -0.1860  0.4522  0.3056
 6619TIP3    H144052   6.690   0.708   4.595 -0.9712 -0.6795  1.0903
 6619TIP3    H244053   6.704   0.703   4.444  1.1539 -0.4531  1.2615
 6620TIP3   OH244054   1.648   2.353   3.866 -0.6223 -0.3884  0.2649
 6620TIP3    H144055   1.626   2.446   3.868 -1.2990 -0.5405 -0.0097
 6620TIP3    H244056   1.573   2.311   3.824  0.9076 -0.7237 -2.3849
 6621TIP3   OH244057   0.440   3.770   4.413  0.1693  0.2103 -0.0846
 6621TIP3    H144058   0.414   3.685   4.375 -1.8934 -0.0739  1.7697
 6621TIP3    H244059   0.371   3.830   4.385  0.7409  0.9067 -0.0131
 6622TIP3   OH244060   3.391   3.718   4.580  0.3725  0.1709 -0.4271
 6622TIP3    H144061   3.387   3.798   4.527 -0.9092  0.5575  0.2358
 6622TIP3    H244062   3.363   3.745   4.667 -2.1873 -1.4017 -0.6830
 6623TIP3   OH244063   5.877   3.197   2.198 -0.0511 -0.2122 -0.1299
 6623TIP3    H144064   5.886   3.106   2.169  1.6705 -0.3771  0.7575
 6623TIP3    H244065   5.960   3.238   2.172  0.7314  0.1389  2.6454
 6624TIP3   OH244066   2.048   5.834   2.177  0.2086  0.2690 -0.3288
 6624TIP3    H144067   1.987   5.762   2.158 -1.8438  2.0541 -1.0038
 6624TIP3    H244068   2.135   5.797   2.161 -0.7414 -2.0792 -0.4976
 6625TIP3   OH244069   6.264   6.241   2.071 -0.3980  0.3800 -0.0367
 6625TIP3    H144070   6.339   6.194   2.107 -2.0563 -1.8295  0.7956
 6625TIP3    H244071   6.210   6.172   2.031 -2.0601  1.8545 -0.4723
 6626TIP3   OH244072   4.120   2.732   2.588  0.1094 -0.1770  0.3711
 6626TIP3    H144073   4.134   2.659   2.648 -0.6011  0.8444  1.8279
 6626TIP3    H244074   4.026   2.731   2.571 -0.4926  2.2288  2.9316
 6627TIP3   OH244075   0.729   6.852   3.871 -0.1539  0.1269  0.4238
 6627TIP3    H144076   0.657   6.789   3.867  0.5159 -0.6260 -0.1284
 6627TIP3    H244077   0.734   6.877   3.963 -1.6681  0.8642  0.3464
 6628TIP3   OH244078   5.871   0.316   2.727 -0.2569  0.7652  0.3388
 6628TIP3    H144079   5.926   0.239   2.743  2.0679  2.4229  0.8588
 6628TIP3    H244080   5.816   0.322   2.805  0.2682  0.2191  0.7661
 6629TIP3   OH244081   0.297   2.985   5.323  0.3629  0.2522  0.1135
 6629TIP3    H144082   0.252   3.049   5.377  0.0089 -0.1627  0.3140
 6629TIP3    H244083   0.227   2.940   5.275  0.6328  0.2544 -0.2928
 6630TIP3   OH244084   2.620   5.693   5.304  0.1782  0.0994  0.2012
 6630TIP3    H144085   2.638   5.667   5.213  1.3283  1.1831  0.0886
 6630TIP3    H244086   2.680   5.765   5.320  0.5168 -0.5477  2.0720
 6631TIP3   OH244087   2.825   3.393   3.370  0.4723  0.1224 -0.3049
 6631TIP3    H144088   2.742   3.429   3.402 -0.5317 -1.6502 -0.7873
 6631TIP3    H244089   2.877   3.379   3.449 -0.4791 -0.5987  0.2168
 6632TIP3   OH244090   6.652   4.115   4.713  0.3386  0.1252  0.2396
 6632TIP3    H144091   6.674   4.150   4.799  0.7414  0.0704  0.1597
 6632TIP3    H244092   6.688   4.178   4.651 -0.6290  0.5674  0.1174
 6633TIP3   OH244093   0.951   1.178   4.216 -0.0487 -0.1534 -0.3754
 6633TIP3    H144094   1.016   1.120   4.256  0.7189 -0.3069 -1.7845
 6633TIP3    H244095   0.889   1.118   4.173 -0.7544  0.0106  0.3989
 6634TIP3   OH244096   1.928   4.281   4.183  0.2264  0.3836  0.8373
 6634TIP3    H144097   1.970   4.365   4.163  0.8568 -0.1908 -0.4022
 6634TIP3    H244098   1.853   4.304   4.237 -0.3431  1.8846 -0.5168
 6635TIP3   OH244099   1.116   0.416   3.464  0.0416 -0.3287 -0.9994
 6635TIP3    H144100   1.039   0.458   3.503  0.3935 -1.9333  1.6829
 6635TIP3    H244101   1.106   0.323   3.484  2.3021 -0.6818 -1.2117
 6636TIP3   OH244102   2.130   4.111   4.197 -0.2952  0.0430 -0.5228
 6636TIP3    H144103   2.104   4.044   4.260  1.4651 -2.1427 -1.9344
 6636TIP3    H244104   2.058   4.174   4.198 -0.9115 -0.5314  2.6693
 6637TIP3   OH244105   6.510   0.152   3.161 -0.1442  0.1114  0.0575
 6637TIP3    H144106   6.569   0.185   3.229 -0.0314 -0.2212  0.1232
 6637TIP3    H244107   6.514   0.218   3.092  1.8827 -0.8356 -0.8261
 6638TIP3   OH244108   1.345   3.182   4.003  0.0920  0.1571  0.2896
 6638TIP3    H144109   1.423   3.150   3.958  0.5263  1.0894  0.3657
 6638TIP3    H244110   1.279   3.190   3.933  0.3906  0.3973  0.0321
 6639TIP3   OH244111   6.609   3.843   3.418  0.3475  0.7466  0.3280
 6639TIP3    H144112   6.646   3.767   3.462  0.7329  0.2994 -0.7429
 6639TIP3    H244113   6.540   3.874   3.477  0.3161 -0.3147  0.8629
 6640TIP3   OH244114   4.010   2.854   3.792  0.3553  0.3754 -0.3597
 6640TIP3    H144115   4.036   2.884   3.705  0.9517  0.7456 -0.0588
 6640TIP3    H244116   4.052   2.916   3.852  0.5911 -0.3345  0.2213
 6641TIP3   OH244117   3.014   6.226   4.519 -0.0623  0.5525  0.5339
 6641TIP3    H144118   2.974   6.145   4.550 -0.7353  1.2477  1.5291
 6641TIP3    H244119   2.940   6.286   4.507  0.4535  1.1010  0.0427
 6642TIP3   OH244120   0.602   0.925   3.805 -0.6550 -0.1558  0.0535
 6642TIP3    H144121   0.579   0.909   3.714  1.3051 -1.1831 -0.3057
 6642TIP3    H244122   0.686   0.971   3.802 -1.5272  1.6718  1.3300
 6643TIP3   OH244123   5.289   4.377   4.005 -0.2447  0.0514 -0.2300
 6643TIP3    H144124   5.260   4.294   4.042  0.8275 -0.7954 -1.2100
 6643TIP3    H244125   5.383   4.364   3.987 -0.3129  1.0617 -1.4521
 6644TIP3   OH244126   2.267   2.348   2.398  0.2050  0.0235 -0.2580
 6644TIP3    H144127   2.175   2.344   2.370  0.3252  1.7708 -1.0326
 6644TIP3    H244128   2.290   2.440   2.391  1.9469 -0.3345  0.2528
 6645TIP3   OH244129   4.280   4.837   4.402  0.0256  0.5598 -0.1259
 6645TIP3    H144130   4.288   4.871   4.491  0.7545 -0.2994  0.1486
 6645TIP3    H244131   4.190   4.807   4.396  0.6381 -1.7541  1.2193
 6646TIP3   OH244132   6.407   4.262   3.690  0.0219  0.2903 -0.6082
 6646TIP3    H144133   6.447   4.340   3.729 -0.9284  0.6538 -0.3174
 6646TIP3    H244134   6.353   4.296   3.619 -0.2879 -0.1137 -0.5704
 6647TIP3   OH244135   1.539   5.671   3.936 -0.1153  0.5994  0.1863
 6647TIP3    H144136   1.607   5.640   3.996 -1.6007  0.6101  1.9514
 6647TIP3    H244137   1.588   5.703   3.860  1.7386 -1.3300  0.4547
 6648TIP3   OH244138   1.591   0.013   2.176  0.1465  0.0381  0.3250
 6648TIP3    H144139   1.662  -0.043   2.146  0.7973  0.6064  0.7746
 6648TIP3    H244140   1.535  -0.045   2.227  1.4461  0.0296  1.8021
 6649TIP3   OH244141   6.817   0.068   5.206 -0.0940  0.0210 -0.0775
 6649TIP3    H144142   6.870   0.063   5.127 -0.1047 -0.5126 -0.0561
 6649TIP3    H244143   6.727   0.070   5.173 -0.0729  1.1169 -0.1215
 6650TIP3   OH244144   2.920   1.496   2.059 -0.0549 -0.4013 -0.0440
 6650TIP3    H144145   2.985   1.433   2.027 -0.4420 -0.8216 -0.0166
 6650TIP3    H244146   2.961   1.538   2.134 -0.5851 -2.1690  1.3096
 6651TIP3   OH244147   0.364   1.928   3.144 -0.2860  0.1544  0.3423
 6651TIP3    H144148   0.398   1.843   3.115  0.2074  0.1125  1.0076
 6651TIP3    H244149   0.277   1.934   3.104 -0.4634 -0.8110  0.5491
 6652TIP3   OH244150   0.416   5.519   2.580 -0.5118 -0.8786  0.6075
 6652TIP3    H144151   0.370   5.576   2.641 -0.2241  0.0270  0.0071
 6652TIP3    H244152   0.498   5.497   2.624 -0.6433 -0.8737  0.8582
 6653TIP3   OH244153   0.690   2.488   2.959  0.6215 -0.3250 -0.5049
 6653TIP3    H144154   0.763   2.427   2.958  0.1154 -0.9546  0.2609
 6653TIP3    H244155   0.621   2.445   2.909  0.5344 -0.0322 -0.6415
 6654TIP3   OH244156   0.423   6.052   1.603  0.3422  0.1255  0.0915
 6654TIP3    H144157   0.426   6.008   1.518  0.5288  0.5737 -0.1383
 6654TIP3    H244158   0.488   6.006   1.656  0.5489  0.1351 -0.1529
 6655TIP3   OH244159   5.618   5.323   4.191  0.1307  0.3152 -0.1477
 6655TIP3    H144160   5.702   5.358   4.220  0.4665 -0.3126 -0.3405
 6655TIP3    H244161   5.603   5.363   4.106 -0.7114  1.9292  0.7068
 6656TIP3   OH244162   0.400   0.697   3.618 -0.0076 -0.1644 -0.3799
 6656TIP3    H144163   0.308   0.719   3.632  0.6630  1.9344  1.1354
 6656TIP3    H244164   0.435   0.769   3.567  0.6340 -1.4101 -1.7780
 6657TIP3   OH244165   4.060   0.583   3.851  0.2063 -0.5116 -0.0574
 6657TIP3    H144166   3.971   0.610   3.872  0.4380  1.4320 -1.3517
 6657TIP3    H244167   4.106   0.586   3.934 -1.2840 -3.4406  1.0387
 6658TIP3   OH244168   1.350   0.747   3.208  0.4070 -0.3944  0.4535
 6658TIP3    H144169   1.417   0.748   3.139 -1.8878 -0.2493 -1.9293
 6658TIP3    H244170   1.373   0.821   3.264  0.4244  1.8231 -2.2581
 6659TIP3   OH244171   5.073   3.887   4.152 -0.2528  0.0121  0.8530
 6659TIP3    H144172   4.990   3.881   4.106  0.1599 -0.0710  0.1034
 6659TIP3    H244173   5.100   3.796   4.165  0.1756  0.0521  0.2529
 6660TIP3   OH244174   3.040   6.426   3.188 -0.2262 -0.1850 -0.1820
 6660TIP3    H144175   3.068   6.336   3.201  0.3664  0.0737  0.4290
 6660TIP3    H244176   3.017   6.457   3.276  2.1700  1.0743  0.0972
 6661TIP3   OH244177   1.978   3.775   2.725  0.0451  0.4984  0.2237
 6661TIP3    H144178   1.947   3.834   2.794 -0.3470  1.6030 -0.8639
 6661TIP3    H244179   1.898   3.740   2.685  0.2163  1.2709 -0.8358
 6662TIP3   OH244180   2.518   5.764   4.839  0.0023  0.1418  0.4532
 6662TIP3    H144181   2.541   5.857   4.842 -0.3273  0.2530 -0.4786
 6662TIP3    H244182   2.567   5.726   4.913  1.5464  0.7432 -0.2068
 6663TIP3   OH244183   1.779   0.237   2.471 -0.0206 -0.5789  0.3388
 6663TIP3    H144184   1.714   0.171   2.495  0.0575  0.1164  2.6429
 6663TIP3    H244185   1.732   0.298   2.415 -0.2236 -2.2446 -1.4190
 6664TIP3   OH244186   4.975   5.640   3.227  0.1285 -0.3011  0.8157
 6664TIP3    H144187   5.069   5.623   3.223  0.1438 -0.1496  0.4690
 6664TIP3    H244188   4.954   5.678   3.141  0.1013  1.4389  1.5323
 6665TIP3   OH244189   4.876   0.979   2.380 -0.3721  0.1756  0.2127
 6665TIP3    H144190   4.858   1.048   2.316 -1.1934 -2.6655 -2.9767
 6665TIP3    H244191   4.966   0.995   2.408  0.5451  0.9290 -2.7313
 6666TIP3   OH244192   2.041   1.547   2.796  0.4984 -0.0551  0.4749
 6666TIP3    H144193   2.088   1.535   2.714 -0.4230  1.6123 -0.3546
 6666TIP3    H244194   2.084   1.621   2.838  1.3432 -1.2669  1.8263
 6667TIP3   OH244195   2.878   1.924   2.457 -0.4994  0.1062 -0.2147
 6667TIP3    H144196   2.788   1.927   2.491 -0.3438  0.6115  0.1758
 6667TIP3    H244197   2.910   1.838   2.483 -0.5633  0.2803  0.4829
 6668TIP3   OH244198   5.763   1.299   3.104  0.4794  0.6257  0.5839
 6668TIP3    H144199   5.719   1.218   3.078 -2.1222  2.1296 -0.1865
 6668TIP3    H244200   5.841   1.271   3.150 -1.1701 -2.3469  1.8670
 6669TIP3   OH244201   4.221   1.208   3.874 -0.0759  0.2969  0.6078
 6669TIP3    H144202   4.263   1.232   3.957 -1.3488 -2.8342  2.3245
 6669TIP3    H244203   4.136   1.250   3.877  0.2028  0.8853  0.4534
 6670TIP3   OH244204   4.368   1.327   3.078 -0.2951 -0.6714 -0.0234
 6670TIP3    H144205   4.281   1.364   3.058 -0.0315  0.7204  1.2032
 6670TIP3    H244206   4.401   1.297   2.994 -0.1256  2.9445 -1.4495
 6671TIP3   OH244207   3.280   4.390   4.829 -0.8653 -0.2090  0.3213
 6671TIP3    H144208   3.357   4.383   4.885 -0.5001 -0.5738 -0.2077
 6671TIP3    H244209   3.305   4.455   4.763 -1.1686 -0.0140  0.4006
 6672TIP3   OH244210   2.544   5.243   4.103 -0.0564 -0.3488  0.5477
 6672TIP3    H144211   2.500   5.282   4.027  0.2847  0.2858  0.6627
 6672TIP3    H244212   2.518   5.151   4.102 -0.8952 -0.1187  0.2675
 6673TIP3   OH244213   3.334   4.591   3.645 -0.6913  0.0856 -0.2176
 6673TIP3    H144214   3.377   4.509   3.619 -0.0597 -0.5628  2.5499
 6673TIP3    H244215   3.407   4.651   3.661 -0.8430 -0.2632  2.1068
 6674TIP3   OH244216   2.638   0.342   2.032  0.1050  0.4211 -0.3857
 6674TIP3    H144217   2.696   0.320   2.105  1.0471 -1.4925 -1.6198
 6674TIP3    H244218   2.691   0.398   1.975  0.6666 -1.0131 -1.3235
 6675TIP3   OH244219   4.130   6.549   2.622 -0.1452  0.6348 -0.1601
 6675TIP3    H144220   4.147   6.455   2.630  1.5372  0.9500  0.2450
 6675TIP3    H244221   4.155   6.586   2.706  1.7529  1.7781 -1.1721
 6676TIP3   OH244222   2.672   6.546   4.358  0.1020 -0.1969  0.4772
 6676TIP3    H144223   2.752   6.510   4.321  0.8324  0.3931  1.4306
 6676TIP3    H244224   2.646   6.616   4.298 -0.2513 -1.0264 -0.3509
 6677TIP3   OH244225   1.995   1.230   4.870 -0.4343  0.4019  0.5473
 6677TIP3    H144226   1.947   1.165   4.921 -1.0185  1.2997  1.1740
 6677TIP3    H244227   2.063   1.180   4.825 -0.1093 -0.4765  1.9518
 6678TIP3   OH244228   1.880   5.480   4.334 -0.2584 -0.0673 -0.2215
 6678TIP3    H144229   1.969   5.514   4.344 -0.4490  0.0145  1.4302
 6678TIP3    H244230   1.892   5.385   4.333 -0.1818 -0.0699  0.4761
 6679TIP3   OH244231   4.735   2.193   3.998  0.4990 -0.1161  0.1617
 6679TIP3    H144232   4.720   2.131   3.927  0.6234  1.3005 -1.1733
 6679TIP3    H244233   4.648   2.229   4.017  0.4772 -0.4415  0.6992
 6680TIP3   OH244234   3.903   2.791   4.289  0.1032  0.0124 -0.3453
 6680TIP3    H144235   3.859   2.852   4.229 -0.8711 -0.7903 -0.4728
 6680TIP3    H244236   3.971   2.751   4.235  0.1060  0.2740 -0.5393
 6681TIP3   OH244237   2.187   1.945   3.897 -0.1882 -0.3956 -0.1934
 6681TIP3    H144238   2.142   1.862   3.878 -0.0503 -0.5761  0.2552
 6681TIP3    H244239   2.270   1.938   3.850 -0.7238  0.0419 -1.2237
 6682TIP3   OH244240   2.851   2.881   5.337  0.5365 -0.1305  0.4366
 6682TIP3    H144241   2.882   2.792   5.326  0.1253 -0.3107  0.7223
 6682TIP3    H244242   2.761   2.880   5.304 -0.1616 -0.2947  2.2381
 6683TIP3   OH244243   4.903   4.945   3.989 -0.3243  0.3859 -0.1704
 6683TIP3    H144244   4.972   4.938   4.056 -1.3985  0.1970  0.9424
 6683TIP3    H244245   4.913   4.865   3.937  0.6690  0.6433 -0.4021
 6684TIP3   OH244246   4.825   4.115   2.552  0.5217  0.2689 -0.0433
 6684TIP3    H144247   4.846   4.149   2.465  0.6822 -1.1835 -0.5924
 6684TIP3    H244248   4.909   4.108   2.597  0.3936  1.4575  0.4183
 6685TIP3   OH244249   2.045   5.723   3.302 -0.3348 -0.5444 -0.2396
 6685TIP3    H144250   2.108   5.773   3.355 -0.7862  0.2834 -0.4699
 6685TIP3    H244251   2.087   5.714   3.217 -0.4936 -0.0594 -0.3698
 6686TIP3   OH244252   1.673   4.693   4.655 -0.0249 -0.1364  0.2934
 6686TIP3    H144253   1.676   4.618   4.713  0.9317  0.1545  0.6477
 6686TIP3    H244254   1.688   4.768   4.712 -0.6760  0.2989 -0.0994
 6687TIP3   OH244255   5.480   5.672   3.605  0.0743  0.6500 -0.5342
 6687TIP3    H144256   5.536   5.685   3.528 -1.6335  1.2681 -1.7262
 6687TIP3    H244257   5.483   5.578   3.621  1.5657  0.6914 -0.4662
 6688TIP3   OH244258   6.145   5.091   2.997  0.6523 -0.4061 -0.1853
 6688TIP3    H144259   6.055   5.066   3.020 -0.1423  0.8862 -1.7216
 6688TIP3    H244260   6.146   5.186   3.007  1.4440 -0.2626 -1.4646
 6689TIP3   OH244261   0.397   4.132   2.473  0.2178  0.2702 -0.4140
 6689TIP3    H144262   0.449   4.063   2.513  1.0907  0.8690 -0.4911
 6689TIP3    H244263   0.459   4.180   2.417 -0.9686 -0.6299 -2.6247
 6690TIP3   OH244264   1.033   5.670   2.449 -0.4677  0.1034 -0.0413
 6690TIP3    H144265   1.072   5.623   2.524 -0.2963  0.1425 -0.1060
 6690TIP3    H244266   0.980   5.604   2.405 -0.2330 -0.0279 -0.1268
 6691TIP3   OH244267   0.646   3.283   4.349 -0.2020  0.2675  0.4131
 6691TIP3    H144268   0.734   3.246   4.350 -0.3242 -0.0444  0.0937
 6691TIP3    H244269   0.608   3.253   4.266 -0.6623  0.2643  0.6194
 6692TIP3   OH244270   2.196   1.219   5.233 -0.1752  0.5319  0.1481
 6692TIP3    H144271   2.139   1.272   5.289 -0.3851  0.5225 -0.0594
 6692TIP3    H244272   2.188   1.130   5.269  1.9220  0.9751  1.9582
 6693TIP3   OH244273   5.226   0.896   3.091 -0.1292  0.2320 -0.5536
 6693TIP3    H144274   5.279   0.971   3.118 -3.7043  2.6000  0.6794
 6693TIP3    H244275   5.239   0.832   3.161  1.9935  0.1499 -0.9605
 6694TIP3   OH244276   0.467   3.594   4.673 -0.4471  0.3926 -0.1434
 6694TIP3    H144277   0.541   3.561   4.622 -0.6668 -0.6340  0.1810
 6694TIP3    H244278   0.489   3.575   4.764 -1.3511 -0.4561 -0.0812
 6695TIP3   OH244279   0.340   0.516   2.083 -0.0815 -0.3996 -0.1778
 6695TIP3    H144280   0.394   0.593   2.104 -0.6413  0.4272 -1.5949
 6695TIP3    H244281   0.359   0.454   2.153  3.3960 -0.5144 -1.0316
 6696TIP3   OH244282   0.835   5.489   4.545 -0.0124 -0.1544 -0.2691
 6696TIP3    H144283   0.781   5.521   4.617 -2.0757 -3.1562 -0.3076
 6696TIP3    H244284   0.778   5.495   4.468 -0.5654 -3.5856 -0.2791
 6697TIP3   OH244285   2.257   5.027   2.060 -0.1455  0.3462 -0.1211
 6697TIP3    H144286   2.163   5.044   2.064 -0.5579 -1.7559  0.9456
 6697TIP3    H244287   2.263   4.931   2.054  1.8982  0.5285 -2.5559
 6698TIP3   OH244288   2.385   4.805   2.427 -0.0916 -0.0266 -0.5152
 6698TIP3    H144289   2.368   4.848   2.511  0.2285  0.3043 -0.6204
 6698TIP3    H244290   2.379   4.874   2.362 -1.1574 -0.4257 -0.8681
 6699TIP3   OH244291   4.372   1.657   4.743  0.1380  0.1236  0.3831
 6699TIP3    H144292   4.449   1.714   4.748 -0.6643  1.3074 -0.3912
 6699TIP3    H244293   4.327   1.684   4.663 -0.1650 -1.7458 -0.1212
 6700TIP3   OH244294   2.732   4.956   3.899 -0.3086  0.1685 -0.5678
 6700TIP3    H144295   2.707   4.884   3.841 -1.3410  0.0508  0.0013
 6700TIP3    H244296   2.684   5.032   3.865 -0.1533  0.3176 -0.4530
 6701TIP3   OH244297   4.103   4.987   4.958  0.4720 -0.1028  0.1872
 6701TIP3    H144298   4.120   5.064   5.012  0.9040 -0.9208  1.2555
 6701TIP3    H244299   4.008   4.983   4.951  0.4458  0.4747  0.1955
 6702TIP3   OH244300   1.346   1.607   3.903  0.2560  0.0932  0.1292
 6702TIP3    H144301   1.386   1.675   3.957  1.0441 -1.0460  1.0302
 6702TIP3    H244302   1.291   1.556   3.963  1.1966 -1.2397 -0.0881
 6703TIP3   OH244303   4.897   3.191   5.158 -0.0494 -0.3290 -0.4265
 6703TIP3    H144304   4.989   3.204   5.135  0.0472 -0.6118 -0.2099
 6703TIP3    H244305   4.874   3.266   5.212 -0.6455  1.0331 -2.4679
 6704TIP3   OH244306   5.295   3.911   3.300 -0.0313 -0.1229  0.4973
 6704TIP3    H144307   5.215   3.901   3.249  0.9104 -2.1073 -0.7278
 6704TIP3    H244308   5.352   3.966   3.246 -0.0330  0.0593  0.6806
 6705TIP3   OH244309   1.877   5.839   2.515  0.2930 -0.1990 -0.2279
 6705TIP3    H144310   1.839   5.762   2.472 -0.4600  0.3079 -0.5029
 6705TIP3    H244311   1.959   5.808   2.553 -0.3798 -1.3309  0.3463
 6706TIP3   OH244312   0.018   3.179   3.787  0.2864 -0.0887  0.5247
 6706TIP3    H144313   0.109   3.152   3.795 -0.2842 -2.1635  0.4345
 6706TIP3    H244314  -0.032   3.110   3.830 -1.3977 -0.1260 -1.3339
 6707TIP3   OH244315   0.157   5.435   2.493 -0.2142  0.0735 -0.0529
 6707TIP3    H144316   0.112   5.471   2.416 -0.7995 -1.0552 -0.2526
 6707TIP3    H244317   0.240   5.482   2.495 -1.2476  1.9954  0.1558
 6708TIP3   OH244318   0.833   2.524   3.788 -1.0148  0.3778  0.5011
 6708TIP3    H144319   0.757   2.582   3.794 -0.0991  1.6696  0.2519
 6708TIP3    H244320   0.905   2.583   3.763  0.1482 -0.7161  1.1672
 6709TIP3   OH244321   3.459   4.467   3.353  0.0756  0.0575  0.1776
 6709TIP3    H144322   3.494   4.526   3.420  0.4148  0.0678 -0.0072
 6709TIP3    H244323   3.472   4.379   3.389  0.2519  0.0634  0.1247
 6710TIP3   OH244324   2.422   4.304   5.418 -0.1810 -0.7232  0.7449
 6710TIP3    H144325   2.389   4.294   5.329 -1.1431  2.1307  0.6797
 6710TIP3    H244326   2.344   4.302   5.473 -0.0891  1.7539  1.0442
 6711TIP3   OH244327   5.608   3.977   2.882  0.2572  0.4350  0.2729
 6711TIP3    H144328   5.650   3.957   2.799  1.2231  0.2251  0.7937
 6711TIP3    H244329   5.643   3.912   2.943  0.1261  1.0355  1.0077
 6712TIP3   OH244330   6.257   4.950   3.710 -0.2372  0.2700  0.1986
 6712TIP3    H144331   6.341   4.954   3.664 -0.5170 -1.8811 -0.5976
 6712TIP3    H244332   6.222   4.863   3.690 -1.9275  0.5066  1.8161
 6713TIP3   OH244333   0.235   0.478   3.829 -0.1967  0.4818  0.0390
 6713TIP3    H144334   0.182   0.449   3.755  0.7802  1.4868 -1.0847
 6713TIP3    H244335   0.325   0.478   3.797  0.7133 -2.1942  2.2090
 6714TIP3   OH244336   0.132   0.146   2.282  0.0172  0.2856 -0.0940
 6714TIP3    H144337   0.128   0.100   2.198  1.0930  0.1711 -0.0987
 6714TIP3    H244338   0.041   0.151   2.311 -0.1250 -2.4010  0.1874
 6715TIP3   OH244339   0.417   6.159   2.958  0.0958 -0.3689  0.2703
 6715TIP3    H144340   0.481   6.193   3.021 -0.9926 -1.1243  1.8351
 6715TIP3    H244341   0.455   6.076   2.929  1.0244  0.3983 -0.7904
 6716TIP3   OH244342   3.105   0.972   2.563 -0.3402 -0.2785 -0.4838
 6716TIP3    H144343   3.150   0.944   2.643  1.2259  2.4814 -0.2579
 6716TIP3    H244344   3.056   1.050   2.590 -3.3898 -1.7676 -1.3177
 6717TIP3   OH244345   4.450   1.780   2.900  0.1122 -0.6822 -0.7781
 6717TIP3    H144346   4.431   1.864   2.940  0.3599  0.3981 -2.7817
 6717TIP3    H244347   4.376   1.725   2.923 -0.7420  0.5233 -0.5606
 6718TIP3   OH244348   0.251   6.170   2.298  0.2304 -0.0246  0.0158
 6718TIP3    H144349   0.278   6.190   2.388 -1.6679  1.3893  0.3248
 6718TIP3    H244350   0.249   6.255   2.254  1.6697 -0.7428 -1.5763
 6719TIP3   OH244351   3.781   4.697   2.356  0.2719  0.1543 -0.0776
 6719TIP3    H144352   3.739   4.696   2.269 -1.0121  1.2316  0.4881
 6719TIP3    H244353   3.822   4.783   2.362  0.8183 -0.1216  0.1870
 6720TIP3   OH244354   5.806   6.579   2.579 -0.3186  0.2488 -0.5316
 6720TIP3    H144355   5.886   6.626   2.606 -0.7087  0.3464  0.5065
 6720TIP3    H244356   5.814   6.493   2.621 -0.8388  0.3210 -0.2816
 6721TIP3   OH244357   0.195   3.052   2.638  0.0870 -0.2673  0.6507
 6721TIP3    H144358   0.100   3.038   2.641  0.2372 -1.8246 -0.5725
 6721TIP3    H244359   0.233   2.973   2.677  0.8941 -0.0704  0.2952
 6722TIP3   OH244360   5.922   3.036   3.480 -0.2614  0.1189 -0.0757
 6722TIP3    H144361   6.017   3.029   3.474 -0.1956 -1.5794  1.9046
 6722TIP3    H244362   5.897   2.974   3.548 -2.9259 -0.2819 -1.2790
 6723TIP3   OH244363   3.302   0.420   3.097  0.0233  0.2018  0.0008
 6723TIP3    H144364   3.362   0.384   3.031  1.4142  1.0254  0.7675
 6723TIP3    H244365   3.248   0.482   3.049  0.5379  0.2664 -0.5082
 6724TIP3   OH244366   2.032   1.010   3.069  0.4753  0.2471 -0.2856
 6724TIP3    H144367   1.962   0.965   3.116  0.8740 -0.7534 -0.6064
 6724TIP3    H244368   2.066   1.074   3.131 -0.5761  0.5974 -0.0560
 6725TIP3   OH244369   4.460   1.224   4.408  0.3792 -0.0464  0.3429
 6725TIP3    H144370   4.385   1.279   4.433  0.4302 -0.1608  0.7537
 6725TIP3    H244371   4.536   1.273   4.438  0.5152  0.4314 -0.7536
 6726TIP3   OH244372   3.316   0.617   3.920 -0.1863 -0.6437  0.7136
 6726TIP3    H144373   3.378   0.690   3.925 -2.1774  1.1297  0.7736
 6726TIP3    H244374   3.334   0.577   3.835  0.8122  0.0459  0.5789
 6727TIP3   OH244375   4.682   2.084   3.257 -0.5996 -0.0966  0.6404
 6727TIP3    H144376   4.743   2.103   3.328  0.4613 -0.3900 -0.1503
 6727TIP3    H244377   4.695   1.991   3.238  1.0901  0.4862 -1.6135
 6728TIP3   OH244378   0.053   6.465   2.973 -0.4362 -0.1372  0.0862
 6728TIP3    H144379   0.052   6.399   3.041 -0.4838  0.2575  0.4750
 6728TIP3    H244380   0.068   6.548   3.020 -1.2786  0.2413 -0.2906
 6729TIP3   OH244381   5.199   4.983   3.835 -0.3293 -0.1570 -0.3270
 6729TIP3    H144382   5.275   4.981   3.893 -1.7089 -0.1530  1.5718
 6729TIP3    H244383   5.141   4.916   3.870 -2.3413  1.6191 -0.0509
 6730TIP3   OH244384   6.331   4.046   2.281  0.2826 -0.5702  0.1952
 6730TIP3    H144385   6.385   3.977   2.243 -0.0205 -1.1713  0.8375
 6730TIP3    H244386   6.242   4.029   2.248  0.2994 -0.1582 -0.0795
 6731TIP3   OH244387   3.663   3.663   4.235 -0.1393  0.1880  0.1007
 6731TIP3    H144388   3.743   3.715   4.243  0.2403 -0.3761  0.0207
 6731TIP3    H244389   3.694   3.574   4.222 -0.7674  0.1280 -1.1340
 6732TIP3   OH244390   1.668   3.741   2.084  0.5570  0.3163 -0.1066
 6732TIP3    H144391   1.627   3.799   2.149 -0.9716  0.0941 -0.8309
 6732TIP3    H244392   1.613   3.663   2.084  1.3693 -0.2683 -0.6732
 6733TIP3   OH244393   2.133   5.021   2.893  0.2810  0.3333 -0.4057
 6733TIP3    H144394   2.150   5.111   2.919 -0.1100  0.6052 -1.0493
 6733TIP3    H244395   2.203   4.970   2.934 -0.7079  0.6122  1.7715
 6734TIP3   OH244396   5.419   6.565   2.730  0.0835 -0.3166  0.3929
 6734TIP3    H144397   5.332   6.525   2.736  0.6345 -1.4955  0.9624
 6734TIP3    H244398   5.465   6.511   2.666 -0.3349  1.8197 -1.8785
 6735TIP3   OH244399   1.255   6.154   2.769 -0.3198  0.4438  0.6577
 6735TIP3    H144400   1.300   6.091   2.714 -1.7542  0.6488 -0.8186
 6735TIP3    H244401   1.298   6.147   2.854  0.9418 -0.9777 -0.0627
 6736TIP3   OH244402   5.757   2.521   4.215  0.1253 -0.0315 -0.5361
 6736TIP3    H144403   5.666   2.494   4.200  0.2525 -0.6159 -0.3180
 6736TIP3    H244404   5.752   2.614   4.234 -0.4145 -0.0306 -0.6689
 6737TIP3   OH244405   3.044   1.199   3.500 -0.1465  0.5134  0.1947
 6737TIP3    H144406   2.960   1.153   3.513  1.2061 -1.9083  1.0345
 6737TIP3    H244407   3.093   1.143   3.441  0.4818  2.5350 -1.2934
 6738TIP3   OH244408   2.337   1.832   2.515  0.4767  0.0579 -0.1649
 6738TIP3    H144409   2.320   1.876   2.432 -0.4821 -1.8951 -1.0745
 6738TIP3    H244410   2.272   1.868   2.575  0.8677  1.1426 -0.3824
 6739TIP3   OH244411   3.113   6.103   3.405 -0.2672  0.4733 -0.2305
 6739TIP3    H144412   3.151   6.021   3.375  0.4990  0.7284  0.0249
 6739TIP3    H244413   3.048   6.077   3.471 -0.5735  0.0316 -0.7035
 6740TIP3   OH244414   3.008   6.518   3.742 -0.1762 -0.1608  0.0791
 6740TIP3    H144415   2.927   6.469   3.754  0.3751 -1.5558 -1.3939
 6740TIP3    H244416   3.029   6.553   3.828 -0.6926 -2.4559  1.2206
 6741TIP3   OH244417   3.973   6.441   3.556 -0.2510 -0.6059 -0.7620
 6741TIP3    H144418   3.943   6.351   3.546 -0.7519 -0.3183 -2.0974
 6741TIP3    H244419   4.055   6.444   3.506 -0.5965 -0.1511 -1.3022
 6742TIP3   OH244420   5.280   2.748   2.904 -0.1588 -0.0841 -0.0698
 6742TIP3    H144421   5.185   2.746   2.897 -0.2094  1.1814  0.0625
 6742TIP3    H244422   5.305   2.836   2.876  0.8758 -0.0322  0.9364
 6743TIP3   OH244423   1.282   6.456   3.239 -0.1551 -0.2470 -0.3875
 6743TIP3    H144424   1.324   6.541   3.250  1.0613 -0.6086 -1.9498
 6743TIP3    H244425   1.324   6.399   3.304 -2.0728  0.6465  1.7736
 6744TIP3   OH244426   0.234   6.661   1.932 -0.0159  0.3223  0.1402
 6744TIP3    H144427   0.281   6.720   1.991  1.1090  1.3378 -1.6742
 6744TIP3    H244428   0.302   6.602   1.898 -0.8128 -0.8730  0.5531
 6745TIP3   OH244429   3.949   0.525   3.305 -0.2249 -0.0939  0.5844
 6745TIP3    H144430   3.894   0.487   3.237 -0.0558 -0.5573  0.7061
 6745TIP3    H244431   3.888   0.565   3.366 -0.3911  0.0480  0.3258
 6746TIP3   OH244432   5.370   2.234   2.226  0.0001 -0.3526  0.0087
 6746TIP3    H144433   5.292   2.276   2.261  0.5872  1.4631 -0.7337
 6746TIP3    H244434   5.350   2.219   2.134  0.6755  0.6121 -0.3159
 6747TIP3   OH244435   1.119   0.899   2.494 -0.0274 -0.0585 -0.2262
 6747TIP3    H144436   1.186   0.880   2.429  0.4653  0.0097  0.2491
 6747TIP3    H244437   1.151   0.977   2.539  0.4330 -1.0107  1.1492
 6748TIP3   OH244438   0.679   1.333   3.657 -0.7414  0.2045 -0.1772
 6748TIP3    H144439   0.716   1.411   3.614  1.3131 -1.2052 -1.1361
 6748TIP3    H244440   0.712   1.338   3.747 -3.5888  2.2236  0.9066
 6749TIP3   OH244441   1.896   3.353   4.889  0.3540 -0.0959 -0.1977
 6749TIP3    H144442   1.977   3.301   4.890  0.1620 -0.4214 -0.9410
 6749TIP3    H244443   1.917   3.430   4.838 -0.1881 -0.8550 -1.6312
 6750TIP3   OH244444   4.591   5.704   3.207  0.6478  0.7469 -0.1479
 6750TIP3    H144445   4.626   5.616   3.195  0.3742  0.6680 -0.4074
 6750TIP3    H244446   4.568   5.709   3.300 -0.1515  0.2298 -0.3027
 6751TIP3   OH244447   2.553   0.507   3.099 -0.0713  0.0707 -0.0038
 6751TIP3    H144448   2.531   0.567   3.171  0.5967  0.0960  0.1873
 6751TIP3    H244449   2.573   0.424   3.143  1.9944  0.5192  0.0256
 6752TIP3   OH244450   3.603   3.528   4.614  0.7052 -0.3867  0.6267
 6752TIP3    H144451   3.530   3.568   4.566  0.6884 -0.5544  0.5109
 6752TIP3    H244452   3.624   3.449   4.564  3.2148  1.3606 -1.3533
 6753TIP3   OH244453   1.203   1.117   2.625 -0.3644  0.3801  0.3703
 6753TIP3    H144454   1.163   1.194   2.666  1.1116  1.7520 -0.6632
 6753TIP3    H244455   1.270   1.089   2.687 -0.3231  0.4550  0.3596
 6754TIP3   OH244456   3.832   4.184   4.527  0.5189  0.8835 -0.2871
 6754TIP3    H144457   3.796   4.243   4.592  0.5527 -0.3539  0.8924
 6754TIP3    H244458   3.775   4.107   4.529  2.0747 -0.2979  0.2418
 6755TIP3   OH244459   4.559   3.120   2.151  0.2284 -1.1887 -0.2662
 6755TIP3    H144460   4.485   3.099   2.208  0.4011 -2.2232 -0.4060
 6755TIP3    H244461   4.588   3.206   2.181 -0.2074 -1.3483  0.6518
 6756TIP3   OH244462   1.760   2.893   4.323 -0.2811  0.3287  0.0045
 6756TIP3    H144463   1.761   2.964   4.387  0.0291  0.4557 -0.1389
 6756TIP3    H244464   1.815   2.824   4.362 -0.7050  0.1038  0.2120
 6757TIP3   OH244465   2.631   3.533   3.543  0.0496  0.1625 -0.3384
 6757TIP3    H144466   2.600   3.532   3.634  2.0491 -0.0750  0.3735
 6757TIP3    H244467   2.613   3.622   3.513 -2.8419 -0.3813 -0.5864
 6758TIP3   OH244468   1.239   1.582   2.310  0.3210 -0.3934  0.3408
 6758TIP3    H144469   1.156   1.603   2.266 -0.1893 -3.5171 -0.3803
 6758TIP3    H244470   1.213   1.530   2.386  1.6322 -2.3398 -0.4796
 6759TIP3   OH244471   3.407   1.819   2.909  0.1809  0.1533 -0.4200
 6759TIP3    H144472   3.328   1.817   2.963 -0.3895 -1.4384 -1.2541
 6759TIP3    H244473   3.449   1.903   2.931  0.9889 -1.1341  3.8457
 6760TIP3   OH244474   1.529   0.054   3.169 -0.0115 -0.1410 -0.3127
 6760TIP3    H144475   1.464   0.094   3.110 -0.4423 -0.4251 -0.0336
 6760TIP3    H244476   1.588   0.008   3.111  0.1623  0.4308 -0.6003
 6761TIP3   OH244477   4.541   5.947   1.901  0.1707  0.1369 -0.1432
 6761TIP3    H144478   4.622   5.953   1.850  0.8644  0.1268  0.9262
 6761TIP3    H244479   4.474   5.924   1.837  0.6870  1.7839 -1.3710
 6762TIP3   OH244480   0.935   3.527   4.717 -0.2008 -0.1287 -0.3334
 6762TIP3    H144481   0.857   3.475   4.733 -0.1157 -0.3039 -0.4822
 6762TIP3    H244482   0.959   3.561   4.803  0.7608 -1.7821  0.1071
 6763TIP3   OH244483   3.819   4.237   3.281 -0.1350  0.3598 -0.5701
 6763TIP3    H144484   3.892   4.212   3.224 -0.9934  0.2850 -1.6749
 6763TIP3    H244485   3.821   4.332   3.283 -0.0462  0.3589 -0.6370
 6764TIP3   OH244486   2.361   1.217   3.073  0.1201 -0.1939  0.7450
 6764TIP3    H144487   2.403   1.153   3.131  1.1884 -0.8546 -0.6963
 6764TIP3    H244488   2.347   1.170   2.991  0.3578  1.2397 -0.1549
 6765TIP3   OH244489   4.540   0.683   4.527  0.2086 -0.0483 -0.4767
 6765TIP3    H144490   4.626   0.675   4.567 -0.2882  1.2057  0.9461
 6765TIP3    H244491   4.524   0.777   4.522 -0.7292 -0.2400 -1.5203
 6766TIP3   OH244492   6.758   3.831   3.953  0.5972  0.1180  0.4025
 6766TIP3    H144493   6.705   3.757   3.982 -1.0419  0.8815 -0.5370
 6766TIP3    H244494   6.806   3.798   3.877  1.2935 -0.4935  1.0906
 6767TIP3   OH244495   6.644   1.211   3.696  0.3392  0.5417  0.0714
 6767TIP3    H144496   6.581   1.140   3.714  1.2715 -0.0417  1.1756
 6767TIP3    H244497   6.590   1.290   3.693 -0.4280  0.1006  1.3281
 6768TIP3   OH244498   5.836   3.078   5.147  0.2211  0.0627 -0.6489
 6768TIP3    H144499   5.744   3.105   5.139  0.5675  1.1746 -1.1589
 6768TIP3    H244500   5.885   3.154   5.116  1.3429 -0.2735  0.2562
 6769TIP3   OH244501   1.545   2.257   3.494  0.7167 -0.0599  0.3950
 6769TIP3    H144502   1.590   2.240   3.411 -1.6605  0.3655 -1.0598
 6769TIP3    H244503   1.483   2.186   3.503  0.7317  0.0694  1.6810
 6770TIP3   OH244504   1.876   1.106   2.400 -0.7456 -0.0727  0.3456
 6770TIP3    H144505   1.861   1.179   2.461  0.8113  0.3673  0.2560
 6770TIP3    H244506   1.866   1.027   2.454 -1.2678  0.2533  0.7274
 6771TIP3   OH244507   4.469   5.667   2.811  0.3875 -0.4859 -0.4691
 6771TIP3    H144508   4.473   5.747   2.759 -0.5984  0.3164  0.6385
 6771TIP3    H244509   4.433   5.695   2.895 -1.8021 -2.3853 -0.6848
 6772TIP3   OH244510   2.835   3.068   3.390 -0.1293 -0.6178 -0.3788
 6772TIP3    H144511   2.794   3.127   3.452 -0.2942 -1.3203  0.1997
 6772TIP3    H244512   2.762   3.031   3.340  0.0892  0.9514 -1.9468
 6773TIP3   OH244513   0.093   0.420   2.544 -0.5022 -0.4447  0.5076
 6773TIP3    H144514   0.070   0.440   2.635  2.1829  3.3982  0.5869
 6773TIP3    H244515   0.183   0.390   2.548 -0.4378 -0.4943 -0.8791
 6774TIP3   OH244516   2.439   2.586   3.674 -0.2163  0.4963  0.4984
 6774TIP3    H144517   2.493   2.549   3.604 -1.6727  1.7085 -1.3940
 6774TIP3    H244518   2.443   2.522   3.745  1.9554 -0.4206 -0.3732
 6775TIP3   OH244519   5.963   0.597   2.708  0.3776 -0.0575 -0.1157
 6775TIP3    H144520   5.954   0.504   2.728  0.7327  0.0045  0.3443
 6775TIP3    H244521   5.971   0.639   2.793 -0.6566  0.4954 -0.2808
 6776TIP3   OH244522   4.690   6.709   2.455 -0.2056 -0.1748 -0.3836
 6776TIP3    H144523   4.630   6.658   2.510 -1.4863  0.3551 -1.2348
 6776TIP3    H244524   4.633   6.752   2.391  1.0563  0.6968 -0.9629
 6777TIP3   OH244525   3.744   4.171   5.159 -0.0255  0.2970 -0.1250
 6777TIP3    H144526   3.817   4.148   5.217 -0.6254  0.3604  0.6779
 6777TIP3    H244527   3.757   4.263   5.138 -0.2442  0.4952  0.5833
 6778TIP3   OH244528   5.996   3.584   2.020  0.2588 -0.3975  0.0655
 6778TIP3    H144529   5.961   3.571   1.932 -1.3623 -2.8126  0.9546
 6778TIP3    H244530   5.927   3.633   2.066  1.1152  0.8924  0.0273
 6779TIP3   OH244531   0.115   4.217   3.397  0.1709  0.6183 -0.3057
 6779TIP3    H144532   0.176   4.290   3.384 -1.7054  2.1005 -1.2467
 6779TIP3    H244533   0.057   4.221   3.322  0.2942 -2.2119 -0.6290
 6780TIP3   OH244534   2.765   3.582   4.029  0.4385  0.2054 -0.2234
 6780TIP3    H144535   2.767   3.522   4.104 -0.4347 -0.5434 -0.7831
 6780TIP3    H244536   2.803   3.663   4.063  0.9344 -0.4129  0.7628
 6781TIP3   OH244537   4.311   2.941   2.850 -0.0688  0.1521 -0.1580
 6781TIP3    H144538   4.247   2.871   2.835  1.1309 -0.3190 -4.0840
 6781TIP3    H244539   4.294   3.005   2.782  1.3064  1.8464  1.0075
 6782TIP3   OH244540   2.139   4.698   4.360  0.5673  0.5894 -0.0352
 6782TIP3    H144541   2.106   4.773   4.310  1.2645 -0.0421 -1.5189
 6782TIP3    H244542   2.062   4.646   4.379  0.1431  1.4193  0.5730
 6783TIP3   OH244543   1.709   6.156   3.341 -0.1065  0.0347 -0.1362
 6783TIP3    H144544   1.762   6.224   3.383  0.6089  0.1014 -1.0934
 6783TIP3    H244545   1.773   6.091   3.311 -0.8030 -1.2731  1.0751
 6784TIP3   OH244546   0.234   6.000   2.601 -0.3661 -0.2898  0.2738
 6784TIP3    H144547   0.150   6.039   2.579 -0.1681  1.3058  2.0545
 6784TIP3    H244548   0.287   6.073   2.632  2.3223 -0.9188 -2.3789
 6785TIP3   OH244549   2.941   3.614   5.330  0.4897  0.2114  0.4006
 6785TIP3    H144550   2.900   3.679   5.387 -0.8180 -0.7304  0.5864
 6785TIP3    H244551   2.902   3.629   5.244 -1.6260 -1.6973  0.8961
 6786TIP3   OH244552   4.717   3.503   4.332  0.0777  0.1639  0.3043
 6786TIP3    H144553   4.699   3.414   4.362  1.7909 -0.9538 -1.7090
 6786TIP3    H244554   4.639   3.552   4.355 -1.2796 -2.0467  0.7316
 6787TIP3   OH244555   1.424   4.011   3.443 -0.0061  0.1048  0.0961
 6787TIP3    H144556   1.458   4.036   3.529  0.7783  1.3868 -0.5574
 6787TIP3    H244557   1.424   3.915   3.444  2.2233  0.0678  0.7046
 6788TIP3   OH244558   6.498   2.931   2.418 -0.1369 -0.0745 -0.0269
 6788TIP3    H144559   6.540   2.921   2.333 -2.6237 -4.2582 -1.0615
 6788TIP3    H244560   6.562   2.900   2.482 -0.2038 -2.8158 -1.1629
 6789TIP3   OH244561   0.698   0.670   3.045 -0.1627 -0.1172 -0.1303
 6789TIP3    H144562   0.749   0.625   3.112 -0.3425  1.2324  0.9417
 6789TIP3    H244563   0.748   0.749   3.026 -0.3054 -0.2941 -1.3539
 6790TIP3   OH244564   0.170   3.905   4.415  0.2714  0.1506 -0.4625
 6790TIP3    H144565   0.169   3.997   4.442 -0.2228  0.0458 -0.1010
 6790TIP3    H244566   0.107   3.900   4.343 -1.7237 -0.3784  1.2195
 6791TIP3   OH244567   4.284   5.903   3.590  0.3631  0.0987  0.1503
 6791TIP3    H144568   4.234   5.906   3.509 -0.3046 -2.1601  0.4002
 6791TIP3    H244569   4.376   5.907   3.563  0.1887 -1.7731 -0.8477
 6792TIP3   OH244570   5.056   1.813   4.280  0.0468  0.4913 -0.4965
 6792TIP3    H144571   5.041   1.890   4.335 -0.5019 -0.3660  0.5909
 6792TIP3    H244572   5.140   1.778   4.311  0.2218  0.5618 -0.8872
 6793TIP3   OH244573   6.280   1.926   4.317 -0.2598  0.0121 -0.6917
 6793TIP3    H144574   6.322   1.943   4.233 -0.3383  0.0774 -0.7173
 6793TIP3    H244575   6.187   1.937   4.300 -0.1382  4.1039  0.3077
 6794TIP3   OH244576   5.640   5.615   4.488  0.0560 -0.0695 -0.8417
 6794TIP3    H144577   5.640   5.710   4.486 -0.9223 -0.0660 -1.4315
 6794TIP3    H244578   5.658   5.588   4.398  2.0127 -0.4846 -0.3785
 6795TIP3   OH244579   0.662   3.410   2.558  0.7254  0.4405 -0.3432
 6795TIP3    H144580   0.690   3.321   2.579 -0.7797 -0.2254 -1.0056
 6795TIP3    H244581   0.580   3.399   2.510  0.1487  2.2227  0.1489
 6796TIP3   OH244582   4.796   3.246   3.599  0.2898  0.4993  0.0562
 6796TIP3    H144583   4.866   3.181   3.605 -1.0942 -0.9290  1.9227
 6796TIP3    H244584   4.752   3.226   3.517  0.5572 -0.2231  0.0794
 6797TIP3   OH244585   6.306   5.862   2.467 -0.1032 -0.0025 -0.5699
 6797TIP3    H144586   6.299   5.785   2.411  1.6451 -0.2199 -0.5214
 6797TIP3    H244587   6.345   5.830   2.548  1.1787  1.0154 -0.7594
 6798TIP3   OH244588   4.198   4.953   2.991 -0.4238  0.1557 -0.2711
 6798TIP3    H144589   4.123   4.903   2.959  0.8905 -0.9060 -1.8487
 6798TIP3    H244590   4.227   5.005   2.915  1.6234 -0.9786 -0.3411
 6799TIP3   OH244591   3.476   1.553   1.991 -0.3235  0.5772 -0.0592
 6799TIP3    H144592   3.444   1.634   2.030  0.9120  0.5388  1.1032
 6799TIP3    H244593   3.412   1.487   2.017 -0.1110  0.7665  0.9905
 6800TIP3   OH244594   4.457   1.436   1.882 -0.4695 -0.1223  0.1286
 6800TIP3    H144595   4.468   1.341   1.889 -1.4632 -0.2062  0.8010
 6800TIP3    H244596   4.362   1.448   1.877 -0.3106  0.7849 -0.8774
 6801TIP3   OH244597   2.672   6.785   3.107  0.2519 -0.3711 -0.3627
 6801TIP3    H144598   2.615   6.824   3.041 -0.6229 -1.1759 -0.1086
 6801TIP3    H244599   2.640   6.695   3.116  0.3895 -0.2989  1.0983
 6802TIP3   OH244600   4.039   0.255   3.002  0.3394  0.1428  0.0821
 6802TIP3    H144601   3.983   0.307   3.060  1.8071  1.3762  0.4652
 6802TIP3    H244602   4.087   0.320   2.951  0.8854 -0.8892 -0.7435
 6803TIP3   OH244603   0.659   2.431   5.138 -0.0883 -0.2799 -0.2438
 6803TIP3    H144604   0.676   2.403   5.048  2.8652  1.2171 -0.2585
 6803TIP3    H244605   0.633   2.351   5.184 -1.0429 -1.1728 -2.2513
 6804TIP3   OH244606   4.879   3.831   3.586 -0.2921 -0.3674  0.0976
 6804TIP3    H144607   4.892   3.854   3.494 -0.3059  2.3881  0.7029
 6804TIP3    H244608   4.800   3.777   3.586 -1.4511  1.2044 -1.3689
 6805TIP3   OH244609   2.624   6.102   4.618  0.0016 -0.4096  0.1499
 6805TIP3    H144610   2.665   6.187   4.602  0.4528 -0.5893  0.3446
 6805TIP3    H244611   2.694   6.039   4.606 -0.7984 -0.9587 -2.2224
 6806TIP3   OH244612   0.901   1.490   3.584 -0.1826  0.0092 -0.1584
 6806TIP3    H144613   0.973   1.428   3.570  0.2698  0.0033  1.8450
 6806TIP3    H244614   0.938   1.576   3.567  0.0224 -0.0711 -0.1157
 6807TIP3   OH244615   4.864   3.074   3.249 -0.1263  0.2335  0.4607
 6807TIP3    H144616   4.945   3.031   3.223 -0.7766 -0.7410  0.0190
 6807TIP3    H244617   4.806   3.003   3.276 -0.2823  1.0205  2.3803
 6808TIP3   OH244618   4.677   5.040   4.127 -0.2804 -0.3276  1.4168
 6808TIP3    H144619   4.701   5.027   4.219  0.6224 -0.8206  1.1250
 6808TIP3    H244620   4.760   5.032   4.080 -0.5815  0.9107  0.6484
 6809TIP3   OH244621   4.375   3.054   3.144  0.4302 -0.3489 -0.1406
 6809TIP3    H144622   4.360   3.003   3.064 -0.1931 -1.1159  0.4503
 6809TIP3    H244623   4.372   2.990   3.215  2.0966  0.1444  0.4297
 6810TIP3   OH244624   2.485   2.225   2.497  0.2352  0.3657 -0.1291
 6810TIP3    H144625   2.480   2.134   2.468 -2.0799  0.3730  0.0489
 6810TIP3    H244626   2.408   2.267   2.459  0.2451  1.7882  1.3023
 6811TIP3   OH244627   6.277   3.061   4.200 -0.5406 -0.0652  0.5192
 6811TIP3    H144628   6.267   2.995   4.132 -3.6681 -1.2615  1.9598
 6811TIP3    H244629   6.223   3.134   4.172  1.4957  1.2654 -0.1959
 6812TIP3   OH244630   2.642   0.939   1.987 -0.2105 -0.2769 -0.4359
 6812TIP3    H144631   2.604   0.851   1.978 -0.5146 -0.1078 -0.8365
 6812TIP3    H244632   2.571   0.998   1.964  0.6165  0.0132 -2.4348
 6813TIP3   OH244633   0.082   4.619   3.614  0.0658 -0.2256 -0.0051
 6813TIP3    H144634   0.083   4.715   3.620 -0.2834 -0.2360  0.2306
 6813TIP3    H244635   0.075   4.602   3.520  1.3211 -0.0316 -0.1459
 6814TIP3   OH244636   4.079   5.459   5.712  0.1814 -0.2845 -0.1287
 6814TIP3    H144637   4.093   5.542   5.758 -1.6884 -0.9581  1.7996
 6814TIP3    H244638   4.090   5.392   5.779  0.1881 -1.5385 -1.3268
 6815TIP3   OH244639   6.538   3.776   4.885  0.4791 -0.4227  0.8779
 6815TIP3    H144640   6.447   3.787   4.911  0.8347  1.2744  1.5234
 6815TIP3    H244641   6.579   3.733   4.959 -0.1464 -3.0976 -0.1972
 6816TIP3   OH244642   4.467   4.304   3.843 -0.5916  0.8899 -0.3384
 6816TIP3    H144643   4.447   4.238   3.909  2.0165 -0.2640 -0.5710
 6816TIP3    H244644   4.459   4.258   3.760  2.2377  0.4098 -0.4661
 6817TIP3   OH244645   2.147   4.330   2.162 -0.1701 -0.6000  0.3226
 6817TIP3    H144646   2.173   4.241   2.139 -0.8300 -1.0669  1.3376
 6817TIP3    H244647   2.218   4.385   2.128  0.3263 -1.5200 -0.1643
 6818TIP3   OH244648   4.088   5.894   2.255  0.3244  0.2584  0.0256
 6818TIP3    H144649   4.025   5.874   2.186  0.4653  1.1286 -0.3703
 6818TIP3    H244650   4.170   5.857   2.224  0.1352 -0.3855  0.2811
 6819TIP3   OH244651   0.275   0.405   4.086  0.4369  0.0193 -0.0339
 6819TIP3    H144652   0.261   0.311   4.079  0.4340 -0.0597  0.9865
 6819TIP3    H244653   0.256   0.438   3.998  0.3441 -0.9118 -0.3768
 6820TIP3   OH244654   0.131   0.497   4.328 -0.1629  0.0904  0.4764
 6820TIP3    H144655   0.045   0.461   4.307  0.0269  1.2069 -2.8588
 6820TIP3    H244656   0.190   0.459   4.263  0.7480  3.2717 -0.7722
 6821TIP3   OH244657   4.241   1.548   3.892 -0.8868 -0.3638  0.0565
 6821TIP3    H144658   4.310   1.492   3.927  0.3753  1.4844  0.6588
 6821TIP3    H244659   4.164   1.528   3.946 -0.0961 -0.5590  1.1377
 6822TIP3   OH244660   4.349   1.207   1.990  0.3646  1.0369 -0.4637
 6822TIP3    H144661   4.278   1.269   1.975  0.3399  0.7357 -1.7297
 6822TIP3    H244662   4.305   1.128   2.021 -0.1821  0.1372 -3.1902
 6823TIP3   OH244663   6.367   1.505   2.258  0.0505 -0.5116  0.6361
 6823TIP3    H144664   6.273   1.523   2.254 -0.0229 -1.0700 -1.3763
 6823TIP3    H244665   6.408   1.578   2.210  0.3945 -1.5477 -0.7123
 6824TIP3   OH244666   1.220   2.859   9.845 -0.1292  0.1750 -0.2590
 6824TIP3    H144667   1.184   2.804   9.776 -0.6625  0.2952 -0.0821
 6824TIP3    H244668   1.312   2.870   9.822  0.1981 -1.4595  0.1272
 6825TIP3   OH244669   1.587   4.538   3.798  0.4495 -0.0178 -0.2054
 6825TIP3    H144670   1.629   4.469   3.849  1.0843 -0.0137 -0.7025
 6825TIP3    H244671   1.649   4.611   3.801  0.7023 -0.1681 -1.3292
 6826TIP3   OH244672   3.834   0.643   5.717 -0.0831  0.6058  0.4730
 6826TIP3    H144673   3.808   0.728   5.753 -1.1823  0.5887 -0.2244
 6826TIP3    H244674   3.922   0.629   5.750  0.0469  1.9361  0.7530
 6827TIP3   OH244675   6.558   3.263   2.570  0.4372  0.2171  0.2765
 6827TIP3    H144676   6.558   3.236   2.478 -0.8224 -3.4325  1.1704
 6827TIP3    H244677   6.470   3.297   2.586 -0.1245 -1.3396  0.6182
 6828TIP3   OH244678   3.622   0.382   4.092  0.6531 -0.0498 -0.2874
 6828TIP3    H144679   3.659   0.377   4.004  1.1887 -1.2886 -0.0191
 6828TIP3    H244680   3.646   0.299   4.132  1.5273  0.9786  1.4593
 6829TIP3   OH244681   3.696   4.991   2.955 -0.0717  0.3063  0.3270
 6829TIP3    H144682   3.645   4.935   2.897 -1.0792 -0.0796  1.5560
 6829TIP3    H244683   3.710   4.939   3.033 -0.2553  1.4432  1.1463
 6830TIP3   OH244684   1.697   2.776   3.152 -0.0943 -0.3568  0.3860
 6830TIP3    H144685   1.607   2.774   3.185  0.2960 -0.9136  1.4647
 6830TIP3    H244686   1.743   2.834   3.212  0.5910 -1.2338  0.7258
 6831TIP3   OH244687   0.770   1.806   3.602  0.2176 -0.0211 -0.0524
 6831TIP3    H144688   0.738   1.881   3.652 -0.6836 -0.9668  0.8490
 6831TIP3    H244689   0.770   1.836   3.511 -0.9498  0.8158  0.1917
 6832TIP3   OH244690   5.954   1.457   2.950  0.5013  0.0543  0.2902
 6832TIP3    H144691   5.947   1.415   2.864  1.8538 -1.1198  0.7042
 6832TIP3    H244692   5.881   1.423   3.000  0.4498 -0.2664 -0.0010
 6833TIP3   OH244693   6.189   0.316   2.945 -0.3525 -0.1115  0.4415
 6833TIP3    H144694   6.104   0.288   2.977 -0.5340 -0.4355 -0.3027
 6833TIP3    H244695   6.213   0.251   2.880  1.4158 -1.1712  2.0691
 6834TIP3   OH244696   2.672   5.182   2.499 -0.0014  0.3815  0.0206
 6834TIP3    H144697   2.606   5.224   2.443 -0.0021 -0.1065 -0.3510
 6834TIP3    H244698   2.753   5.188   2.448 -0.1086 -0.5406 -0.2767
 6835TIP3   OH244699   4.294   5.997   3.335 -0.3528  0.4364 -0.2142
 6835TIP3    H144700   4.334   6.071   3.380  0.4075  0.4234 -0.8429
 6835TIP3    H244701   4.267   6.033   3.250 -3.8935  1.0727  1.0029
 6836TIP3   OH244702   1.852   5.584   3.524 -0.2094 -0.2129 -0.4026
 6836TIP3    H144703   1.889   5.612   3.440  0.2357 -0.1335 -0.1816
 6836TIP3    H244704   1.769   5.543   3.500  0.8547 -2.0889 -1.1296
 6837TIP3   OH244705   3.053   5.246   2.800 -0.1441  0.2518  0.1808
 6837TIP3    H144706   3.136   5.203   2.820 -1.3761 -1.9681  0.9187
 6837TIP3    H244707   3.012   5.189   2.733 -0.4662  2.1035 -1.2765
 6838TIP3   OH244708   2.652   2.544   2.776  0.7005 -0.0905  0.1739
 6838TIP3    H144709   2.645   2.582   2.863  0.3567  0.8308 -0.2406
 6838TIP3    H244710   2.632   2.616   2.717 -1.0953 -1.1747 -0.6178
 6839TIP3   OH244711   4.282   0.673   2.189  0.2107 -0.3776  0.7362
 6839TIP3    H144712   4.275   0.655   2.095 -1.4107 -0.5864  0.8577
 6839TIP3    H244713   4.304   0.588   2.228  0.2754 -0.4255  0.5951
 6840TIP3   OH244714   3.421   1.721   4.000 -0.0406  0.3292  0.3100
 6840TIP3    H144715   3.423   1.639   3.951 -4.3760 -0.0438  0.3854
 6840TIP3    H244716   3.449   1.697   4.089  1.6924 -0.3019 -0.3573
 6841TIP3   OH244717   6.354   0.637   4.204 -0.4198 -0.0523  0.0041
 6841TIP3    H144718   6.299   0.593   4.269 -1.4971  0.3035 -0.6412
 6841TIP3    H244719   6.297   0.648   4.128  0.1176  1.5835 -0.1995
 6842TIP3   OH244720   2.453   2.987   2.489 -0.1847 -0.1555  0.0707
 6842TIP3    H144721   2.360   2.981   2.467 -0.4069 -1.0691  1.1321
 6842TIP3    H244722   2.471   3.081   2.493 -1.0884  0.0310 -0.0389
 6843TIP3   OH244723   1.481   5.565   2.265 -1.0052  0.1904  0.3196
 6843TIP3    H144724   1.502   5.493   2.326 -0.4242  0.6828  0.7138
 6843TIP3    H244725   1.399   5.538   2.225  0.4122 -1.9209 -1.4041
 6844TIP3   OH244726   0.192   2.048   4.804  0.5793  0.1716 -0.4714
 6844TIP3    H144727   0.101   2.036   4.833  0.4062  0.2893 -0.9516
 6844TIP3    H244728   0.201   1.989   4.729  1.0986 -0.3208 -0.0210
 6845TIP3   OH244729   5.866   2.598   2.340  0.2428  0.6054  0.2282
 6845TIP3    H144730   5.803   2.530   2.364 -0.0200  0.8650  0.2845
 6845TIP3    H244731   5.813   2.667   2.300  0.4351  1.0184  0.6749
 6846TIP3   OH244732   0.560   3.993   2.658  1.2229 -0.2077  0.1758
 6846TIP3    H144733   0.591   4.070   2.707 -0.8456  0.8823 -0.0961
 6846TIP3    H244734   0.504   3.947   2.721  3.9490 -2.6708  0.9856
 6847TIP3   OH244735   3.314   1.283   3.280 -0.0957  0.1472  0.4301
 6847TIP3    H144736   3.326   1.338   3.356 -0.0263  2.0112 -0.8626
 6847TIP3    H244737   3.331   1.340   3.205  1.5957 -2.0102 -0.9879
 6848TIP3   OH244738   1.095   0.250   2.312 -0.3909  0.1980 -0.4083
 6848TIP3    H144739   1.140   0.299   2.243  0.0251  0.7407  0.2326
 6848TIP3    H244740   1.083   0.162   2.276  3.2777 -0.6986  0.2398
 6849TIP3   OH244741   3.701   6.066   5.086 -0.0784 -0.4884  0.3531
 6849TIP3    H144742   3.794   6.087   5.079 -0.6633  1.8531 -1.6508
 6849TIP3    H244743   3.675   6.101   5.171  0.3245  1.5035 -0.2918
 6850TIP3   OH244744   5.450   0.791   4.275  0.0268 -0.3303 -0.2737
 6850TIP3    H144745   5.407   0.706   4.282 -0.2702 -0.1727 -0.1873
 6850TIP3    H244746   5.410   0.844   4.344 -1.3732  0.5563 -1.7121
 6851TIP3   OH244747   4.088   4.558   2.871  0.0881 -0.4408  0.3880
 6851TIP3    H144748   4.104   4.644   2.907  0.7066  0.0756 -1.0360
 6851TIP3    H244749   3.994   4.545   2.880 -0.1762  0.8410 -0.3253
 6852TIP3   OH244750   4.081   3.580   3.366  0.8170  0.0802  0.2805
 6852TIP3    H144751   4.126   3.583   3.451  0.6492 -1.0076  0.4304
 6852TIP3    H244752   4.148   3.602   3.302  1.7638 -2.0163  0.4575
 6853TIP3   OH244753   3.340   1.026   4.249  0.3237 -0.6942  0.4480
 6853TIP3    H144754   3.282   1.068   4.312  1.4005  0.0430  0.9728
 6853TIP3    H244755   3.351   0.936   4.282 -1.6421 -1.3159 -0.4478
 6854TIP3   OH244756   3.199   2.925   4.816 -0.3653  0.2455  0.1067
 6854TIP3    H144757   3.144   2.848   4.834 -1.0524  0.5236 -0.7309
 6854TIP3    H244758   3.142   3.000   4.833  0.3304  0.5813  1.0067
 6855TIP3   OH244759   5.599   5.056   2.190  0.2791 -0.2805 -0.1747
 6855TIP3    H144760   5.529   5.119   2.174  0.8796  0.2716 -0.6754
 6855TIP3    H244761   5.568   5.005   2.265  0.0274  0.9710  0.6105
 6856TIP3   OH244762   2.765   3.460   2.876 -0.2022 -0.0714  0.2333
 6856TIP3    H144763   2.739   3.539   2.923 -0.0227  0.5836 -0.7504
 6856TIP3    H244764   2.852   3.480   2.840 -0.9395 -0.0062 -1.5982
 6857TIP3   OH244765   5.207   5.891   4.230  0.6606 -0.3601  0.0033
 6857TIP3    H144766   5.139   5.958   4.223  2.1798  1.2602 -0.2260
 6857TIP3    H244767   5.178   5.820   4.173 -0.5334  0.5579 -0.5809
 6858TIP3   OH244768   3.016   1.803   1.868  0.0382  0.2351  0.3685
 6858TIP3    H144769   3.019   1.824   1.961  1.3373  0.9505  0.1961
 6858TIP3    H244770   3.019   1.708   1.864 -0.9372  0.1614  1.0662
 6859TIP3   OH244771   2.008   0.465   1.778  0.3246 -0.0913  0.1083
 6859TIP3    H144772   1.935   0.487   1.836 -1.2014 -0.9943 -1.3560
 6859TIP3    H244773   2.016   0.540   1.720 -0.6212 -0.6681 -0.8106
 6860TIP3   OH244774   0.431   6.649   4.745 -0.5405 -0.5973  0.5114
 6860TIP3    H144775   0.519   6.672   4.717  0.0885 -3.0434  0.2591
 6860TIP3    H244776   0.387   6.733   4.756  1.0297  0.6475 -1.8146
 6861TIP3   OH244777   6.167   6.823   3.202  0.0831 -0.2525 -0.5165
 6861TIP3    H144778   6.201   6.739   3.235 -1.1717 -0.6808 -0.2395
 6861TIP3    H244779   6.101   6.798   3.137 -0.6607  0.5134 -0.0702
 6862TIP3   OH244780   2.942   2.214   4.559  0.7239  0.2658 -0.0510
 6862TIP3    H144781   2.943   2.308   4.578  0.3590  0.6338 -1.6360
 6862TIP3    H244782   2.887   2.207   4.480  1.7278 -1.1265 -0.6666
 6863TIP3   OH244783   5.891   0.423   3.113 -0.4249  0.4107  0.5973
 6863TIP3    H144784   5.882   0.328   3.123 -0.0580  0.4485  1.4324
 6863TIP3    H244785   5.825   0.448   3.048 -1.7272 -0.1796  1.6549
 6864TIP3   OH244786   2.373   4.103   2.921  0.0546 -0.3047  0.1681
 6864TIP3    H144787   2.406   4.015   2.899 -1.9983 -1.1649  0.3441
 6864TIP3    H244788   2.450   4.159   2.911  0.6159 -1.4455 -3.9343
 6865TIP3   OH244789   6.825   6.119   2.226  0.2154 -0.8747  0.0611
 6865TIP3    H144790   6.917   6.141   2.210  0.2673  0.1094  1.4606
 6865TIP3    H244791   6.820   6.105   2.321 -1.3032  0.3359  0.2038
 6866TIP3   OH244792   5.916   2.536   4.856  0.5935 -0.6447 -0.2206
 6866TIP3    H144793   5.977   2.468   4.828  0.7391 -0.7156  0.2569
 6866TIP3    H244794   5.931   2.609   4.796 -0.5344 -1.5264 -1.6415
 6867TIP3   OH244795   3.950   1.805   2.774 -0.2179 -0.2478  0.1010
 6867TIP3    H144796   3.987   1.835   2.857  2.5939  1.4559 -1.6020
 6867TIP3    H244797   3.864   1.849   2.769  0.0999  0.6233  1.5453
 6868TIP3   OH244798   6.275   0.701   5.183  0.1023 -0.4861 -0.2242
 6868TIP3    H144799   6.249   0.768   5.119  1.0604 -0.2258 -0.3619
 6868TIP3    H244800   6.218   0.627   5.164  0.9020 -0.7301 -1.9593
 6869TIP3   OH244801   5.335   1.743   2.459 -0.0167 -0.4264  0.4563
 6869TIP3    H144802   5.384   1.663   2.478  2.1596  0.1615 -2.1754
 6869TIP3    H244803   5.269   1.716   2.395  1.4988  0.0057 -1.3676
 6870TIP3   OH244804   2.046   5.725   3.743  0.5380 -0.0636 -0.0005
 6870TIP3    H144805   1.995   5.780   3.683  0.0111  0.7757  1.1872
 6870TIP3    H244806   2.121   5.698   3.691 -0.1350  0.2580 -1.1924
 6871TIP3   OH244807   6.111   4.219   3.208 -0.2328  0.1913  0.2882
 6871TIP3    H144808   6.086   4.310   3.193  0.8288  0.3547 -0.6447
 6871TIP3    H244809   6.090   4.175   3.126 -2.1280 -0.7638  1.2213
 6872TIP3   OH244810   5.699   0.143   2.433  0.5437  0.4467  0.5235
 6872TIP3    H144811   5.679   0.051   2.421 -2.0558  1.1330 -1.2792
 6872TIP3    H244812   5.744   0.168   2.352 -2.1333  1.4833 -0.7628
 6873TIP3   OH244813   4.304   5.154   4.815  0.0163  0.2841  0.5107
 6873TIP3    H144814   4.259   5.070   4.811  1.4058 -0.4722 -0.2231
 6873TIP3    H244815   4.315   5.180   4.724 -0.0683  1.0891  0.7202
 6874TIP3   OH244816   3.846   5.741   4.625 -0.2357  0.1259  0.3857
 6874TIP3    H144817   3.890   5.729   4.709 -0.6786  0.9801  0.7384
 6874TIP3    H244818   3.883   5.671   4.570  0.2768 -0.2556  1.1864
 6875TIP3   OH244819   5.003   2.885   2.416  0.2362 -0.2338 -0.3634
 6875TIP3    H144820   4.910   2.880   2.395  0.2440 -0.8504 -0.2759
 6875TIP3    H244821   5.031   2.971   2.383 -0.5012  0.2355  0.1986
 6876TIP3   OH244822   5.350   0.189   4.468 -0.2112  0.4057 -0.2985
 6876TIP3    H144823   5.366   0.278   4.499  1.4689  0.2693 -0.6993
 6876TIP3    H244824   5.292   0.151   4.534 -0.5923  1.6437  0.1072
 6877TIP3   OH244825   2.038   6.141   3.285 -0.7194  0.3991  0.2363
 6877TIP3    H144826   2.085   6.107   3.361  1.2928 -0.1458 -1.1899
 6877TIP3    H244827   2.037   6.236   3.298  1.0129  0.4458  0.2063
 6878TIP3   OH244828   0.750   3.050   4.701 -0.2680 -0.1501 -0.2444
 6878TIP3    H144829   0.794   3.045   4.616  0.9905 -1.6776  0.4546
 6878TIP3    H244830   0.659   3.027   4.682  0.4218 -2.6322 -0.9160
 6879TIP3   OH244831   5.721   6.563   5.379 -0.3215 -0.7168 -0.0090
 6879TIP3    H144832   5.647   6.586   5.436  0.1907 -0.5026  0.5860
 6879TIP3    H244833   5.720   6.468   5.375 -0.1987 -0.7462  0.5893
 6880TIP3   OH244834   2.096   3.793   4.009  0.0297  0.0548 -0.0200
 6880TIP3    H144835   2.051   3.758   4.086 -1.0559 -0.3756 -0.8220
 6880TIP3    H244836   2.119   3.883   4.033 -1.3697  0.3210  0.3897
 6881TIP3   OH244837   0.461   6.174   4.292 -0.0054 -0.3282 -0.3377
 6881TIP3    H144838   0.366   6.165   4.298  0.0675 -0.3322  1.6109
 6881TIP3    H244839   0.490   6.093   4.251 -0.7972 -0.6786 -0.2252
 6882TIP3   OH244840   6.256   1.514   4.402 -0.5691 -0.2335  0.1420
 6882TIP3    H144841   6.341   1.556   4.412  0.6106 -1.1169 -4.0656
 6882TIP3    H244842   6.194   1.586   4.397  0.2008  0.5301  1.1646
 6883TIP3   OH244843   2.988   0.630   3.775 -0.1662  0.1172  0.1850
 6883TIP3    H144844   2.897   0.642   3.745  0.6887  1.0318 -2.2666
 6883TIP3    H244845   2.980   0.572   3.851 -2.6424 -1.6856 -1.2752
 6884TIP3   OH244846   6.720   1.196   4.646  0.5267 -0.4748  0.2556
 6884TIP3    H144847   6.766   1.123   4.687  0.7551 -1.1006 -1.0441
 6884TIP3    H244848   6.655   1.155   4.589  2.1616  0.1557 -2.2836
 6885TIP3   OH244849   0.181   5.579   2.920  0.0939  0.2183 -0.1383
 6885TIP3    H144850   0.157   5.505   2.863 -2.5603  0.1211  0.9645
 6885TIP3    H244851   0.227   5.639   2.862  0.3623 -1.3184 -1.6060
 6886TIP3   OH244852   4.593   4.692   4.451 -0.2417 -1.0759 -0.1658
 6886TIP3    H144853   4.502   4.670   4.432 -0.1739 -0.4921 -1.3165
 6886TIP3    H244854   4.643   4.647   4.383  0.2412 -0.7462 -0.0345
 6887TIP3   OH244855   2.425   5.233   3.039  0.2911  0.3203  0.7313
 6887TIP3    H144856   2.347   5.263   2.992  0.5243  2.3425  1.5335
 6887TIP3    H244857   2.497   5.281   2.999  1.3799 -2.2286 -0.6582
 6888TIP3   OH244858   4.737   6.114   2.575 -0.2806  0.2235  0.1599
 6888TIP3    H144859   4.741   6.185   2.638 -1.9968 -0.3664  0.9911
 6888TIP3    H244860   4.672   6.142   2.510 -0.6150 -0.3708  0.2279
 6889TIP3   OH244861   4.035   5.568   1.956 -0.0634  0.0906 -0.4164
 6889TIP3    H144862   3.956   5.522   1.983 -0.6775 -0.0459 -2.2825
 6889TIP3    H244863   4.033   5.651   2.004 -1.2892  0.0370 -0.3544
 6890TIP3   OH244864   3.982   3.861   3.098  0.1161  0.3608 -0.1411
 6890TIP3    H144865   3.956   3.889   3.186 -0.0632  1.4971 -0.5387
 6890TIP3    H244866   3.972   3.766   3.099  0.7915  0.2860  1.2781
 6891TIP3   OH244867   5.082   0.290   4.923  1.0809  0.5363  0.4849
 6891TIP3    H144868   5.005   0.277   4.868  1.6891 -0.8075 -0.0798
 6891TIP3    H244869   5.049   0.287   5.012  0.3208  1.1423  0.2358
 6892TIP3   OH244870   2.610   0.699   2.514  0.1772 -0.1870  0.0445
 6892TIP3    H144871   2.543   0.736   2.571  1.1644  0.6051  0.7377
 6892TIP3    H244872   2.570   0.698   2.427 -0.9486 -0.3443  0.5464
 6893TIP3   OH244873   6.003   4.042   1.802 -0.2735 -0.0909  0.1459
 6893TIP3    H144874   6.009   4.137   1.797 -1.9878  0.0014 -1.3506
 6893TIP3    H244875   5.909   4.024   1.805 -0.0395 -1.7603 -0.9847
 6894TIP3   OH244876   0.973   3.701   5.195  0.3983 -0.0815 -0.2814
 6894TIP3    H144877   0.938   3.774   5.245 -0.5234  0.0821 -1.1315
 6894TIP3    H244878   1.066   3.720   5.185  0.4534  0.2222  0.7565
 6895TIP3   OH244879   3.314   5.531   2.218 -0.5881  0.1691 -0.3839
 6895TIP3    H144880   3.269   5.561   2.140 -0.7820 -0.1978 -0.4151
 6895TIP3    H244881   3.286   5.440   2.229 -1.4084  0.5258  0.7191
 6896TIP3   OH244882   1.131   3.863   4.958 -0.4420 -0.3355  0.2055
 6896TIP3    H144883   1.201   3.890   5.017 -0.3821 -0.2400  0.0912
 6896TIP3    H244884   1.125   3.933   4.893  1.1278 -1.5317 -1.3374
 6897TIP3   OH244885   3.117   4.300   3.726 -0.0523  0.0329  0.7410
 6897TIP3    H144886   3.139   4.318   3.634 -2.0486  1.3849  0.4657
 6897TIP3    H244887   3.024   4.321   3.732  0.5093  2.2949  3.6304
 6898TIP3   OH244888   1.449   1.635   3.280 -0.1290  0.6351 -0.2420
 6898TIP3    H144889   1.537   1.599   3.289 -0.4424  0.2647  1.5640
 6898TIP3    H244890   1.391   1.569   3.319 -1.1032  1.3756 -0.3836
 6899TIP3   OH244891   2.894   2.177   3.937  0.5878 -0.0204  0.0986
 6899TIP3    H144892   2.921   2.098   3.890  3.1297  1.2790 -0.8250
 6899TIP3    H244893   2.975   2.213   3.972 -0.3944  2.4732  0.0151
 6900TIP3   OH244894   1.037   4.800   2.707 -0.6041 -0.5306  0.4367
 6900TIP3    H144895   1.066   4.889   2.724 -0.3457 -0.9406  2.4363
 6900TIP3    H244896   0.970   4.783   2.774 -1.8774 -1.2870 -0.9679
 6901TIP3   OH244897   1.050   6.001   3.395  0.1993  0.0930 -0.0115
 6901TIP3    H144898   1.122   5.947   3.428  0.4172  0.0695 -0.5205
 6901TIP3    H244899   0.978   5.985   3.457  0.5683 -0.0325  0.3894
 6902TIP3   OH244900   5.492   1.280   3.231  0.1385  0.4147 -0.3762
 6902TIP3    H144901   5.549   1.355   3.250  1.8650 -0.3565 -2.1656
 6902TIP3    H244902   5.470   1.290   3.138 -0.2743 -0.8711 -0.4298
 6903TIP3   OH244903   3.501   5.680   4.887 -0.6225  0.7704 -0.0529
 6903TIP3    H144904   3.431   5.711   4.944  0.0702  1.2552  0.5482
 6903TIP3    H244905   3.562   5.754   4.880  0.5085 -0.0611  0.5295
 6904TIP3   OH244906   2.305   3.658   3.908 -0.2387  0.0886 -0.6699
 6904TIP3    H144907   2.388   3.669   3.954  0.2309 -3.9557 -0.1838
 6904TIP3    H244908   2.241   3.701   3.964  0.9023 -1.0657  1.6675
 6905TIP3   OH244909   5.264   2.313   4.190  0.2823  0.1473  0.2729
 6905TIP3    H144910   5.343   2.354   4.226  1.6832 -2.0509 -0.1321
 6905TIP3    H244911   5.284   2.302   4.097  0.6098 -2.6749  0.5941
 6906TIP3   OH244912   3.602   5.421   2.229  0.2750 -0.2406 -0.1371
 6906TIP3    H144913   3.517   5.455   2.202  0.8075  0.9328 -0.3975
 6906TIP3    H244914   3.628   5.476   2.302 -0.0749 -1.8855  1.3111
 6907TIP3   OH244915   5.169   5.905   4.998 -0.3449  0.4551 -0.0405
 6907TIP3    H144916   5.232   5.932   4.931 -1.1208  0.5967 -0.7238
 6907TIP3    H244917   5.189   5.812   5.013  1.5239  1.0357  1.4287
 6908TIP3   OH244918   6.675   4.666   4.186  0.2963  0.2240  0.2267
 6908TIP3    H144919   6.592   4.676   4.140  0.6112 -0.2379 -0.4565
 6908TIP3    H244920   6.728   4.740   4.157 -0.0722  0.8715  1.1347
 6909TIP3   OH244921   0.816   6.719   3.569  0.7242 -0.0437  0.3916
 6909TIP3    H144922   0.738   6.665   3.584  0.9507 -1.0769 -1.6900
 6909TIP3    H244923   0.782   6.808   3.557 -0.4251 -0.7225 -2.1044
 6910TIP3   OH244924   5.516   2.507   4.135  0.4235  0.1561  0.1029
 6910TIP3    H144925   5.430   2.550   4.142 -0.4062 -1.5448  1.0268
 6910TIP3    H244926   5.541   2.520   4.043 -1.7137 -0.8751 -0.6901
 6911TIP3   OH244927   0.798   5.850   4.851 -0.0412  0.0265  0.0189
 6911TIP3    H144928   0.747   5.844   4.932 -1.5770 -0.3626 -0.9331
 6911TIP3    H244929   0.873   5.905   4.874 -1.4968  1.6346  1.1990
 6912TIP3   OH244930   2.698   4.908   3.059  0.0715 -0.1731 -0.3014
 6912TIP3    H144931   2.779   4.856   3.060  0.7581  0.7744 -1.8659
 6912TIP3    H244932   2.723   4.988   3.012 -1.7846  0.1418 -0.8014
 6913TIP3   OH244933   0.576   2.861   3.340  0.9544 -0.0706 -0.1861
 6913TIP3    H144934   0.514   2.901   3.279  0.8035  0.4771  0.3258
 6913TIP3    H244935   0.604   2.781   3.295 -1.7372 -1.4996  0.4809
 6914TIP3   OH244936   3.499   0.345   4.940  0.4085 -0.0134  0.2652
 6914TIP3    H144937   3.479   0.294   5.018 -0.2824 -1.8424 -1.0464
 6914TIP3    H244938   3.471   0.434   4.961 -0.4599 -0.6197  1.8158
 6915TIP3   OH244939   1.994   6.587   5.008 -0.3747  0.2740  0.3936
 6915TIP3    H144940   2.078   6.566   5.050 -0.3504  2.3094  1.5005
 6915TIP3    H244941   1.929   6.572   5.075 -0.6779  0.6365  0.1849
 6916TIP3   OH244942   4.470   4.724   2.764  0.3596 -0.5317 -0.4957
 6916TIP3    H144943   4.486   4.811   2.727 -0.2079 -0.0064  0.4485
 6916TIP3    H244944   4.463   4.740   2.858  2.0356 -1.8605 -0.1077
 6917TIP3   OH244945   5.495   5.523   2.440 -0.4147  0.0504  0.2935
 6917TIP3    H144946   5.536   5.466   2.375  1.2002 -1.0066  2.1207
 6917TIP3    H244947   5.504   5.611   2.403  0.7030 -0.4829 -0.7984
 6918TIP3   OH244948   6.306   3.483   3.118 -0.4877 -0.1800 -0.0195
 6918TIP3    H144949   6.266   3.561   3.156 -0.3447 -1.1106  2.1652
 6918TIP3    H244950   6.238   3.416   3.124  0.4080 -1.0245  1.1070
 6919TIP3   OH244951   6.747   5.269   2.218  0.1435  0.0430 -0.0463
 6919TIP3    H144952   6.805   5.195   2.198  1.2248  0.6499  0.7888
 6919TIP3    H244953   6.803   5.346   2.213 -0.3399  0.5516  1.7405
 6920TIP3   OH244954   5.158   4.147   4.137 -0.3999  0.3121  0.1126
 6920TIP3    H144955   5.133   4.056   4.122 -0.8096  0.2247  1.2252
 6920TIP3    H244956   5.079   4.188   4.172  0.2819  0.6616  1.2893
 6921TIP3   OH244957   3.387   2.738   4.732  0.1059 -0.3381 -0.6401
 6921TIP3    H144958   3.315   2.796   4.708 -1.1512 -1.4329  0.3214
 6921TIP3    H244959   3.408   2.691   4.651  0.3066  0.5562 -1.1215
 6922TIP3   OH244960   4.832   5.974   1.817 -0.4999 -0.1249  0.1370
 6922TIP3    H144961   4.871   6.057   1.843 -0.8080  0.7856 -2.0804
 6922TIP3    H244962   4.906   5.917   1.799 -0.2241  0.4608 -0.6369
 6923TIP3   OH244963   2.196   2.533   2.803  0.2353  0.2636  0.3474
 6923TIP3    H144964   2.229   2.585   2.729 -2.2520  1.0388 -0.2967
 6923TIP3    H244965   2.212   2.588   2.880 -1.9712  1.9010 -0.2737
 6924TIP3   OH244966   1.377   6.103   3.022 -0.0433 -0.5217 -0.1493
 6924TIP3    H144967   1.459   6.152   3.024 -0.2437 -0.1529 -0.6760
 6924TIP3    H244968   1.320   6.148   3.084 -0.4374  0.3106 -1.0878
 6925TIP3   OH244969   5.700   6.694   3.191  0.0739 -0.4402  0.6556
 6925TIP3    H144970   5.616   6.704   3.147  0.1683 -1.1568  0.3054
 6925TIP3    H244971   5.717   6.780   3.230 -1.6760 -0.7688  2.2881
 6926TIP3   OH244972   5.993   1.480   2.245 -0.0092  0.1872  0.2069
 6926TIP3    H144973   6.023   1.440   2.164  1.3981  2.0875 -0.3138
 6926TIP3    H244974   5.983   1.573   2.223 -0.1490  0.6507  2.0540
 6927TIP3   OH244975   1.817   1.310   5.176 -0.6871  0.2421  0.2089
 6927TIP3    H144976   1.738   1.361   5.158 -0.1092  0.5256 -1.6353
 6927TIP3    H244977   1.818   1.242   5.109  1.6426  1.4402 -1.0720
 6928TIP3   OH244978   2.835   4.310   3.402  0.3505  0.2084 -0.3294
 6928TIP3    H144979   2.841   4.315   3.497  1.4472  0.3207 -0.3915
 6928TIP3    H244980   2.752   4.354   3.380 -0.7277 -1.2123  0.6659
 6929TIP3   OH244981   1.347   6.492   3.672  0.1954 -0.3514 -0.0942
 6929TIP3    H144982   1.278   6.558   3.666  0.0822 -0.5554 -1.3073
 6929TIP3    H244983   1.396   6.515   3.751 -0.4705  0.5644  0.0625
 6930TIP3   OH244984   3.401   4.226   2.935  0.3984  0.2421 -0.5315
 6930TIP3    H144985   3.358   4.216   2.850  1.6018  1.9850 -1.4062
 6930TIP3    H244986   3.460   4.150   2.941  0.4638  0.2169 -1.3481
 6931TIP3   OH244987   2.972   2.138   1.965  0.1361 -0.1079 -0.3678
 6931TIP3    H144988   2.985   2.058   2.016  2.2260 -0.7831 -1.8357
 6931TIP3    H244989   2.907   2.114   1.899 -1.8251  0.4790  1.2647
 6932TIP3   OH244990   3.534   0.469   2.641 -0.2479 -0.1717  0.6484
 6932TIP3    H144991   3.478   0.395   2.666 -1.8167  0.8351  0.2990
 6932TIP3    H244992   3.603   0.431   2.587 -1.6809 -1.2606 -0.4964
 6933TIP3   OH244993   3.112   5.729   4.484 -0.0825  1.1164 -0.3576
 6933TIP3    H144994   3.179   5.683   4.535 -1.2690  1.5166  1.6858
 6933TIP3    H244995   3.030   5.709   4.530 -1.2898  1.2133 -2.3647
 6934TIP3   OH244996   5.979   0.177   3.053  0.8851 -0.1727  0.0056
 6934TIP3    H144997   5.985   0.141   3.141  0.2689 -0.3077 -0.0056
 6934TIP3    H244998   5.939   0.108   3.001  1.0133 -0.0007 -0.3276
 6935TIP3   OH244999   1.112   2.187   4.184 -0.3260 -0.8524  0.3101
 6935TIP3    H145000   1.181   2.124   4.205  1.6311  1.0959  0.1107
 6935TIP3    H245001   1.095   2.233   4.266 -1.7593 -1.6123  0.4640
 6936TIP3   OH245002   3.199   4.885   3.454  0.1957 -0.1894 -0.2191
 6936TIP3    H145003   3.282   4.848   3.426 -1.2291 -2.4695 -1.7628
 6936TIP3    H245004   3.141   4.809   3.466 -1.2367  1.1614  2.4934
 6937TIP3   OH245005   5.035   2.003   4.498 -0.0543 -0.4131 -0.6461
 6937TIP3    H145006   5.021   2.095   4.477  0.2915 -0.2909 -0.3591
 6937TIP3    H245007   5.035   2.000   4.594  0.2274 -0.6590 -0.6507
 6938TIP3   OH245008   2.841   3.260   2.676  0.5123  0.4927 -0.0312
 6938TIP3    H145009   2.824   3.332   2.736  1.3325  1.4919 -0.9545
 6938TIP3    H245010   2.767   3.262   2.614  0.8741  0.9853 -0.4560
 6939TIP3   OH245011   3.891   5.801   2.052 -0.5339 -0.3510 -0.9598
 6939TIP3    H145012   3.804   5.811   2.090 -0.3301 -2.2639  0.1456
 6939TIP3    H245013   3.878   5.813   1.958 -2.6407 -3.6844 -1.2365
 6940TIP3   OH245014   2.541   4.034   3.464  0.0729 -0.1912  0.1682
 6940TIP3    H145015   2.451   4.055   3.439  0.0016 -1.5138 -0.8109
 6940TIP3    H245016   2.540   3.939   3.475  0.9056 -0.0198  2.0636
 6941TIP3   OH245017   4.300   0.373   4.123 -0.1199 -0.2825 -0.3244
 6941TIP3    H145018   4.318   0.387   4.216 -0.4858 -2.1550  0.0676
 6941TIP3    H245019   4.324   0.456   4.081 -1.0591  1.0118  1.5673
 6942TIP3   OH245020   2.335   2.011   2.266 -0.1679 -0.5998 -0.1059
 6942TIP3    H145021   2.307   2.098   2.236  0.2676 -0.8144 -1.1801
 6942TIP3    H245022   2.418   1.996   2.222 -0.8869 -2.1427 -1.0299
 6943TIP3   OH245023   1.552   2.101   4.771  0.0670 -0.9538  0.4152
 6943TIP3    H145024   1.648   2.102   4.776  0.0196 -0.8883  1.6721
 6943TIP3    H245025   1.524   2.124   4.859 -1.1115 -3.4332  0.7500
 6944TIP3   OH245026   3.846   4.650   5.602  0.2272  0.4504 -0.5365
 6944TIP3    H145027   3.940   4.653   5.619  0.0507 -0.4805  0.7288
 6944TIP3    H245028   3.832   4.568   5.554 -0.1081 -0.1789  0.5972
 6945TIP3   OH245029   4.496   5.596   3.935 -0.0451  1.0820  1.2327
 6945TIP3    H145030   4.437   5.672   3.929  0.1829  1.2655  1.3042
 6945TIP3    H245031   4.580   5.629   3.904 -0.1563  0.6205  0.4248
 6946TIP3   OH245032   3.055   3.300   3.006 -0.7948 -0.3737  0.3934
 6946TIP3    H145033   3.055   3.227   3.066  0.6746 -0.9913 -0.3110
 6946TIP3    H245034   3.021   3.374   3.057 -0.8589 -1.1872  1.5545
 6947TIP3   OH245035   1.058   5.803   2.201 -0.0437 -0.0571  0.1429
 6947TIP3    H145036   1.139   5.827   2.156  0.3558 -2.9838 -0.9747
 6947TIP3    H245037   1.087   5.771   2.287 -0.3086  1.2002  0.7122
 6948TIP3   OH245038   6.192   6.752   3.647 -0.1366  0.3406 -0.2007
 6948TIP3    H145039   6.263   6.798   3.601  0.2189 -1.0239 -1.0616
 6948TIP3    H245040   6.156   6.818   3.706  0.5503  1.6433 -1.1775
 6949TIP3   OH245041   3.713   3.044   4.364  0.4510 -0.0974 -0.1389
 6949TIP3    H145042   3.763   3.033   4.283  1.9841  1.3993  0.5314
 6949TIP3    H245043   3.626   3.010   4.344  0.8725 -0.0410 -2.3089
 6950TIP3   OH245044   1.796   5.836   5.817 -0.3758 -0.0599  0.1822
 6950TIP3    H145045   1.887   5.833   5.788 -0.0129  1.5525  1.0160
 6950TIP3    H245046   1.799   5.815   5.910 -0.7273  0.8610  0.4115
 6951TIP3   OH245047   5.927   0.916   4.039 -0.2359  0.0534  0.0106
 6951TIP3    H145048   5.872   0.964   4.101 -0.0831  0.0151  0.1769
 6951TIP3    H245049   5.889   0.935   3.954 -0.9687 -0.5911  0.1853
 6952TIP3   OH245050   0.097   4.136   4.037  0.5133 -0.4646  0.3431
 6952TIP3    H145051   0.008   4.110   4.014  0.3389  0.4194 -0.0561
 6952TIP3    H245052   0.152   4.067   4.002  0.1921  0.4264 -2.1359
 6953TIP3   OH245053   5.479   6.101   2.607  0.1660  0.4824  0.4022
 6953TIP3    H145054   5.574   6.089   2.614 -0.0444 -1.2563  0.7484
 6953TIP3    H245055   5.451   6.120   2.697  0.0124 -0.5787  0.5885
 6954TIP3   OH245056   2.518   4.631   2.251 -0.1180  0.0983 -0.8306
 6954TIP3    H145057   2.465   4.605   2.175  0.2643  1.2503 -1.5127
 6954TIP3    H245058   2.457   4.679   2.307 -0.7165 -1.7812  0.2276
 6955TIP3   OH245059   2.867   0.787   2.588  0.2291 -0.3288  0.3647
 6955TIP3    H145060   2.795   0.772   2.527  2.4496 -3.7408 -1.7901
 6955TIP3    H245061   2.854   0.723   2.658  0.7053 -0.3923  0.4019
 6956TIP3   OH245062   2.158   4.572   3.054  0.5378 -0.1992 -0.9376
 6956TIP3    H145063   2.210   4.642   3.015 -0.7472  0.9728 -0.6172
 6956TIP3    H245064   2.067   4.595   3.035 -0.0551 -0.4593  1.2284
 6957TIP3   OH245065   6.575   3.329   4.075  0.0712 -0.1121 -0.1548
 6957TIP3    H145066   6.656   3.380   4.078  0.7573 -1.2210  1.6868
 6957TIP3    H245067   6.572   3.283   4.159 -2.2618 -0.4467 -0.3494
 6958TIP3   OH245068   4.246   3.596   4.859  0.0357 -0.2104 -0.4527
 6958TIP3    H145069   4.228   3.504   4.841 -0.9807 -0.0504 -0.3393
 6958TIP3    H245070   4.161   3.632   4.887  0.7692  0.3656  1.1781
 6959TIP3   OH245071   6.242   0.406   1.989 -0.2424 -0.0595  0.2726
 6959TIP3    H145072   6.225   0.322   1.947 -0.6185 -0.5797  1.4289
 6959TIP3    H245073   6.238   0.388   2.083  3.0687  0.5486  0.6616
 6960TIP3   OH245074   4.556   6.042   2.856  0.1693 -0.2083 -0.3414
 6960TIP3    H145075   4.570   6.017   2.948 -1.2050 -0.1405 -0.0876
 6960TIP3    H245076   4.531   5.960   2.813 -2.0446  0.2068 -0.0002
 6961TIP3   OH245077   4.116   5.508   2.257  0.2420  0.4054  1.0217
 6961TIP3    H145078   4.202   5.536   2.226  0.0402  0.3008  0.3409
 6961TIP3    H245079   4.062   5.508   2.178  0.4566 -2.8181  0.7266
 6962TIP3   OH245080   0.353   3.451   3.871  0.0385  0.1791 -0.1014
 6962TIP3    H145081   0.449   3.448   3.872  0.0916  1.4719 -0.0041
 6962TIP3    H245082   0.332   3.540   3.842 -1.1557 -0.8481 -2.6707
 6963TIP3   OH245083   2.557   5.989   5.748  0.4259 -0.3784  0.1520
 6963TIP3    H145084   2.482   6.028   5.792 -1.2120 -2.5600 -0.5518
 6963TIP3    H245085   2.576   6.048   5.676 -0.7292  0.1269  0.2400
 6964TIP3   OH245086   0.157   6.424   3.410 -0.2497 -0.3658 -0.4439
 6964TIP3    H145087   0.248   6.398   3.395 -0.0521 -0.1931  0.4182
 6964TIP3    H245088   0.108   6.384   3.338  0.1987 -2.1989  0.2074
 6965TIP3   OH245089   2.580   3.461   4.541  0.2558 -0.2183  0.1080
 6965TIP3    H145090   2.672   3.433   4.545  0.1136 -1.1670 -1.9579
 6965TIP3    H245091   2.562   3.495   4.628  2.4809 -0.2913  0.6668
 6966TIP3   OH245092   2.464   3.803   2.177  0.4263 -0.2964  0.2767
 6966TIP3    H145093   2.513   3.730   2.214 -0.2105 -0.9464 -0.1270
 6966TIP3    H245094   2.531   3.866   2.149  1.0947 -1.4666 -0.8999
 6967TIP3   OH245095   2.436   1.911   2.851  0.2427 -0.3360  0.3913
 6967TIP3    H145096   2.531   1.906   2.851  0.3089  0.6822  0.0091
 6967TIP3    H245097   2.407   1.822   2.829  1.0691 -0.9489  1.6885
 6968TIP3   OH245098   5.324   6.348   5.356  0.8936  0.0514  0.7377
 6968TIP3    H145099   5.232   6.342   5.381  1.1190 -0.2791  1.5450
 6968TIP3    H245100   5.345   6.261   5.320  0.9611  0.0240  0.8407
 6969TIP3   OH245101   0.214   2.575   2.699 -0.0164  0.1735 -0.6027
 6969TIP3    H145102   0.165   2.494   2.714 -2.9549  1.4915 -2.3350
 6969TIP3    H245103   0.256   2.562   2.614  2.9613 -0.9653  0.8861
 6970TIP3   OH245104   3.699   1.784   4.798 -0.3523 -0.1510  0.2588
 6970TIP3    H145105   3.788   1.751   4.810  0.0670  0.5062 -0.8417
 6970TIP3    H245106   3.662   1.786   4.886  0.2911 -1.6012  0.5809
 6971TIP3   OH245107   5.290   0.695   4.603  0.1305 -0.0841 -0.2536
 6971TIP3    H145108   5.380   0.727   4.609 -0.4746  1.4997  0.7559
 6971TIP3    H245109   5.240   0.769   4.570 -1.3156  0.1403  2.2158
 6972TIP3   OH245110   6.281   3.512   2.277  0.8299  0.5415  0.3173
 6972TIP3    H145111   6.293   3.417   2.285 -1.0951  0.1465 -0.8016
 6972TIP3    H245112   6.343   3.549   2.340  2.0806 -1.4176  0.3372
 6973TIP3   OH245113   0.959   1.932   4.317  0.2241 -0.3357 -0.1112
 6973TIP3    H145114   1.027   1.989   4.283 -0.8152  0.8050 -0.3545
 6973TIP3    H245115   0.913   1.986   4.382 -0.7921 -0.8755 -0.3640
 6974TIP3   OH245116   1.178   2.121   3.306  0.1898 -0.6993  0.2935
 6974TIP3    H145117   1.105   2.160   3.354  0.4174  1.9249 -1.2753
 6974TIP3    H245118   1.192   2.179   3.231  1.7358 -2.9647 -1.3474
 6975TIP3   OH245119   5.861   4.654   2.422  0.1006  0.3927  0.1803
 6975TIP3    H145120   5.903   4.569   2.423  0.8589  0.7625  0.5032
 6975TIP3    H245121   5.932   4.717   2.411 -0.5293  0.9481 -0.9261
 6976TIP3   OH245122   0.507   5.753   3.506  0.1414 -0.1765 -0.3300
 6976TIP3    H145123   0.488   5.768   3.599  1.2590  0.2733 -0.1660
 6976TIP3    H245124   0.585   5.698   3.506 -1.2078 -2.1920 -0.9979
 6977TIP3   OH245125   4.771   0.833   4.859 -0.2854 -0.6056  0.0642
 6977TIP3    H145126   4.843   0.896   4.852 -1.4846  0.8720  0.5565
 6977TIP3    H245127   4.767   0.811   4.952  1.5403 -3.2334 -0.3451
 6978TIP3   OH245128   2.341   3.874   3.166 -0.2437  0.1352  0.3360
 6978TIP3    H145129   2.329   3.951   3.222  3.4529 -0.7570  2.7471
 6978TIP3    H245130   2.433   3.877   3.139 -0.4639 -2.4391 -1.1007
 6979TIP3   OH245131   5.759   3.008   3.731 -0.0449 -0.2161  0.1352
 6979TIP3    H145132   5.770   2.997   3.825 -1.5094 -0.9267  0.2518
 6979TIP3    H245133   5.693   3.076   3.722  0.0293 -0.2037 -0.3771
 6980TIP3   OH245134   5.337   4.953   3.585 -0.6107  0.4890  0.4184
 6980TIP3    H145135   5.282   4.928   3.659 -0.0630 -1.1257  0.3242
 6980TIP3    H245136   5.357   4.871   3.541  0.3526  1.2446 -0.6202
 6981TIP3   OH245137   6.339   1.288   3.950  0.0019  0.1872 -0.1790
 6981TIP3    H145138   6.420   1.333   3.972  1.2065 -0.2823 -3.1963
 6981TIP3    H245139   6.352   1.199   3.985  0.2469  0.4550  0.4284
 6982TIP3   OH245140   6.434   3.113   3.372  0.0472 -0.3699  0.5644
 6982TIP3    H145141   6.352   3.152   3.402  0.9010  0.6590  1.6481
 6982TIP3    H245142   6.500   3.180   3.389  1.0950 -1.0937 -0.4980
 6983TIP3   OH245143   4.785   2.569   2.439  0.5104 -0.5005 -0.6390
 6983TIP3    H145144   4.796   2.658   2.405  2.1771 -0.5002 -0.2002
 6983TIP3    H245145   4.755   2.518   2.363 -1.2709  0.5731 -0.6913
 6984TIP3   OH245146   6.251   5.749   2.066  0.5627 -0.4140 -0.2025
 6984TIP3    H145147   6.252   5.703   1.982  0.2279  0.1430 -0.5132
 6984TIP3    H245148   6.184   5.704   2.117  0.1892 -0.2305 -0.5299
 6985TIP3   OH245149   6.213   3.271   3.506 -0.4906 -0.6388  0.3113
 6985TIP3    H145150   6.285   3.331   3.526 -1.9196  1.7980 -1.3971
 6985TIP3    H245151   6.169   3.258   3.591  0.8242 -0.6691  1.0138
 6986TIP3   OH245152   5.806   5.711   2.791  0.3388  0.7374  0.2922
 6986TIP3    H145153   5.781   5.709   2.698 -0.2455 -1.1621  0.4381
 6986TIP3    H245154   5.884   5.656   2.795  0.0081  0.3041  0.9954
 6987TIP3   OH245155   2.782   6.298   3.319  0.4129  0.0524 -0.1105
 6987TIP3    H145156   2.851   6.351   3.358 -1.8800  2.3936  1.0732
 6987TIP3    H245157   2.780   6.219   3.373  0.2360  1.2796  1.7923
 6988TIP3   OH245158   2.022   0.097   2.790 -0.3783 -0.2625  0.1541
 6988TIP3    H145159   1.964   0.027   2.758 -1.6313  0.8518 -0.0831
 6988TIP3    H245160   2.001   0.172   2.736  0.1408  0.6229  1.1503
 6989TIP3   OH245161   5.551   2.814   3.663 -0.2747 -0.7106  0.2465
 6989TIP3    H145162   5.613   2.868   3.712 -0.5091  0.0002 -0.2384
 6989TIP3    H245163   5.469   2.823   3.711 -0.3572 -0.4923  0.0657
 6990TIP3   OH245164   2.139   6.117   4.068 -0.2282  0.1535  0.0498
 6990TIP3    H145165   2.145   6.115   4.163  0.9505 -0.5435 -0.0103
 6990TIP3    H245166   2.053   6.080   4.048 -1.1085  1.6907  0.8674
 6991TIP3   OH245167   2.098   5.116   3.678 -0.0467  0.0536 -0.0618
 6991TIP3    H145168   2.041   5.190   3.701 -1.2838 -0.8409 -0.1041
 6991TIP3    H245169   2.182   5.155   3.656 -0.6889  1.4438 -0.1217
 6992TIP3   OH245170   4.429   3.874   4.321 -0.3665 -0.0326 -0.0050
 6992TIP3    H145171   4.474   3.888   4.238 -0.4674 -0.7607 -0.1933
 6992TIP3    H245172   4.336   3.887   4.301 -0.4461 -0.7510 -0.1471
 6993TIP3   OH245173   2.585   0.995   4.915  0.2690 -0.1624 -0.4517
 6993TIP3    H145174   2.641   1.008   4.992  0.0365 -0.3745 -0.2425
 6993TIP3    H245175   2.602   0.905   4.887 -0.8561 -0.6598  0.3566
 6994TIP3   OH245176   2.338   0.849   4.519 -0.7333 -0.9242 -0.7364
 6994TIP3    H145177   2.281   0.901   4.462 -1.5423 -1.6354 -0.5997
 6994TIP3    H245178   2.294   0.851   4.604  0.3828 -0.0009 -0.1629
 6995TIP3   OH245179   3.211   4.874   4.734  0.4229 -0.1076  0.2193
 6995TIP3    H145180   3.231   4.834   4.650  2.9925 -0.3670  0.8678
 6995TIP3    H245181   3.218   4.969   4.719  3.4409 -0.1880  0.6064
 6996TIP3   OH245182   4.654   3.122   4.269 -0.3075  0.8731 -0.0285
 6996TIP3    H145183   4.566   3.087   4.286 -0.2945  1.1887  0.7630
 6996TIP3    H245184   4.669   3.184   4.341  0.3297  1.2619 -0.4864
 6997TIP3   OH245185   2.615   3.959   3.129  0.4416  0.0376 -0.2438
 6997TIP3    H145186   2.687   3.963   3.193 -0.7270  2.5550  1.0763
 6997TIP3    H245187   2.636   4.028   3.066  0.7277 -1.3343 -1.7277
 6998TIP3   OH245188   1.905   6.842   5.239  0.0219  0.1726  0.0457
 6998TIP3    H145189   1.869   6.772   5.185  0.5945  0.6521 -0.9968
 6998TIP3    H245190   1.872   6.824   5.327 -0.9466 -0.6228 -0.4585
 6999TIP3   OH245191   4.323   2.330   3.775  0.0132  0.7204  0.7424
 6999TIP3    H145192   4.240   2.363   3.741 -0.5808 -2.0253 -0.7096
 6999TIP3    H245193   4.383   2.334   3.700  0.3787  0.0376  0.9947
 7000TIP3   OH245194   1.265   3.454   3.351 -0.4283  0.0907 -0.4197
 7000TIP3    H145195   1.290   3.466   3.442 -0.8230 -1.5135 -0.0708
 7000TIP3    H245196   1.184   3.503   3.341  0.2654  1.3002 -0.2554
 7001TIP3   OH245197   3.747   1.004   2.894 -0.6357 -0.5439 -0.3632
 7001TIP3    H145198   3.762   0.989   2.987 -0.9469  2.1219  0.2053
 7001TIP3    H245199   3.652   1.014   2.886 -0.4565  1.5507 -0.4764
 7002TIP3   OH245200   0.398   4.300   4.092 -0.1791 -0.1481 -0.2113
 7002TIP3    H145201   0.479   4.252   4.077 -0.3165 -0.0907 -1.1497
 7002TIP3    H245202   0.329   4.235   4.078 -0.3257 -0.0124 -0.1191
 7003TIP3   OH245203   1.420   2.449   3.690 -0.0225  1.1248  0.1389
 7003TIP3    H145204   1.329   2.426   3.673 -0.6283  3.5611 -0.2573
 7003TIP3    H245205   1.470   2.399   3.626 -1.0319 -0.4973  0.5773
 7004TIP3   OH245206   2.293   5.231   4.279  0.0682  0.5658  0.0401
 7004TIP3    H145207   2.241   5.311   4.286  0.6501  0.9172  0.3983
 7004TIP3    H245208   2.296   5.213   4.185  1.0872  1.7430 -0.1817
 7005TIP3   OH245209   6.710   4.398   4.225 -0.1267 -0.0595 -0.0078
 7005TIP3    H145210   6.804   4.385   4.231 -0.1009  0.6262  1.5993
 7005TIP3    H245211   6.697   4.491   4.242 -1.1133 -0.2018  0.0772
 7006TIP3   OH245212   5.884   2.952   2.124  0.2332 -0.2473  0.3536
 7006TIP3    H145213   5.963   2.912   2.159 -0.4782 -0.7277  1.4438
 7006TIP3    H245214   5.816   2.885   2.133 -0.2333  0.0137 -0.9297
 7007TIP3   OH245215   4.833   6.738   4.755 -0.2972 -0.2445 -0.2109
 7007TIP3    H145216   4.836   6.757   4.848  1.0524  0.8076 -0.4300
 7007TIP3    H245217   4.773   6.803   4.719  0.5019  0.4638 -0.2903
 7008TIP3   OH245218   2.864   3.149   2.346  0.2883 -0.1197  0.1112
 7008TIP3    H145219   2.812   3.229   2.348  1.2792  0.5708 -0.9237
 7008TIP3    H245220   2.890   3.139   2.255  0.4909 -1.4281  0.2921
 7009TIP3   OH245221   1.055   5.497   2.985  0.1299 -0.5910  0.0012
 7009TIP3    H145222   1.079   5.465   3.072  1.6310  0.2966 -0.0629
 7009TIP3    H245223   1.133   5.543   2.954 -0.9586  0.5444 -1.1333
 7010TIP3   OH245224   5.708   1.413   5.000  0.2090  0.0636 -0.5910
 7010TIP3    H145225   5.616   1.438   4.991  0.1195  0.3573  0.8140
 7010TIP3    H245226   5.733   1.379   4.914 -0.9750  0.7429 -1.2265
 7011TIP3   OH245227   0.271   5.287   3.894 -0.2829 -0.1161 -0.2568
 7011TIP3    H145228   0.363   5.265   3.907 -0.1266  0.4181 -0.4508
 7011TIP3    H245229   0.268   5.383   3.899 -0.4713  0.0476 -2.4151
 7012TIP3   OH245230   2.610   4.724   3.448  0.2354  0.0324 -0.7546
 7012TIP3    H145231   2.676   4.691   3.387 -0.6280 -0.6314 -1.3524
 7012TIP3    H245232   2.528   4.684   3.419 -0.5615  1.3645 -0.4461
 7013TIP3   OH245233   1.228   2.258   4.627  0.4057  0.0482 -0.5456
 7013TIP3    H145234   1.271   2.334   4.666 -0.5352 -0.3488  1.3738
 7013TIP3    H245235   1.228   2.192   4.696  0.4916 -1.4458 -1.9070
 7014TIP3   OH245236   4.422   1.567   4.251 -0.4412  0.7224  0.1259
 7014TIP3    H145237   4.479   1.538   4.322 -2.0276 -1.9838  0.4329
 7014TIP3    H245238   4.341   1.593   4.295 -1.9534 -2.3008 -0.6237
 7015TIP3   OH245239   0.798   5.599   3.081 -0.6769 -0.0727  0.4810
 7015TIP3    H145240   0.782   5.507   3.060 -0.9526  0.4636 -1.9823
 7015TIP3    H245241   0.891   5.611   3.061 -0.3984 -0.0164  1.7441
 7016TIP3   OH245242   0.488   0.963   3.019 -0.1492 -0.3211 -0.0415
 7016TIP3    H145243   0.429   0.995   2.950 -1.3739 -0.0547  1.0984
 7016TIP3    H245244   0.514   1.042   3.066 -1.2284 -0.7194  1.2653
 7017TIP3   OH245245   3.662   3.958   4.537 -0.2069 -0.4860  0.3109
 7017TIP3    H145246   3.588   3.924   4.487 -0.6677 -0.7759  1.1807
 7017TIP3    H245247   3.679   3.892   4.603  2.3387 -1.5814 -1.2652
 7018TIP3   OH245248   3.517   5.934   4.170  0.3735  0.4026  0.4627
 7018TIP3    H145249   3.462   5.889   4.234  0.2967 -0.3052 -0.0899
 7018TIP3    H245250   3.580   5.868   4.142  0.5965  0.7939  0.0304
 7019TIP3   OH245251   2.768   5.727   2.437  0.0366  0.1497  0.0678
 7019TIP3    H145252   2.742   5.784   2.364 -0.7559 -0.2962 -0.0031
 7019TIP3    H245253   2.690   5.675   2.456  0.1140  0.5009  1.4665
 7020TIP3   OH245254   5.796   1.109   5.392 -0.0800  0.0858  0.0382
 7020TIP3    H145255   5.839   1.167   5.329  0.1858  0.9100  0.9580
 7020TIP3    H245256   5.819   1.021   5.362  0.8708  0.4792 -0.4429
 7021TIP3   OH245257   0.367   6.848   2.100 -0.3943 -0.0536  0.7656
 7021TIP3    H145258   0.389   6.921   2.158 -0.3348  1.0338 -0.5799
 7021TIP3    H245259   0.336   6.779   2.159 -2.2430  1.7015  1.9499
 7022TIP3   OH245260   5.254   6.607   4.267 -0.0519 -0.1290  0.2662
 7022TIP3    H145261   5.333   6.589   4.217  0.3301 -0.8506  1.0863
 7022TIP3    H245262   5.212   6.680   4.222  0.5044 -0.4654 -0.8188
 7023TIP3   OH245263   1.582   0.868   3.571  0.0221  0.0773  0.5793
 7023TIP3    H145264   1.608   0.828   3.654 -0.6131  2.1121  1.8348
 7023TIP3    H245265   1.635   0.948   3.566 -0.7931  0.5758 -0.3954
 7024TIP3   OH245266   1.632   1.039   4.104  0.2033  0.4820 -0.0704
 7024TIP3    H145267   1.567   1.009   4.167 -0.5037  0.5609 -0.7496
 7024TIP3    H245268   1.652   1.129   4.129 -0.0081  0.4823  0.0933
 7025TIP3   OH245269   4.247   3.102   3.447  0.3350  0.4792  0.1675
 7025TIP3    H145270   4.342   3.104   3.443  0.4269  0.0334  1.4788
 7025TIP3    H245271   4.218   3.149   3.369  1.6399  1.3943  0.2021
 7026TIP3   OH245272   5.168   2.457   2.555  0.0905 -0.0767  0.2187
 7026TIP3    H145273   5.148   2.551   2.558  0.1334 -0.0311 -0.7577
 7026TIP3    H245274   5.147   2.431   2.466  1.8176 -0.5972 -0.0767
 7027TIP3   OH245275   6.811   6.025   2.793 -0.2561 -0.1011  0.1124
 7027TIP3    H145276   6.791   6.056   2.704 -0.1727 -1.4862 -0.4126
 7027TIP3    H245277   6.886   6.077   2.820 -1.3323  1.5397  0.0674
 7028TIP3   OH245278   3.758   3.373   2.612  0.9639  0.1385 -0.2786
 7028TIP3    H145279   3.821   3.303   2.594 -0.4867 -0.9588 -1.3627
 7028TIP3    H245280   3.700   3.337   2.678 -0.3179 -0.0790 -1.4628
 7029TIP3   OH245281   3.380   6.603   2.973 -0.5016 -0.7852  0.3871
 7029TIP3    H145282   3.434   6.672   3.011  2.5010 -1.9924 -1.3248
 7029TIP3    H245283   3.405   6.524   3.021 -2.0847 -1.1064  0.7204
 7030TIP3   OH245284   6.527   2.309   3.591  0.5950 -0.5019  0.3612
 7030TIP3    H145285   6.588   2.320   3.518  2.1778 -0.1817  1.6955
 7030TIP3    H245286   6.582   2.303   3.669 -0.9859 -1.9495  1.4568
 7031TIP3   OH245287   2.077   1.545   4.371 -0.3360  0.0603  0.3313
 7031TIP3    H145288   2.123   1.462   4.384  0.9494  0.8463  1.0010
 7031TIP3    H245289   2.059   1.577   4.459 -0.1690  0.8353  0.0968
 7032TIP3   OH245290   1.683   6.752   1.710  0.0632  0.1134  0.0735
 7032TIP3    H145291   1.760   6.794   1.747  0.3569 -1.3894  1.2881
 7032TIP3    H245292   1.691   6.764   1.616  1.1137  1.0861  0.2722
 7033TIP3   OH245293   4.318   5.076   2.767  0.4516  0.0780  0.6560
 7033TIP3    H145294   4.398   5.024   2.759 -0.1549 -0.7092 -0.8542
 7033TIP3    H245295   4.323   5.139   2.695 -0.0072  0.4291  0.9256
 7034TIP3   OH245296   3.307   3.309   4.355  0.0071  0.1690  0.5069
 7034TIP3    H145297   3.372   3.273   4.294  0.1613  1.5124 -0.1597
 7034TIP3    H245298   3.311   3.404   4.341  0.3435  0.5661  2.9152
 7035TIP3   OH245299   3.717   5.004   4.313  0.0367  0.0079 -0.0030
 7035TIP3    H145300   3.622   4.997   4.309  0.0434  0.0603 -0.2596
 7035TIP3    H245301   3.748   4.947   4.242  0.2276 -0.8066  0.7086
 7036TIP3   OH245302   4.674   3.367   3.067 -0.2870 -0.8150 -0.4284
 7036TIP3    H145303   4.661   3.324   2.983 -0.2430  0.5943 -1.1913
 7036TIP3    H245304   4.718   3.449   3.046 -1.4348  0.1837  0.8216
 7037TIP3   OH245305   2.378   4.862   4.439  0.5360  0.3991  0.3990
 7037TIP3    H145306   2.446   4.870   4.373 -0.4193  1.8106 -0.4702
 7037TIP3    H245307   2.320   4.792   4.407  1.6038 -0.9257  1.2276
 7038TIP3   OH245308   4.064   3.582  11.883 -0.6792 -0.2073  0.6742
 7038TIP3    H145309   3.983   3.635  11.879 -1.1240 -0.8817  0.6172
 7038TIP3    H245310   4.036   3.494  11.858  0.2130 -0.3073 -0.0291
 7039TIP3   OH245311   6.682   6.169   5.399 -0.0895 -0.0516 -0.5097
 7039TIP3    H145312   6.743   6.214   5.340  0.3132 -0.2223 -0.2296
 7039TIP3    H245313   6.603   6.156   5.347 -0.4474  1.5280 -0.4244
 7040TIP3   OH245314   6.678   5.198   4.321 -0.1717 -0.3913 -0.4442
 7040TIP3    H145315   6.703   5.186   4.229 -2.3074 -0.2410 -1.0971
 7040TIP3    H245316   6.618   5.125   4.339 -0.4883  0.0975  0.5614
 7041TIP3   OH245317   2.771   4.504   4.105  0.3285 -0.0654 -0.2266
 7041TIP3    H145318   2.803   4.577   4.052 -0.3168  0.6407  0.3409
 7041TIP3    H245319   2.847   4.446   4.114  1.6140  1.7179  1.3725
 7042TIP3   OH245320   0.699   0.663   4.751 -0.3811  0.0775 -0.1358
 7042TIP3    H145321   0.755   0.587   4.766  0.8268  0.8154 -0.7963
 7042TIP3    H245322   0.722   0.725   4.821 -0.8535  0.1377 -0.0236
 7043TIP3   OH245323   3.327   5.282   3.848  0.2208  0.2376  0.1635
 7043TIP3    H145324   3.251   5.224   3.839 -0.5573  0.4964  3.6403
 7043TIP3    H245325   3.398   5.235   3.804 -0.7632 -2.6170  1.3809
 7044TIP3   OH245326   2.325   4.062   2.232  0.0542  0.7636 -0.0962
 7044TIP3    H145327   2.394   4.096   2.289  1.6329 -0.2506 -1.3186
 7044TIP3    H245328   2.352   3.973   2.212 -2.2967 -0.1160  0.3913
 7045TIP3   OH245329   3.010   6.653   4.924 -0.5551 -0.3132  0.4311
 7045TIP3    H145330   2.963   6.736   4.929 -0.1502 -0.0406 -0.1803
 7045TIP3    H245331   3.006   6.628   4.832  1.1533  0.1254  0.1949
 7046TIP3   OH245332   4.035   5.160   5.437 -0.5407 -0.1263  0.1341
 7046TIP3    H145333   4.111   5.166   5.379 -2.0760  1.2462 -1.8682
 7046TIP3    H245334   4.068   5.117   5.516  2.0427 -0.5207 -1.0755
 7047TIP3   OH245335   3.687   5.567   3.778  0.3198  0.8925 -0.2509
 7047TIP3    H145336   3.657   5.515   3.704 -0.4298  0.6688  0.2028
 7047TIP3    H245337   3.607   5.594   3.823  0.7657 -1.4935  2.2222
 7048TIP3   OH245338   2.641   1.549   3.642  0.2805 -0.5457  0.2170
 7048TIP3    H145339   2.563   1.523   3.593  0.9512 -1.5833 -0.3280
 7048TIP3    H245340   2.608   1.567   3.730 -0.4001 -2.1982  0.3408
 7049TIP3   OH245341   3.281   6.058   2.168 -0.0764  0.3955 -0.1077
 7049TIP3    H145342   3.287   6.153   2.158  0.7778  0.3546 -0.0623
 7049TIP3    H245343   3.296   6.043   2.261 -0.2547  0.2200 -0.1074
 7050TIP3   OH245344   3.349   0.777   4.350 -0.1718  0.6781 -0.1196
 7050TIP3    H145345   3.286   0.705   4.351 -0.9407  1.2521  3.0654
 7050TIP3    H245346   3.420   0.746   4.294 -0.7670 -2.3126  0.6070
 7051TIP3   OH245347   3.464   2.355   2.004  0.1099  0.2208 -0.2527
 7051TIP3    H145348   3.486   2.430   1.949  1.2964  0.6371  0.7431
 7051TIP3    H245349   3.371   2.366   2.023 -0.1904  0.3511 -1.7105
 7052TIP3   OH245350   0.375   6.305   1.945  0.1129  0.1945  0.0321
 7052TIP3    H145351   0.297   6.333   1.992  0.4468  0.5896  0.3690
 7052TIP3    H245352   0.343   6.278   1.859 -0.3465  0.7571  0.0152
 7053TIP3   OH245353   3.666   5.435   2.732 -0.5564 -0.5016  0.0577
 7053TIP3    H145354   3.714   5.477   2.804 -0.5020 -0.3239 -0.0819
 7053TIP3    H245355   3.649   5.346   2.764  1.6782 -1.2785 -0.6994
 7054TIP3   OH245356   5.814   5.638   4.742  0.9111  0.5809  0.2266
 7054TIP3    H145357   5.730   5.631   4.697 -0.3384  0.2003  2.4524
 7054TIP3    H245358   5.815   5.727   4.778  1.5728  0.6575  0.0361
 7055TIP3   OH245359   2.797   6.399   2.786 -0.2955 -0.0502  0.7506
 7055TIP3    H145360   2.840   6.329   2.835  0.8192  0.1297  0.0463
 7055TIP3    H245361   2.830   6.391   2.697 -0.9742  0.7182  0.4149
 7056TIP3   OH245362   5.429   0.485   4.270 -0.0210 -0.0523 -0.6196
 7056TIP3    H145363   5.367   0.504   4.340  1.6184  0.5341  0.7702
 7056TIP3    H245364   5.439   0.390   4.271 -0.3190 -0.0810 -0.3202
 7057TIP3   OH245365   0.387   0.679   2.549 -0.0335 -0.0187  0.1058
 7057TIP3    H145366   0.471   0.637   2.530  0.3749 -0.2070  2.0851
 7057TIP3    H245367   0.333   0.662   2.472  2.0244  0.8968 -1.6318
 7058TIP3   OH245368   3.130   0.888   4.846 -0.1029 -0.3768  0.4075
 7058TIP3    H145369   3.179   0.917   4.769 -0.6025  1.0768  0.6104
 7058TIP3    H245370   3.052   0.944   4.848 -0.7692 -1.3010  1.2145
 7059TIP3   OH245371   0.499   2.228   4.411 -0.3139 -0.5426 -0.2334
 7059TIP3    H145372   0.412   2.267   4.408  0.0382  0.2165 -1.8933
 7059TIP3    H245373   0.504   2.185   4.497 -1.8703  0.3935  0.3569
 7060TIP3   OH245374   1.577   5.404   5.020  0.2627 -0.4984 -0.1771
 7060TIP3    H145375   1.636   5.330   5.035  1.1395  0.4522  1.2762
 7060TIP3    H245376   1.623   5.479   5.057  0.2777  1.1885 -3.3352
 7061TIP3   OH245377   5.850   0.834   4.681 -0.4637  0.1205  0.3335
 7061TIP3    H145378   5.910   0.902   4.710  0.6980 -0.3784 -0.7670
 7061TIP3    H245379   5.900   0.752   4.690 -1.5882 -0.5279  0.9907
 7062TIP3   OH245380   5.832   0.509   4.968 -0.4928  0.2108 -0.3830
 7062TIP3    H145381   5.870   0.434   5.014 -1.8814 -0.7754 -0.7993
 7062TIP3    H245382   5.867   0.585   5.014  1.0116 -0.6719  0.0035
 7063TIP3   OH245383   2.409   2.623   4.081 -0.1756  0.0323  0.2314
 7063TIP3    H145384   2.335   2.566   4.061 -1.3386  1.4568  0.2834
 7063TIP3    H245385   2.468   2.569   4.133 -1.7719 -0.8010  1.2650
 7064TIP3   OH245386   0.078   0.849   2.455 -0.1613 -0.9896  0.6316
 7064TIP3    H145387   0.146   0.794   2.415  0.8562  1.9711 -2.0688
 7064TIP3    H245388   0.013   0.861   2.386  0.7627  2.8789  0.2141
 7065TIP3   OH245389   3.808   0.508   2.785 -0.5835 -0.2309 -0.1162
 7065TIP3    H145390   3.734   0.560   2.753 -0.2726  1.2093  1.3475
 7065TIP3    H245391   3.825   0.445   2.716 -0.2293  2.3666 -2.5657
 7066TIP3   OH245392   4.279   5.465   3.402  0.0734  0.5217  0.0922
 7066TIP3    H145393   4.304   5.479   3.493  1.9762 -0.9976 -0.1233
 7066TIP3    H245394   4.314   5.378   3.380  1.2942  1.5507 -2.5696
 7067TIP3   OH245395   0.906   2.278   2.884  0.0554 -0.3499  0.2928
 7067TIP3    H145396   0.997   2.282   2.913 -0.5333  0.6725  2.2020
 7067TIP3    H245397   0.877   2.190   2.909  0.6369 -0.8486 -0.7611
 7068TIP3   OH245398   4.206   2.077   3.616 -1.0692  0.0944  0.2160
 7068TIP3    H145399   4.195   2.168   3.644  1.0984 -0.0457  1.8150
 7068TIP3    H245400   4.164   2.025   3.685 -0.8963 -0.1341  0.1519
 7069TIP3   OH245401   2.216   5.418   3.467 -0.4371  0.0672 -0.5504
 7069TIP3    H145402   2.240   5.498   3.515 -2.7030 -1.0056  2.6992
 7069TIP3    H245403   2.276   5.416   3.392  2.2930  2.7777  1.3335
 7070TIP3   OH245404   0.163   3.598   2.704 -0.0640 -0.1590  0.3125
 7070TIP3    H145405   0.091   3.535   2.713  0.8938 -1.5337 -1.1086
 7070TIP3    H245406   0.134   3.657   2.634  0.7993 -1.7573 -1.5093
 7071TIP3   OH245407   1.707   0.481   4.047  0.1985  0.3613 -0.2276
 7071TIP3    H145408   1.727   0.387   4.048  1.9842  0.7051  0.3843
 7071TIP3    H245409   1.620   0.486   4.008 -0.6020 -1.6574  1.1011
 7072TIP3   OH245410   3.870   1.710   3.589 -0.1831 -0.1484  0.2066
 7072TIP3    H145411   3.804   1.678   3.650 -0.4235 -0.5727 -0.2680
 7072TIP3    H245412   3.874   1.804   3.605 -0.1179 -0.2735  0.9908
 7073TIP3   OH245413   5.787   1.329   4.745 -0.5296 -0.3622 -0.2051
 7073TIP3    H145414   5.827   1.291   4.667  1.5921  2.3551 -0.5778
 7073TIP3    H245415   5.718   1.386   4.711  2.4100  3.3107 -0.5835
 7074TIP3   OH245416   0.444   1.414   5.287  0.4246 -0.0610  0.0081
 7074TIP3    H145417   0.453   1.352   5.214 -0.8542 -0.9818  0.5909
 7074TIP3    H245418   0.350   1.423   5.299  0.5942  1.5263  0.3721
 7075TIP3   OH245419   5.671   2.542   3.911 -0.0791 -0.3232  0.1352
 7075TIP3    H145420   5.704   2.453   3.923 -0.5123 -0.4430  0.4382
 7075TIP3    H245421   5.695   2.564   3.820 -0.5703 -1.0070 -0.1706
 7076TIP3   OH245422   0.036   5.716   3.642 -0.4134  0.5043 -0.6306
 7076TIP3    H145423   0.100   5.668   3.590  0.0446 -0.8465  1.0787
 7076TIP3    H245424   0.074   5.803   3.654  0.6171  0.0504 -0.5294
 7077TIP3   OH245425   4.615   5.679   5.885  0.2204 -0.3050  0.0110
 7077TIP3    H145426   4.705   5.649   5.903  0.2969 -0.5165 -0.6986
 7077TIP3    H245427   4.627   5.767   5.848  0.0933 -0.0883  0.4729
 7078TIP3   OH245428   6.491   5.973   2.789  0.4122  0.5504  0.2369
 7078TIP3    H145429   6.520   5.891   2.748 -1.5578 -0.0435 -0.0766
 7078TIP3    H245430   6.554   5.988   2.859  1.1353 -0.9335 -0.0504
 7079TIP3   OH245431   2.199   6.687   2.474 -0.1408 -0.9981 -0.1602
 7079TIP3    H145432   2.236   6.601   2.453  2.3809  0.3174 -1.5420
 7079TIP3    H245433   2.164   6.719   2.390  1.1886  0.2764 -0.2787
 7080TIP3   OH245434   5.114   3.577   4.223 -0.1421  0.4914 -0.0836
 7080TIP3    H145435   5.075   3.532   4.298 -0.1549 -0.4800 -0.6593
 7080TIP3    H245436   5.116   3.512   4.153  3.2920  0.1903  0.1214
 7081TIP3   OH245437   5.173   6.067   3.020 -0.1431 -0.0019  0.3122
 7081TIP3    H145438   5.147   6.145   2.971 -2.5133 -0.1127  1.2526
 7081TIP3    H245439   5.136   6.080   3.107  0.6390 -1.5512  0.9126
 7082TIP3   OH245440   0.870   6.365   4.802 -0.2471 -0.2597 -0.3533
 7082TIP3    H145441   0.902   6.419   4.874 -0.6986 -0.1509 -0.2275
 7082TIP3    H245442   0.847   6.427   4.733 -0.2919 -0.3246 -0.3975
 7083TIP3   OH245443   0.019   3.990   3.526 -0.4792 -0.1237 -0.4334
 7083TIP3    H145444  -0.039   4.047   3.576  0.6838  1.2450 -0.6005
 7083TIP3    H245445   0.070   4.049   3.472 -0.5087 -1.4717 -1.9962
 7084TIP3   OH245446   6.654   4.952   2.511  0.1701  0.4657  0.0405
 7084TIP3    H145447   6.717   4.973   2.579  1.1092  0.6179 -0.8508
 7084TIP3    H245448   6.646   5.033   2.460  2.1198 -0.5517 -2.0706
 7085TIP3   OH245449   1.031   2.281   4.432 -0.3153 -0.0597 -0.2444
 7085TIP3    H145450   1.102   2.284   4.496 -1.9362  1.3478  1.6042
 7085TIP3    H245451   0.962   2.230   4.474 -0.0804 -2.4276 -2.4799
 7086TIP3   OH245452   5.289   2.738   3.756  0.7407 -0.3190 -0.0410
 7086TIP3    H145453   5.241   2.769   3.679  0.4032 -3.2113 -1.1449
 7086TIP3    H245454   5.224   2.736   3.826  0.2676 -0.4436 -0.4772
 7087TIP3   OH245455   1.311   5.711   4.295  0.4447  0.0788  0.6016
 7087TIP3    H145456   1.235   5.665   4.331  0.5023 -0.1629  0.4154
 7087TIP3    H245457   1.384   5.686   4.352  0.3387  0.5124  0.9346
 7088TIP3   OH245458   0.921   3.120   4.916  0.6164  0.1661 -0.0202
 7088TIP3    H145459   0.880   3.094   4.833 -0.4555 -0.3753  0.6635
 7088TIP3    H245460   0.995   3.061   4.926 -0.3046 -0.9796  0.2706
 7089TIP3   OH245461   5.876   0.263   3.963 -0.3981  0.1152 -0.3179
 7089TIP3    H145462   5.926   0.325   4.016  0.3376 -1.5164  0.9933
 7089TIP3    H245463   5.785   0.291   3.972 -0.1271  0.7638  0.5859
 7090TIP3   OH245464   0.651   4.586   3.988 -0.1295  0.2262 -0.3200
 7090TIP3    H145465   0.614   4.547   3.909  1.6147  0.9271 -1.5446
 7090TIP3    H245466   0.576   4.628   4.031 -1.1447 -0.3143 -1.4831
 7091TIP3   OH245467   0.410   0.838   4.514  0.4832  0.1892 -0.1525
 7091TIP3    H145468   0.399   0.842   4.419 -0.2048 -2.5052 -0.2585
 7091TIP3    H245469   0.321   0.841   4.549  0.5670 -1.2894  0.2304
 7092TIP3   OH245470   0.067   0.795   3.023  0.0498  0.5602 -0.2490
 7092TIP3    H145471   0.043   0.840   2.942  1.0930 -0.9117 -1.4448
 7092TIP3    H245472   0.076   0.703   2.997 -2.1562 -0.4275  2.1088
 7093TIP3   OH245473   6.312   1.798   2.882  0.1382 -0.0588 -0.4307
 7093TIP3    H145474   6.220   1.775   2.874 -0.0680  0.7302 -0.4556
 7093TIP3    H245475   6.334   1.779   2.973  0.0457 -0.5796 -0.5167
 7094TIP3   OH245476   1.080   5.542   4.158  0.4798  0.0513  0.4870
 7094TIP3    H145477   1.059   5.509   4.245  0.5052 -1.9828 -0.2220
 7094TIP3    H245478   0.999   5.586   4.129  0.8518  1.8015  1.9395
 7095TIP3   OH245479   1.904   5.684   4.873 -0.0288  0.5153  0.6013
 7095TIP3    H145480   1.865   5.693   4.960  0.1127  1.0362  0.6132
 7095TIP3    H245481   1.998   5.694   4.887  0.0919 -0.4752  0.5354
 7096TIP3   OH245482   1.218   4.378   3.278  0.7795  0.1058  0.5120
 7096TIP3    H145483   1.291   4.316   3.277  0.9450  0.3034 -0.1150
 7096TIP3    H245484   1.221   4.420   3.192  0.3371  0.5955  0.7317
 7097TIP3   OH245485   1.142   0.630   4.180  0.2048  0.0871 -0.0618
 7097TIP3    H145486   1.050   0.611   4.163  0.3971 -0.4274 -0.5896
 7097TIP3    H245487   1.164   0.579   4.258 -0.4190  1.6514  1.1941
 7098TIP3   OH245488   1.613   1.831   4.020  0.2787  0.1422 -0.0357
 7098TIP3    H145489   1.519   1.851   4.017 -0.0116 -1.2096 -0.7791
 7098TIP3    H245490   1.656   1.916   4.013 -0.8868  0.8108  0.6343
 7099TIP3   OH245491   1.260   4.038   3.133  0.2488  0.4551  0.3633
 7099TIP3    H145492   1.325   3.973   3.161 -1.4706 -0.0565  3.6239
 7099TIP3    H245493   1.294   4.122   3.167  0.5462  0.6532 -0.4044
 7100TIP3   OH245494   3.795   5.223   5.218 -0.4360  0.0755 -0.1840
 7100TIP3    H145495   3.882   5.230   5.179 -0.7720 -0.9722 -1.1886
 7100TIP3    H245496   3.734   5.239   5.145 -1.0747 -0.1012  0.3008
 7101TIP3   OH245497   0.034   1.000   5.055 -0.0868  0.5821  0.1616
 7101TIP3    H145498  -0.004   0.941   5.120 -1.6891  0.2286 -1.0496
 7101TIP3    H245499   0.110   1.039   5.100 -0.0661 -0.9976  1.6019
 7102TIP3   OH245500   5.867   4.926   3.408  0.1027 -0.3713  0.5986
 7102TIP3    H145501   5.950   4.973   3.414 -0.3258  0.5492 -0.4327
 7102TIP3    H245502   5.873   4.877   3.327 -0.4855 -0.0497  0.3563
 7103TIP3   OH245503   1.716   2.248   4.189 -0.2092 -0.1694  0.2825
 7103TIP3    H145504   1.733   2.342   4.192  0.6476 -0.3366  1.3549
 7103TIP3    H245505   1.631   2.240   4.146 -1.4702  1.2631  2.3366
 7104TIP3   OH245506   6.544   3.144   3.102  0.0572 -0.5014 -0.1187
 7104TIP3    H145507   6.561   3.235   3.124 -1.9062 -0.2692  0.5655
 7104TIP3    H245508   6.489   3.112   3.173  1.3790 -2.4846  0.1004
 7105TIP3   OH245509   0.355   4.482   2.456 -0.0833  0.0626  0.2260
 7105TIP3    H145510   0.294   4.408   2.461 -0.4421  0.3668  0.4023
 7105TIP3    H245511   0.335   4.535   2.533  0.8269 -0.1495  0.6202
 7106TIP3   OH245512   6.151   5.139   4.548  0.1276 -0.3172 -0.0545
 7106TIP3    H145513   6.159   5.050   4.583 -1.6986 -0.4347  0.1511
 7106TIP3    H245514   6.170   5.129   4.454 -1.6076 -1.2710 -0.3631
 7107TIP3   OH245515   1.957   2.137   4.275  0.0973 -0.1031 -0.0469
 7107TIP3    H145516   1.879   2.174   4.235 -0.0713 -0.8804 -0.4532
 7107TIP3    H245517   1.983   2.066   4.216  0.7728 -0.2251  0.3850
 7108TIP3   OH245518   5.650   6.429   2.865 -0.0633  0.4811  0.1955
 7108TIP3    H145519   5.702   6.360   2.823  0.4099 -0.9468  2.8263
 7108TIP3    H245520   5.576   6.382   2.904  0.8257  1.1548  2.9661
 7109TIP3   OH245521   5.474   6.073   2.155 -0.0182  0.2397  0.4604
 7109TIP3    H145522   5.407   6.009   2.176 -1.5865  1.8453  0.6413
 7109TIP3    H245523   5.545   6.022   2.115 -3.4752 -1.1671 -4.9603
 7110TIP3   OH245524   0.815   5.591   3.975  0.1065 -0.0680  0.5097
 7110TIP3    H145525   0.738   5.572   3.922  1.6679  2.0687 -2.9680
 7110TIP3    H245526   0.806   5.684   3.999  1.1136 -0.0382  0.8548
 7111TIP3   OH245527   3.727   4.386   4.688  0.1695 -0.4074  0.1708
 7111TIP3    H145528   3.772   4.418   4.767  1.4145 -0.7219 -0.3759
 7111TIP3    H245529   3.689   4.465   4.649  1.6116  0.1665 -0.1613
 7112TIP3   OH245530   1.088   4.119   2.822  0.5691  0.0313 -0.8959
 7112TIP3    H145531   1.170   4.117   2.871  0.0502  1.4167  0.0821
 7112TIP3    H245532   1.095   4.197   2.767  0.8974 -1.1730 -2.6585
 7113TIP3   OH245533   3.229   6.449   5.651  0.2296  0.0520 -0.6778
 7113TIP3    H145534   3.242   6.444   5.556 -0.6969 -0.3989 -0.7945
 7113TIP3    H245535   3.206   6.360   5.677  0.0878  0.2538 -0.0978
 7114TIP3   OH245536   1.457   6.779   2.907  0.0394  0.0456  0.1387
 7114TIP3    H145537   1.444   6.873   2.898  1.0422  0.2364  0.5455
 7114TIP3    H245538   1.551   6.769   2.920 -0.2335 -0.8941  1.6267
 7115TIP3   OH245539   3.110   2.035   4.228  0.2620 -0.4377 -0.6020
 7115TIP3    H145540   3.177   1.988   4.179  1.2927  1.1851 -0.8217
 7115TIP3    H245541   3.137   2.029   4.319  1.4770  1.2812 -0.7968
 7116TIP3   OH245542   3.478   4.810   2.844 -0.2814  0.2332 -0.6864
 7116TIP3    H145543   3.523   4.767   2.772 -0.8875  1.7514 -2.0145
 7116TIP3    H245544   3.390   4.774   2.842 -0.2928  0.2612 -0.6864
 7117TIP3   OH245545   2.460   0.358   3.743  0.4364 -0.1442 -0.1664
 7117TIP3    H145546   2.401   0.369   3.668  0.9748 -2.7040 -1.0727
 7117TIP3    H245547   2.401   0.352   3.818 -0.3342 -0.5561 -0.7852
 7118TIP3   OH245548   2.948   6.768   4.565  0.7328 -0.4024  0.3808
 7118TIP3    H145549   2.868   6.736   4.606  0.2114 -1.2472 -1.2122
 7118TIP3    H245550   3.010   6.695   4.574  1.1130 -0.0176  0.9793
 7119TIP3   OH245551   0.145   2.320   3.153  0.4290  0.0254  0.0883
 7119TIP3    H145552   0.217   2.297   3.095  1.8505 -0.1533  1.8288
 7119TIP3    H245553   0.110   2.402   3.118  1.4301  0.0823 -0.8226
 7120TIP3   OH245554   4.644   3.287   4.485  0.6071 -0.2603  0.0568
 7120TIP3    H145555   4.598   3.216   4.529 -1.9431  1.2792  0.1054
 7120TIP3    H245556   4.656   3.354   4.553  1.8524 -0.1088 -0.2774
 7121TIP3   OH245557   0.089   5.242   3.689 -0.2486 -0.3682  0.0303
 7121TIP3    H145558   0.146   5.246   3.766  0.5873  0.1399 -0.5864
 7121TIP3    H245559   0.027   5.313   3.701 -1.9110 -1.9891  1.5498
 7122TIP3   OH245560   0.464   0.578   4.984 -0.4774 -0.3255  0.5548
 7122TIP3    H145561   0.443   0.660   5.030 -0.2982  0.2819 -0.4255
 7122TIP3    H245562   0.430   0.510   5.042 -2.5642  0.5104  0.4261
 7123TIP3   OH245563   6.672   3.936   2.630  0.1399 -0.1063  0.2122
 7123TIP3    H145564   6.634   3.849   2.641  1.3321 -0.8288 -1.0256
 7123TIP3    H245565   6.662   3.956   2.537 -0.4621  1.2794  0.5404
 7124TIP3   OH245566   2.101   3.216   5.160 -0.1520  0.0888 -0.3706
 7124TIP3    H145567   2.150   3.266   5.226 -0.4232 -2.0158  1.5499
 7124TIP3    H245568   2.010   3.217   5.192 -0.5851  0.2741 -1.5425
 7125TIP3   OH245569   4.360   6.457   3.068 -0.1024 -0.1310  0.1379
 7125TIP3    H145570   4.404   6.415   3.141 -0.6542 -0.7078  0.1497
 7125TIP3    H245571   4.386   6.406   2.991  0.0578  0.1486  0.0055
 7126TIP3   OH245572   1.523   2.487   2.349  0.0135  0.1657  0.4569
 7126TIP3    H145573   1.482   2.504   2.434  0.4695  2.4850  0.2612
 7126TIP3    H245574   1.513   2.568   2.301 -2.2183 -1.7111 -2.6152
 7127TIP3   OH245575   5.347   0.404   2.625  0.8009 -0.3448  0.3026
 7127TIP3    H145576   5.259   0.421   2.593  0.7748 -0.7002  0.1828
 7127TIP3    H245577   5.403   0.466   2.576  0.5818  0.0956  0.6073
 7128TIP3   OH245578   2.308   3.166   3.904  0.1258 -0.0495 -0.0406
 7128TIP3    H145579   2.312   3.164   3.808  0.0877  2.4937 -0.1506
 7128TIP3    H245580   2.399   3.177   3.931  0.1015 -0.4552  0.2093
 7129TIP3   OH245581   0.691   4.510   2.092  0.2326  0.6396 -0.3162
 7129TIP3    H145582   0.787   4.519   2.095  0.2525  0.2758  0.2349
 7129TIP3    H245583   0.665   4.503   2.184 -0.0163 -2.2630 -0.5193
 7130TIP3   OH245584   0.674   3.186   3.931 -0.2207 -0.1667 -0.1330
 7130TIP3    H145585   0.706   3.102   3.899  1.0229 -0.1299  0.9447
 7130TIP3    H245586   0.670   3.242   3.853 -0.8847 -1.1477 -0.8221
 7131TIP3   OH245587   2.334   1.858   4.931  0.0319  0.0783 -0.0143
 7131TIP3    H145588   2.385   1.926   4.975 -0.2616  0.6198 -0.4970
 7131TIP3    H245589   2.244   1.874   4.957  0.0596 -0.7049  0.6090
 7132TIP3   OH245590   3.293   1.339   2.583  0.4726  0.5237  0.1027
 7132TIP3    H145591   3.341   1.258   2.569  0.4098  0.5505 -0.2794
 7132TIP3    H245592   3.323   1.398   2.514  2.4201  1.7287  1.8891
 7133TIP3   OH245593   3.718   2.555   5.039  0.4478 -0.1861  0.3525
 7133TIP3    H145594   3.722   2.634   5.093  0.7118 -0.4071  0.6639
 7133TIP3    H245595   3.629   2.553   5.005  0.7054  0.7477 -0.4196
 7134TIP3   OH245596   0.725   1.298   3.920  0.0964  0.7449 -0.2211
 7134TIP3    H145597   0.696   1.209   3.943  0.7663  0.4171 -0.6156
 7134TIP3    H245598   0.666   1.355   3.969  0.3606  0.0739  0.9182
 7135TIP3   OH245599   2.970   4.635   2.529  0.8817 -0.6751  0.2999
 7135TIP3    H145600   2.917   4.624   2.608  0.8927  0.5727  0.4871
 7135TIP3    H245601   3.010   4.548   2.516  2.2667 -0.4911  2.6546
 7136TIP3   OH245602   1.321   4.352   3.822 -0.3244  0.7001 -0.2527
 7136TIP3    H145603   1.354   4.270   3.784 -1.0205  0.1905  0.2232
 7136TIP3    H245604   1.393   4.414   3.810  0.7554 -0.3320  0.6019
 7137TIP3   OH245605   4.020   5.561   3.010 -0.6754  0.2235  0.2632
 7137TIP3    H145606   4.077   5.589   3.081 -0.1622 -0.3770  0.0913
 7137TIP3    H245607   4.064   5.486   2.971 -0.9438  0.5448 -0.6927
 7138TIP3   OH245608   4.381   0.707   5.112  0.0557  0.5366  0.2900
 7138TIP3    H145609   4.312   0.748   5.165  1.9226  1.1890  2.3659
 7138TIP3    H245610   4.451   0.690   5.174  1.2296 -1.4632 -1.4658
 7139TIP3   OH245611   6.694   2.878   3.184  0.2278 -0.1653  0.0142
 7139TIP3    H145612   6.771   2.914   3.226 -0.5192 -0.8666  2.0920
 7139TIP3    H245613   6.679   2.935   3.108  2.6503  0.0625 -0.3741
 7140TIP3   OH245614   0.428   5.067   1.961 -0.0105  0.2214 -0.0210
 7140TIP3    H145615   0.393   4.998   2.017 -1.7742  1.0815  0.0439
 7140TIP3    H245616   0.498   5.107   2.012 -1.2865  0.7005  1.4556
 7141TIP3   OH245617   1.534   5.209   4.399  0.0173 -0.2029  0.0367
 7141TIP3    H145618   1.623   5.175   4.410  1.0252  2.1985 -0.1116
 7141TIP3    H245619   1.537   5.258   4.317 -1.7792 -0.9367 -0.5221
 7142TIP3   OH245620   4.017   6.520   1.875 -0.5840  0.1120  0.3956
 7142TIP3    H145621   4.075   6.444   1.865 -1.2901 -0.5922  1.4893
 7142TIP3    H245622   4.034   6.574   1.798  0.6555 -0.6693  0.1056
 7143TIP3   OH245623   4.201   4.380   4.410 -0.4291 -0.1819 -0.0962
 7143TIP3    H145624   4.159   4.321   4.473 -1.5978  0.9242  0.1897
 7143TIP3    H245625   4.284   4.338   4.391 -0.8217 -1.4500  0.8244
 7144TIP3   OH245626   3.234   1.734   4.320  0.0723 -0.1558 -0.7612
 7144TIP3    H145627   3.193   1.787   4.389  0.4812 -1.2800  0.3742
 7144TIP3    H245628   3.163   1.719   4.257 -0.5161  0.2571 -0.2158
 7145TIP3   OH245629   6.252   1.244   2.647  0.2205 -0.5997  0.2230
 7145TIP3    H145630   6.332   1.246   2.594  0.7273  0.5787  1.0037
 7145TIP3    H245631   6.192   1.303   2.603  0.9375  1.0479  1.3642
 7146TIP3   OH245632   4.356   3.421   2.442 -0.7016  0.0682 -0.2103
 7146TIP3    H145633   4.375   3.482   2.514  0.4704 -1.2341  0.6451
 7146TIP3    H245634   4.393   3.464   2.365 -1.8057  1.4063 -0.0361
 7147TIP3   OH245635   5.581   5.553   3.195  0.0427 -0.3776  0.0996
 7147TIP3    H145636   5.622   5.593   3.272 -0.2737 -0.5816  0.3774
 7147TIP3    H245637   5.544   5.626   3.147  1.3869 -0.0962 -0.5659
 7148TIP3   OH245638   2.567   4.465   5.183 -0.3055  0.0573 -0.5337
 7148TIP3    H145639   2.630   4.393   5.175 -1.2437 -0.6592 -1.9402
 7148TIP3    H245640   2.614   4.532   5.232  0.5833 -1.5097  0.8720
 7149TIP3   OH245641   1.196   3.895   4.216 -0.2562 -0.0446 -0.1955
 7149TIP3    H145642   1.157   3.981   4.209  1.0933  0.6831  0.6189
 7149TIP3    H245643   1.131   3.842   4.262 -0.7824  0.7701  0.0080
 7150TIP3   OH245644   4.339   2.346   3.294 -0.5174  0.2189 -0.6315
 7150TIP3    H145645   4.416   2.314   3.246 -1.0643  1.5630 -2.5385
 7150TIP3    H245646   4.266   2.294   3.261 -0.8007  0.6925 -0.7651
 7151TIP3   OH245647   1.878   6.326   1.953  0.3408  0.4677 -0.0651
 7151TIP3    H145648   1.887   6.236   1.922  0.8647  0.1051  1.1205
 7151TIP3    H245649   1.810   6.363   1.896 -0.3565 -0.8630 -0.1549
 7152TIP3   OH245650   4.259   0.560   5.458 -0.7917 -0.8601  0.6949
 7152TIP3    H145651   4.239   0.618   5.385 -1.5142 -0.0343  1.5294
 7152TIP3    H245652   4.308   0.614   5.520 -2.8818 -0.6067  2.2336
 7153TIP3   OH245653   4.672   3.008   2.591 -0.0838  0.5059  0.2066
 7153TIP3    H145654   4.702   3.075   2.653  0.5659  0.4004  0.0054
 7153TIP3    H245655   4.689   3.047   2.505 -0.1686  0.2838  0.0905
 7154TIP3   OH245656   1.666   5.827   4.459 -0.5211 -0.4953 -0.0999
 7154TIP3    H145657   1.754   5.845   4.492 -0.5431 -0.8171  0.1444
 7154TIP3    H245658   1.655   5.733   4.472 -0.0420 -0.8952 -2.2374
 7155TIP3   OH245659   0.915   3.533   2.545 -0.2432  0.3072 -0.2650
 7155TIP3    H145660   0.945   3.475   2.614 -0.4294  0.1925 -0.2778
 7155TIP3    H245661   0.825   3.504   2.527 -0.4479  0.8010 -0.0550
 7156TIP3   OH245662   6.254   5.700   3.551  0.0820  0.9812  0.1873
 7156TIP3    H145663   6.225   5.618   3.510  2.0770  1.4421 -2.4284
 7156TIP3    H245664   6.173   5.739   3.586 -0.7667 -2.6953  2.9772
 7157TIP3   OH245665   1.434   0.228   4.079 -0.3711  0.1233  0.2837
 7157TIP3    H145666   1.526   0.237   4.104 -0.5829 -0.2519  1.2253
 7157TIP3    H245667   1.437   0.198   3.988  0.4066  2.3995 -0.5056
 7158TIP3   OH245668   2.951   3.653   3.522 -0.0922 -0.1241 -0.1755
 7158TIP3    H145669   2.943   3.710   3.445  2.7799 -1.5353 -1.7018
 7158TIP3    H245670   2.896   3.578   3.502  0.6188 -0.4712 -0.8860
 7159TIP3   OH245671   1.596   2.587   3.499 -0.0308  0.4346  0.0743
 7159TIP3    H145672   1.532   2.601   3.429  1.7948  0.2779 -1.7439
 7159TIP3    H245673   1.604   2.672   3.541 -0.3690  0.8369 -0.6516
 7160TIP3   OH245674   1.464   4.044   2.887  0.3798  0.1683 -0.3088
 7160TIP3    H145675   1.499   3.997   2.962 -2.1403  0.0839  0.9141
 7160TIP3    H245676   1.431   4.127   2.924 -1.9655 -0.3678 -1.0044
 7161TIP3   OH245677   4.830   2.336   3.664 -0.0206 -0.2552  0.4116
 7161TIP3    H145678   4.800   2.249   3.637  0.4348 -0.1027 -0.6146
 7161TIP3    H245679   4.896   2.319   3.731 -0.9736 -0.6442  1.2775
 7162TIP3   OH245680   0.472   6.702   4.171 -0.3875 -0.0043 -0.2603
 7162TIP3    H145681   0.538   6.687   4.238  0.1584 -1.2194 -1.0191
 7162TIP3    H245682   0.399   6.742   4.217  0.8361  1.2981  0.6210
 7163TIP3   OH245683   3.822   1.774   3.157  0.6978 -0.8074 -0.1194
 7163TIP3    H145684   3.774   1.740   3.081  0.1503 -0.8040  0.2160
 7163TIP3    H245685   3.769   1.848   3.187  0.3761 -1.4026  0.8446
 7164TIP3   OH245686   3.468   0.751   2.548 -0.0762 -0.1731  0.2080
 7164TIP3    H145687   3.397   0.717   2.493  1.8640 -0.0770 -2.5741
 7164TIP3    H245688   3.509   0.673   2.585 -1.3572 -0.2438  1.5672
 7165TIP3   OH245689   1.777   3.953   4.078  0.0891 -0.0719  0.1671
 7165TIP3    H145690   1.831   3.990   4.007  0.2387 -0.8195 -0.1187
 7165TIP3    H245691   1.696   4.004   4.075  1.3601  2.1618  1.6538
 7166TIP3   OH245692   2.076   6.836   3.785  0.0626 -0.0191  0.0897
 7166TIP3    H145693   2.103   6.872   3.700 -1.1464  1.2841  0.2284
 7166TIP3    H245694   2.156   6.797   3.821  1.3902  2.2849 -0.1957
 7167TIP3   OH245695   0.175   6.817   4.110  0.0228 -0.3132 -0.6581
 7167TIP3    H145696   0.157   6.754   4.180  1.4317  0.8195  0.8061
 7167TIP3    H245697   0.143   6.901   4.144  4.0670  1.0132  0.3940
 7168TIP3   OH245698   0.290   5.846   3.386 -0.5067 -0.0032  0.0586
 7168TIP3    H145699   0.233   5.768   3.390 -0.2762 -0.2818 -1.4612
 7168TIP3    H245700   0.374   5.816   3.422 -0.5256 -0.3590 -0.1868
 7169TIP3   OH245701   6.020   6.095   3.606 -0.5049 -0.4058 -0.0331
 7169TIP3    H145702   6.074   6.083   3.685 -0.4315  0.2349  0.0185
 7169TIP3    H245703   6.083   6.096   3.534 -0.5529 -0.7754 -0.0817
 7170TIP3   OH245704   0.240   4.919   2.135 -0.3826 -0.4168  0.3556
 7170TIP3    H145705   0.222   4.875   2.218  0.2009  0.9802  1.2464
 7170TIP3    H245706   0.204   4.860   2.069  1.0461 -2.6198  1.4271
 7171TIP3   OH245707   4.417   0.492   3.489 -0.1746  0.6752  0.0816
 7171TIP3    H145708   4.379   0.505   3.576  0.1859  0.1714  0.3116
 7171TIP3    H245709   4.366   0.551   3.433 -0.7819  0.5880  0.5296
 7172TIP3   OH245710   5.872   4.961   2.198  0.6406 -0.3031 -0.6483
 7172TIP3    H145711   5.783   4.988   2.222  0.9127  0.8012 -0.8557
 7172TIP3    H245712   5.872   4.957   2.103  0.8405 -0.1969 -0.6543
 7173TIP3   OH245713   5.383   2.931   2.711 -0.2193 -0.6949 -0.1198
 7173TIP3    H145714   5.456   2.991   2.700 -0.5631 -0.3985 -0.8656
 7173TIP3    H245715   5.402   2.858   2.652 -1.0395 -0.1012 -1.1560
 7174TIP3   OH245716   1.572   2.454   3.221 -0.0084  0.3723 -0.0025
 7174TIP3    H145717   1.634   2.448   3.149 -0.3521 -1.6372 -0.2068
 7174TIP3    H245718   1.624   2.429   3.298  0.1269  1.5850  0.3157
 7175TIP3   OH245719   0.190   2.473   3.881 -0.5861 -0.6827  0.1420
 7175TIP3    H145720   0.278   2.496   3.910 -0.3458  0.7936 -1.5311
 7175TIP3    H245721   0.199   2.387   3.840  0.0654 -0.6099  0.1214
 7176TIP3   OH245722   3.424   2.288   1.647  0.4537 -0.3706 -0.0076
 7176TIP3    H145723   3.442   2.375   1.680  1.3272 -0.0906 -1.1266
 7176TIP3    H245724   3.329   2.282   1.642  0.3270  1.8505 -3.1502
 7177TIP3   OH245725   1.562   5.352   4.098 -0.7047 -0.2148  0.2195
 7177TIP3    H145726   1.556   5.354   4.002 -1.2340 -0.7408  0.2336
 7177TIP3    H245727   1.472   5.334   4.127 -0.2535 -1.7674  0.7428
 7178TIP3   OH245728   4.354   4.734   2.169 -0.2745  0.1321  0.6483
 7178TIP3    H145729   4.323   4.802   2.110 -0.6709  1.9807  2.8328
 7178TIP3    H245730   4.449   4.740   2.167 -0.2799  0.0387  0.0734
 7179TIP3   OH245731   3.720   5.961   2.586 -0.1217  0.2140 -0.7052
 7179TIP3    H145732   3.700   5.869   2.604  0.5176  0.4198  1.3290
 7179TIP3    H245733   3.680   5.978   2.501 -0.4576 -1.8760 -1.0180
 7180TIP3   OH245734   2.854   3.070   3.818  0.2964  0.8222 -0.1582
 7180TIP3    H145735   2.805   3.138   3.771  0.8178  0.0805 -1.8811
 7180TIP3    H245736   2.899   3.021   3.748  1.1373 -0.3404  1.1471
 7181TIP3   OH245737   3.998   6.092   4.436 -0.0937 -0.1017  0.2538
 7181TIP3    H145738   4.038   6.086   4.349  0.0302  1.0431  0.2164
 7181TIP3    H245739   4.051   6.035   4.491  0.7237  0.2973 -0.1118
 7182TIP3   OH245740   5.295   1.097   3.291  0.0054 -0.1761 -0.8212
 7182TIP3    H145741   5.371   1.147   3.260 -0.4336  0.6347 -0.6227
 7182TIP3    H245742   5.254   1.155   3.355  0.1734 -1.2941  0.3375
 7183TIP3   OH245743   0.347   2.803   2.607  0.7341 -0.3419  0.2506
 7183TIP3    H145744   0.287   2.730   2.624  1.3554 -0.5900  1.5105
 7183TIP3    H245745   0.359   2.803   2.512 -0.7131 -0.7078  0.0473
 7184TIP3   OH245746   3.031   3.134   4.883 -0.3430 -0.4782  0.1946
 7184TIP3    H145747   3.110   3.187   4.893 -0.6805  0.0164  0.2634
 7184TIP3    H245748   2.966   3.177   4.938 -0.1091 -2.0425  1.7895
 7185TIP3   OH245749   6.324   3.311   4.373 -0.4333 -0.2840  0.3681
 7185TIP3    H145750   6.333   3.216   4.363  1.4154 -0.3566  2.2336
 7185TIP3    H245751   6.297   3.323   4.464 -0.1521  1.0095  0.2949
 7186TIP3   OH245752   6.561   1.458   3.980  0.0775 -0.4727 -0.0425
 7186TIP3    H145753   6.560   1.554   3.969 -1.1160 -0.3137  1.1180
 7186TIP3    H245754   6.642   1.430   3.939 -0.3859  0.8365 -2.0298
 7187TIP3   OH245755   2.682   5.732   4.336  0.1838 -0.6039  0.2955
 7187TIP3    H145756   2.703   5.814   4.293  0.6025 -0.5198  0.6576
 7187TIP3    H245757   2.598   5.706   4.298  0.3131 -0.2865 -0.2107
 7188TIP3   OH245758   0.509   2.305   3.451 -0.1894 -0.4797 -0.0914
 7188TIP3    H145759   0.599   2.335   3.462  0.0160 -0.1210 -2.2568
 7188TIP3    H245760   0.517   2.224   3.400 -1.0988 -0.1424 -0.7961
 7189TIP3   OH245761   1.071   1.299   2.782 -0.4453  0.7576 -0.0350
 7189TIP3    H145762   1.003   1.261   2.838 -0.0829 -1.5815 -1.0569
 7189TIP3    H245763   1.121   1.357   2.840 -0.8523 -0.6002  1.7500
 7190TIP3   OH245764   3.172   2.044   2.284 -0.2190  0.0754 -0.8647
 7190TIP3    H145765   3.103   2.036   2.218 -2.1877 -0.6666  1.1518
 7190TIP3    H245766   3.212   1.957   2.287 -1.3933 -0.4576  0.1656
 7191TIP3   OH245767   1.950   3.697   4.222 -0.3716 -0.5293 -0.3095
 7191TIP3    H145768   1.876   3.670   4.168 -0.9764 -0.1389  0.3009
 7191TIP3    H245769   1.914   3.704   4.311  0.8100 -2.0986  0.3418
 7192TIP3   OH245770   1.988   0.437   4.048 -0.4814 -0.0512  0.1039
 7192TIP3    H145771   1.896   0.464   4.043 -0.3826  0.2001 -0.3777
 7192TIP3    H245772   1.987   0.346   4.017 -0.6155 -0.1587  0.4215
 7193TIP3   OH245773   3.125   3.652   4.057 -0.5943 -0.2036 -0.0361
 7193TIP3    H145774   3.144   3.644   4.150 -2.1728  0.5687  0.3875
 7193TIP3    H245775   3.135   3.563   4.023  0.7328 -0.3584  0.6851
 7194TIP3   OH245776   4.030   0.094   4.807 -0.4986 -0.4276  0.3014
 7194TIP3    H145777   4.024   0.095   4.903  0.0082  0.7557  0.3328
 7194TIP3    H245778   3.983   0.014   4.782 -0.7210 -0.7140  1.5245
 7195TIP3   OH245779   6.356   3.238   2.283  0.2772 -0.1187  0.3580
 7195TIP3    H145780   6.335   3.218   2.191 -3.4019 -3.7432  1.6511
 7195TIP3    H245781   6.400   3.160   2.315  0.7526  0.7409  1.8953
 7196TIP3   OH245782   3.447   1.826   4.688  0.8314  0.7260  0.4766
 7196TIP3    H145783   3.381   1.790   4.747 -1.4353  0.5436 -1.9785
 7196TIP3    H245784   3.531   1.805   4.730 -0.5534 -1.4362  2.4309
 7197TIP3   OH245785   2.772   0.871   3.272 -0.2352  0.3245 -0.7934
 7197TIP3    H145786   2.735   0.786   3.296  0.3446  0.5779  1.1388
 7197TIP3    H245787   2.821   0.853   3.192 -2.4958 -0.5052 -2.1074
 7198TIP3   OH245788   6.278   3.883   4.246 -0.0986 -0.3874  0.4258
 7198TIP3    H145789   6.353   3.933   4.277 -0.6689  0.1647  0.9555
 7198TIP3    H245790   6.289   3.879   4.151 -0.3766  1.3364  0.2907
 7199TIP3   OH245791   0.188   5.590   3.412  0.3091 -0.4233 -0.3593
 7199TIP3    H145792   0.258   5.528   3.432  0.3125 -0.5984 -0.8991
 7199TIP3    H245793   0.133   5.544   3.348 -1.0685 -0.8325  1.0502
 7200TIP3   OH245794   4.095   3.541   4.552 -0.7954 -0.1873  0.1934
 7200TIP3    H145795   4.158   3.482   4.511  0.4566  0.7748  0.6853
 7200TIP3    H245796   4.032   3.483   4.595 -0.3240 -1.1668 -0.4048
 7201TIP3   OH245797   5.853   0.982   2.959  0.1187  0.1736 -0.0939
 7201TIP3    H145798   5.766   0.967   2.998 -0.0856 -0.8706 -0.9126
 7201TIP3    H245799   5.836   0.989   2.865  0.9987 -0.8140 -0.3423
 7202TIP3   OH245800   2.418   2.366   3.825 -0.3935  0.0858 -0.3150
 7202TIP3    H145801   2.361   2.327   3.892  0.5959 -0.6629  0.1199
 7202TIP3    H245802   2.495   2.310   3.824  1.0027  1.8947  0.1517
 7203TIP3   OH245803   3.196   1.777   3.086 -0.6466  0.4270  0.2354
 7203TIP3    H145804   3.155   1.692   3.105 -1.0765  0.5864  0.0317
 7203TIP3    H245805   3.213   1.816   3.172 -0.3227  0.0777  0.3332
 7204TIP3   OH245806   0.548   2.427   4.751  0.6479  0.0263  0.5035
 7204TIP3    H145807   0.497   2.475   4.817  0.0014 -1.0761  0.8405
 7204TIP3    H245808   0.601   2.365   4.802  1.7977  0.6517  0.1048
 7205TIP3   OH245809   6.850   2.915   3.573  0.1719  0.1911  0.1633
 7205TIP3    H145810   6.870   2.862   3.651 -1.4154 -0.6645  0.0435
 7205TIP3    H245811   6.892   2.868   3.501 -0.0386 -0.1306  0.2475
 7206TIP3   OH245812   6.265   0.450   2.671 -0.7376 -0.4817  1.0712
 7206TIP3    H145813   6.189   0.503   2.694  0.9329  0.3442  5.6896
 7206TIP3    H245814   6.245   0.362   2.704 -0.5830 -0.8700  0.1640
 7207TIP3   OH245815   5.771   2.235   3.348  0.1131  0.1984 -0.4337
 7207TIP3    H145816   5.797   2.232   3.256  0.2701 -2.7068 -0.4030
 7207TIP3    H245817   5.681   2.203   3.349 -0.0109  0.5459  0.3805
 7208TIP3   OH245818   3.651   4.282   3.793 -0.7072 -0.2855 -0.0749
 7208TIP3    H145819   3.740   4.301   3.822 -0.6721 -0.3564 -0.1377
 7208TIP3    H245820   3.597   4.347   3.839 -0.5279  0.3171 -0.7031
 7209TIP3   OH245821   6.028   4.206   3.738 -0.0363  0.6433 -0.4877
 7209TIP3    H145822   6.088   4.181   3.667 -0.6361 -0.4032 -0.6469
 7209TIP3    H245823   5.951   4.150   3.725 -0.0377  0.2262  1.1544
 7210TIP3   OH245824   0.321   3.065   4.934  0.1900  0.1475  0.5063
 7210TIP3    H145825   0.227   3.047   4.945 -0.0371  0.9714 -0.0164
 7210TIP3    H245826   0.364   2.993   4.980 -0.6853 -1.3293 -0.8875
 7211TIP3   OH245827   0.574   5.495   5.156  0.5532  0.0357  0.2568
 7211TIP3    H145828   0.657   5.510   5.202 -0.3354  0.9117  1.6610
 7211TIP3    H245829   0.554   5.403   5.174 -0.1746  0.5539  2.4175
 7212TIP3   OH245830   6.540   1.533   4.820  0.4852  0.4649 -0.6079
 7212TIP3    H145831   6.589   1.599   4.870  0.7236  0.1123 -0.3751
 7212TIP3    H245832   6.591   1.521   4.740  0.3069  0.7465 -0.7676
 7213TIP3   OH245833   6.790   1.721   3.237 -0.3581 -0.0212  0.5395
 7213TIP3    H145834   6.740   1.706   3.157  0.1507  0.0891  0.1988
 7213TIP3    H245835   6.880   1.734   3.208  0.2197 -1.9618  1.2623
 7214TIP3   OH245836   5.837   3.541   3.788  0.2882  0.6535  0.0530
 7214TIP3    H145837   5.808   3.600   3.858 -2.1123 -0.0441 -0.2777
 7214TIP3    H245838   5.807   3.583   3.707  1.0660  0.3305 -0.4200
 7215TIP3   OH245839   1.229   5.841   1.981 -0.0832 -0.0772 -0.4535
 7215TIP3    H145840   1.279   5.898   1.923 -0.2517  0.3576 -0.1789
 7215TIP3    H245841   1.139   5.847   1.949  0.3074 -2.5364 -2.3048
 7216TIP3   OH245842   6.286   2.582   4.446  0.1750 -0.6539  0.0428
 7216TIP3    H145843   6.292   2.673   4.418  0.8923 -0.8077 -0.3260
 7216TIP3    H245844   6.296   2.531   4.366  1.4578 -1.0806  0.4454
 7217TIP3   OH245845   3.319   4.413   3.886 -0.1578 -0.3264 -0.1757
 7217TIP3    H145846   3.254   4.384   3.822  0.7836 -0.9744 -0.8630
 7217TIP3    H245847   3.268   4.426   3.967 -2.0999  4.1091 -1.8061
 7218TIP3   OH245848   5.452   0.197   4.222  1.2618 -0.0075 -0.1030
 7218TIP3    H145849   5.416   0.168   4.305  1.0611  0.8597  0.1276
 7218TIP3    H245850   5.448   0.120   4.165 -3.6397  0.6251 -1.0364
 7219TIP3   OH245851   3.130   2.102   1.716 -0.3353 -0.2297 -0.3471
 7219TIP3    H145852   3.196   2.039   1.744  0.6329  0.7135 -0.4121
 7219TIP3    H245853   3.069   2.107   1.790  0.8770  0.4672  0.6558
 7220TIP3   OH245854   1.077   3.526   5.439  0.2228 -0.0499 -0.2829
 7220TIP3    H145855   1.115   3.446   5.475  2.2174  0.2840 -1.4760
 7220TIP3    H245856   1.134   3.596   5.471 -1.0009  0.8206  0.0574
 7221TIP3   OH245857   5.705   0.675   3.108 -0.0114 -0.0658 -0.6760
 7221TIP3    H145858   5.666   0.762   3.111 -0.7211 -0.3875  1.1268
 7221TIP3    H245859   5.631   0.616   3.095  0.2671 -0.4879 -0.3640
 7222TIP3   OH245860   6.448   4.721   3.737 -0.1781  0.5461  0.3233
 7222TIP3    H145861   6.466   4.754   3.825  1.7760 -1.0232  0.5701
 7222TIP3    H245862   6.428   4.628   3.749  1.5536 -0.0608 -0.9645
 7223TIP3   OH245863   0.621   3.173   5.046 -0.1361  0.2766 -0.3605
 7223TIP3    H145864   0.549   3.184   5.108 -0.2689  1.3465 -0.6964
 7223TIP3    H245865   0.589   3.211   4.964  0.7754  0.6902 -0.5388
 7224TIP3   OH245866   6.276   4.513   3.005  0.2208 -0.5525  0.1183
 7224TIP3    H145867   6.195   4.532   3.054 -0.1032 -2.0774  0.2455
 7224TIP3    H245868   6.272   4.418   2.990  0.0339 -0.1258 -3.3744
 7225TIP3   OH245869   6.715   0.202   1.867 -0.2970 -0.7101 -0.1220
 7225TIP3    H145870   6.758   0.233   1.787 -0.8008  0.5443  0.0694
 7225TIP3    H245871   6.788   0.179   1.925  0.2563  2.5060  0.6450
 7226TIP3   OH245872   1.395   6.012   1.856  0.0737  0.3647 -0.0072
 7226TIP3    H145873   1.473   6.016   1.911 -0.7205 -1.3614  1.3516
 7226TIP3    H245874   1.395   6.094   1.807  1.9435  1.0311  1.0306
 7227TIP3   OH245875   3.414   5.518   2.773  0.9688  0.2719 -0.0638
 7227TIP3    H145876   3.370   5.495   2.855  0.9358  1.5181  0.2838
 7227TIP3    H245877   3.501   5.479   2.781  1.1230  0.7581  0.7665
 7228TIP3   OH245878   0.031   0.091   2.955 -0.1652 -0.2675 -0.1478
 7228TIP3    H145879   0.113   0.110   2.910  0.3715  0.0311  0.9341
 7228TIP3    H245880  -0.017   0.174   2.951 -0.5801 -0.5324 -1.0712
 7229TIP3   OH245881   0.743   6.103   2.692 -0.2958 -0.4648 -0.1225
 7229TIP3    H145882   0.754   6.098   2.597  0.4828 -0.5212 -0.0400
 7229TIP3    H245883   0.675   6.038   2.712 -0.2274 -0.6901 -0.6077
 7230TIP3   OH245884   2.025   0.908   4.937  0.4101  0.3675  0.1294
 7230TIP3    H145885   2.086   0.863   4.879  0.6453 -0.1288  0.7577
 7230TIP3    H245886   2.005   0.844   5.005  0.2228  0.9864  0.6618
 7231TIP3   OH245887   4.348   5.590   5.860 -0.0047 -0.3990  0.4389
 7231TIP3    H145888   4.345   5.494   5.856 -0.0390 -0.4281  1.0871
 7231TIP3    H245889   4.434   5.610   5.897 -0.0716 -0.1790  0.4746
 7232TIP3   OH245890   2.865   2.460   4.219  0.4647 -0.0469 -0.1899
 7232TIP3    H145891   2.818   2.528   4.268  1.2878 -0.3043  0.9869
 7232TIP3    H245892   2.828   2.465   4.131  0.0138  1.4583  0.0520
 7233TIP3   OH245893   0.648   0.637   2.163  0.0571  0.1658  0.0767
 7233TIP3    H145894   0.652   0.713   2.221 -0.7285 -0.2233  0.6572
 7233TIP3    H245895   0.634   0.562   2.222 -1.1178 -0.1929 -0.6123
 7234TIP3   OH245896   0.389   4.541   2.178 -0.4594 -0.0086 -0.1240
 7234TIP3    H145897   0.396   4.475   2.247 -1.6434 -0.0486 -0.0083
 7234TIP3    H245898   0.295   4.546   2.160 -0.2732  0.8132 -0.9492
 7235TIP3   OH245899   3.307   4.056   3.621  0.0014  0.1353  0.0253
 7235TIP3    H145900   3.233   4.069   3.680  0.9358 -0.4895  1.3824
 7235TIP3    H245901   3.284   3.978   3.570 -0.3197  0.0103  0.3609
 7236TIP3   OH245902   6.436   5.421   2.129  0.0275 -0.0098  0.1499
 7236TIP3    H145903   6.446   5.516   2.136 -0.4284  0.1190 -0.8405
 7236TIP3    H245904   6.525   5.387   2.142  0.0658  0.4830  1.3152
 7237TIP3   OH245905   1.412   5.159   3.748 -0.4139  0.1342 -0.1100
 7237TIP3    H145906   1.338   5.195   3.797 -1.0143 -0.1879 -0.7736
 7237TIP3    H245907   1.395   5.065   3.745  0.0422  0.0531 -0.2374
 7238TIP3   OH245908   5.217   0.035   2.371 -0.4180 -0.7482 -0.2019
 7238TIP3    H145909   5.283   0.089   2.415 -0.6726  0.0250 -0.7516
 7238TIP3    H245910   5.242  -0.055   2.392  0.7341 -0.4679 -0.2873
 7239TIP3   OH245911   5.749   0.496   4.656 -0.6456  0.4358 -0.1108
 7239TIP3    H145912   5.774   0.486   4.748 -2.0317  0.0912  0.2516
 7239TIP3    H245913   5.805   0.434   4.609 -0.6474 -0.1557  0.6420
 7240TIP3   OH245914   6.817   2.123   1.842 -0.1370 -0.0256  0.4755
 7240TIP3    H145915   6.834   2.215   1.861  1.5493 -0.1752 -0.1750
 7240TIP3    H245916   6.809   2.120   1.747 -0.9313 -0.4622  0.5448
 7241TIP3   OH245917   0.227   1.982   2.186  0.1453  0.3256 -0.3854
 7241TIP3    H145918   0.138   1.984   2.149  0.7346 -1.7128 -2.0530
 7241TIP3    H245919   0.225   1.910   2.249  0.8710 -0.3397 -1.1203
 7242TIP3   OH245920   4.216   6.622   2.884 -0.2799  0.0996  0.0766
 7242TIP3    H145921   4.261   6.593   2.964 -1.0282 -2.3110 -0.3248
 7242TIP3    H245922   4.152   6.686   2.915  0.3469  0.2122  1.2149
 7243TIP3   OH245923   5.487   0.506   3.072 -0.7267 -0.0429  0.1607
 7243TIP3    H145924   5.439   0.558   3.136 -1.7177 -0.3896 -0.2828
 7243TIP3    H245925   5.434   0.427   3.059 -0.4332 -0.0915 -0.9038
 7244TIP3   OH245926   5.373   3.438   4.051  0.5721 -0.3873  0.0672
 7244TIP3    H145927   5.346   3.528   4.070 -0.3784 -0.4926 -0.6975
 7244TIP3    H245928   5.291   3.392   4.031  1.2467 -0.7580 -2.2255
 7245TIP3   OH245929   1.942   6.316   4.227  0.0451  0.2317 -0.4453
 7245TIP3    H145930   1.875   6.250   4.240 -0.2640  0.7990  0.9754
 7245TIP3    H245931   2.015   6.289   4.282  0.4627  0.3384 -0.9350
 7246TIP3   OH245932   4.757   2.593   2.709  0.0136  0.0375  0.4219
 7246TIP3    H145933   4.697   2.668   2.711 -0.8768 -0.6580  3.0815
 7246TIP3    H245934   4.777   2.581   2.616 -2.1844  1.6966 -0.3451
 7247TIP3   OH245935   4.959   3.093   2.057  0.0856 -0.2198 -0.1931
 7247TIP3    H145936   4.987   3.116   2.145  1.0139  2.2237 -1.0401
 7247TIP3    H245937   5.038   3.102   2.003  0.3580 -4.6088 -0.9465
 7248TIP3   OH245938   4.303   2.638   3.070  0.1876  0.3430 -0.0446
 7248TIP3    H145939   4.371   2.569   3.071 -0.7743 -0.6329 -0.0979
 7248TIP3    H245940   4.275   2.642   2.979  3.3914  4.0969 -1.1363
 7249TIP3   OH245941   4.708   2.481   1.738  0.1211 -0.0509 -0.1059
 7249TIP3    H145942   4.681   2.563   1.779  2.8135  1.7966 -1.6876
 7249TIP3    H245943   4.648   2.471   1.664  0.2922  1.0121 -0.4127
 7250TIP3   OH245944   4.237   3.412   3.008 -0.2777 -0.3638 -0.2894
 7250TIP3    H145945   4.246   3.502   2.976 -0.6229 -0.3397 -0.3302
 7250TIP3    H245946   4.203   3.364   2.933 -0.7856 -0.3750 -0.0614
 7251TIP3   OH245947   1.398   3.575   5.333  0.2449  0.5894  0.0727
 7251TIP3    H145948   1.333   3.606   5.395  0.3761  0.5209  0.2431
 7251TIP3    H245949   1.348   3.544   5.258 -0.0282 -1.3739  1.0102
 7252TIP3   OH245950   4.552   5.831   2.361  0.3018 -0.2917 -0.1416
 7252TIP3    H145951   4.638   5.851   2.323  0.5398 -1.6362 -0.3540
 7252TIP3    H245952   4.571   5.815   2.454  0.2829 -0.5890 -0.1889
 7253TIP3   OH245953   3.022   3.209   4.576  0.6114  0.3642 -0.6734
 7253TIP3    H145954   3.036   3.209   4.481  0.1690 -1.5378 -0.7655
 7253TIP3    H245955   3.111   3.216   4.613  0.7408  1.7983 -1.1953
 7254TIP3   OH245956   3.118   3.572   3.081  0.0954  0.2234 -0.0242
 7254TIP3    H145957   3.031   3.606   3.102  0.2392 -0.1085  1.1557
 7254TIP3    H245958   3.160   3.559   3.166  0.7710 -0.9844 -0.5249
 7255TIP3   OH245959   2.223   4.188   3.616  0.1900  0.2714  0.3622
 7255TIP3    H145960   2.154   4.253   3.625 -2.2783 -1.8726 -1.4689
 7255TIP3    H245961   2.222   4.141   3.699  1.4828  1.9882  1.4122
 7256TIP3   OH245962   3.232   5.031   4.489 -0.5458  0.0072  0.2327
 7256TIP3    H145963   3.188   5.010   4.407 -0.5888  0.9001  0.0225
 7256TIP3    H245964   3.164   5.074   4.542 -1.1503 -2.4065  1.5834
 7257TIP3   OH245965   0.387   1.979   2.503  0.2570  0.9325  0.3709
 7257TIP3    H145966   0.373   1.990   2.597 -0.6536 -0.0746  0.3677
 7257TIP3    H245967   0.389   1.884   2.489 -1.0353  1.0352 -0.8068
 7258TIP3   OH245968   3.391   1.508   3.137  0.0046 -0.6315  0.2136
 7258TIP3    H145969   3.368   1.598   3.160 -0.5681 -0.9401  0.8879
 7258TIP3    H245970   3.487   1.508   3.137  0.1012 -0.6502  2.9670
 7259TIP3   OH245971   0.430   0.146   4.254 -0.2508  0.3025 -0.0798
 7259TIP3    H145972   0.450   0.073   4.313 -2.0533 -0.8220 -0.7902
 7259TIP3    H245973   0.341   0.172   4.277  0.0782  1.8045 -0.3713
 7260TIP3   OH245974   2.089   5.935   2.950 -0.5527 -0.2156  0.2185
 7260TIP3    H145975   2.171   5.943   2.999 -0.0561  2.0819 -0.8284
 7260TIP3    H245976   2.028   5.991   2.998 -1.0155 -0.5669  0.0407
 7261TIP3   OH245977   1.921   0.891   4.650 -0.3275  0.1555  0.4818
 7261TIP3    H145978   1.990   0.947   4.615 -2.3968  1.5320 -1.6855
 7261TIP3    H245979   1.962   0.848   4.726  2.2459  2.4065  0.5449
 7262TIP3   OH245980   3.009   1.199   2.672 -0.1968 -0.6973  0.5632
 7262TIP3    H145981   3.067   1.253   2.617  0.2402 -1.1618  0.5647
 7262TIP3    H245982   2.929   1.251   2.680  0.1742 -0.0964  0.4649
 7263TIP3   OH245983   1.344   6.043   4.536  0.0782  0.0783 -1.0966
 7263TIP3    H145984   1.336   6.027   4.442  1.6003 -0.8384 -1.1034
 7263TIP3    H245985   1.438   6.042   4.553 -0.1568  0.4260  0.4195
 7264TIP3   OH245986   1.918   3.088   2.803  0.8339  0.2613  0.3404
 7264TIP3    H145987   1.986   3.077   2.869  0.6791  0.6470  0.5683
 7264TIP3    H245988   1.874   3.169   2.827 -0.7349 -0.7748  1.1323
 7265TIP3   OH245989   6.822   5.983  13.008 -0.4691 -0.1507  0.8177
 7265TIP3    H145990   6.750   5.949  12.954 -0.1864 -1.2480  1.1051
 7265TIP3    H245991   6.901   5.950  12.966 -0.0793  1.3975  0.2676
 7266TIP3   OH245992   3.289   0.672   2.043 -0.4152  0.0669  0.0887
 7266TIP3    H145993   3.309   0.582   2.067 -0.2072  0.8251  3.1713
 7266TIP3    H245994   3.220   0.699   2.103 -1.1295  1.7140 -1.3662
 7267TIP3   OH245995   1.422   5.743   2.501 -0.0161 -0.0373  0.7348
 7267TIP3    H145996   1.409   5.798   2.424  0.5658  0.5638  1.0591
 7267TIP3    H245997   1.382   5.659   2.478 -1.2991  0.6356  0.3794
 7268TIP3   OH245998   0.768   2.790   4.281  0.1033 -0.2617  0.3852
 7268TIP3    H145999   0.702   2.721   4.288  1.9468 -2.0596  0.9806
 7268TIP3    H246000   0.822   2.765   4.206  0.7417  0.6074  0.5303
 7269TIP3   OH246001   3.212   1.764   2.667 -0.5033  0.1305 -0.2016
 7269TIP3    H146002   3.246   1.797   2.750  1.3211 -1.4493 -0.2675
 7269TIP3    H246003   3.166   1.683   2.690  0.1885 -0.4220 -0.7430
 7270TIP3   OH246004   0.060   5.790   4.315  0.2745  0.2694 -0.0368
 7270TIP3    H146005   0.153   5.811   4.318  0.5699 -0.8294 -0.9833
 7270TIP3    H246006   0.024   5.828   4.396  1.9115 -1.0839  1.3861
 7271TIP3   OH246007   4.331   6.682   4.093 -0.0608  0.1071  0.4464
 7271TIP3    H146008   4.316   6.670   4.187 -1.1324 -3.0739  0.0110
 7271TIP3    H246009   4.248   6.716   4.060 -0.4697 -0.8876  0.4028
 7272TIP3   OH246010   0.633   2.130   3.077  0.0755  0.8550 -0.4034
 7272TIP3    H146011   0.675   2.085   3.003 -1.1216 -0.7338 -0.1590
 7272TIP3    H246012   0.540   2.108   3.069 -0.2850  1.8504  0.7727
 7273TIP3   OH246013   0.172   1.459   3.689  0.0299 -0.2051 -0.1357
 7273TIP3    H146014   0.205   1.545   3.713  0.3083 -0.6309  1.0605
 7273TIP3    H246015   0.252   1.407   3.673 -0.1307 -0.0280 -1.7561
 7274TIP3   OH246016   4.979   1.008   2.713  0.2304  0.0130  0.2408
 7274TIP3    H146017   5.054   0.963   2.752 -0.2572  0.5809  1.9103
 7274TIP3    H246018   4.992   0.998   2.618  1.5857 -1.2160  0.5168
 7275TIP3   OH246019   3.835   0.808   3.669 -0.0888 -0.0158 -0.2943
 7275TIP3    H146020   3.819   0.902   3.659  0.6787  0.1601  0.0116
 7275TIP3    H246021   3.905   0.789   3.606  0.3129 -0.2121  0.2038
 7276TIP3   OH246022   0.727   0.587   5.021 -0.3245 -0.2332 -0.0208
 7276TIP3    H146023   0.760   0.653   5.082  2.3963 -0.2653 -1.3151
 7276TIP3    H246024   0.642   0.622   4.992 -0.1724  1.3621  1.3186
 7277TIP3   OH246025   1.216   6.247   3.781  0.2436 -0.1439  0.4688
 7277TIP3    H146026   1.248   6.304   3.711  0.5609 -3.2419 -2.1861
 7277TIP3    H246027   1.148   6.298   3.825 -1.8988  1.2482 -3.8326
 7278TIP3   OH246028   4.778   5.367   3.497 -0.2431  0.0962 -0.3625
 7278TIP3    H146029   4.848   5.432   3.503 -0.3143  0.1531 -0.1453
 7278TIP3    H246030   4.767   5.335   3.587 -0.6232  0.2167 -0.3654
 7279TIP3   OH246031   3.109   1.509   2.683  0.4523  0.1496 -0.4290
 7279TIP3    H146032   3.174   1.443   2.660  0.8267  0.4233 -0.1784
 7279TIP3    H246033   3.057   1.468   2.751  1.0369  0.3052  0.1251
 7280TIP3   OH246034   4.294   0.140   2.302  0.0099  0.5649 -0.0019
 7280TIP3    H146035   4.315   0.112   2.392  0.2266  1.7359  0.3279
 7280TIP3    H246036   4.205   0.109   2.288  0.2210 -0.2416  0.3602
 7281TIP3   OH246037   3.200   6.167   2.957 -0.5532  0.5524  0.1065
 7281TIP3    H146038   3.292   6.189   2.939 -0.4594 -0.0496 -0.1799
 7281TIP3    H246039   3.204   6.085   3.005 -1.0068 -0.7245 -1.9255
 7282TIP3   OH246040   5.809   6.226   4.966 -0.3897 -0.5021 -0.0005
 7282TIP3    H146041   5.877   6.248   5.029 -1.5255  2.2063  0.4141
 7282TIP3    H246042   5.730   6.213   5.019 -0.7787 -0.8561 -0.6539
 7283TIP3   OH246043   1.849   4.409   2.000 -0.0700  0.3620 -0.6033
 7283TIP3    H146044   1.812   4.329   2.038 -1.1722  1.2837  0.3560
 7283TIP3    H246045   1.924   4.379   1.949  0.1206 -1.1794  0.5075
 7284TIP3   OH246046   6.412   3.633   2.895  0.2740 -0.7383  0.5572
 7284TIP3    H146047   6.372   3.574   2.959 -2.1253 -0.7554 -0.8362
 7284TIP3    H246048   6.362   3.714   2.903 -1.4660 -1.3368 -2.4906
 7285TIP3   OH246049   3.899   2.182   2.668  0.9368  0.0168  0.3188
 7285TIP3    H146050   3.848   2.261   2.652  1.1493 -0.1245 -1.1458
 7285TIP3    H246051   3.964   2.208   2.734  1.6261  1.3448 -0.8348
 7286TIP3   OH246052   2.687   1.327   2.432 -0.3443  0.4312 -0.0589
 7286TIP3    H146053   2.726   1.333   2.519  0.4199 -0.0206 -0.3624
 7286TIP3    H246054   2.647   1.412   2.418  0.1035  0.7351  0.4655
 7287TIP3   OH246055   1.265   2.553   3.938  0.2160 -0.1596  0.1130
 7287TIP3    H146056   1.295   2.462   3.932 -1.0393 -0.7290  1.7123
 7287TIP3    H246057   1.317   2.590   4.010 -0.2427 -0.0401  0.3880
 7288TIP3   OH246058   5.010   5.394   2.398 -0.1660 -0.4953 -0.1525
 7288TIP3    H146059   5.046   5.354   2.477 -1.3272  0.4973  0.9240
 7288TIP3    H246060   4.985   5.483   2.425 -2.9013 -0.9277 -0.9368
 7289TIP3   OH246061   4.750   6.608   3.900 -0.4030  0.3489  0.4834
 7289TIP3    H146062   4.741   6.513   3.901  0.0858  0.2850 -0.2580
 7289TIP3    H246063   4.668   6.639   3.861 -0.4330  0.2133  0.4378
 7290TIP3   OH246064   5.151   6.158   3.288  0.0545  0.0748 -0.2576
 7290TIP3    H146065   5.239   6.123   3.304 -0.6392 -1.3224  0.8072
 7290TIP3    H246066   5.161   6.216   3.213  1.9124  0.0710 -0.0591
 7291TIP3   OH246067   2.301   5.466   3.855 -0.5988 -0.2038  0.0847
 7291TIP3    H146068   2.376   5.516   3.888  0.5207 -1.2168 -0.8346
 7291TIP3    H246069   2.229   5.491   3.912 -0.1275  2.5300 -0.3810
 7292TIP3   OH246070   3.659   4.138   3.048  0.0320  0.0436  0.3987
 7292TIP3    H146071   3.597   4.084   3.097 -1.6883  2.3139  0.8653
 7292TIP3    H246072   3.710   4.183   3.115  2.0478 -1.4854  0.0176
 7293TIP3   OH246073   5.183   0.508   4.437  0.2090 -0.4155  0.0238
 7293TIP3    H146074   5.090   0.532   4.447  0.4520  1.8571 -2.1683
 7293TIP3    H246075   5.229   0.562   4.501  0.1412 -0.3632  0.0288
 7294TIP3   OH246076   3.324   5.323   2.568  0.2239 -0.2629 -0.0615
 7294TIP3    H146077   3.368   5.404   2.592 -0.4401 -0.2889  1.3280
 7294TIP3    H246078   3.297   5.285   2.651  1.8521 -2.7055 -0.5518
 7295TIP3   OH246079   0.229   4.494   4.763  1.0686  0.2511 -0.1087
 7295TIP3    H146080   0.165   4.562   4.780  0.6241 -0.4598  1.2077
 7295TIP3    H246081   0.184   4.412   4.783  1.8465 -0.3840 -0.8592
 7296TIP3   OH246082   3.022   1.992   2.785  0.4039  0.4699  0.4728
 7296TIP3    H146083   2.985   2.080   2.776 -0.4379  0.1599  0.7406
 7296TIP3    H246084   3.071   1.977   2.704 -1.4446  0.2710 -0.6788
 7297TIP3   OH246085   3.407   5.081   3.075  0.2571 -0.0385  0.5756
 7297TIP3    H146086   3.355   5.057   3.151 -1.2028  1.2090  0.0157
 7297TIP3    H246087   3.479   5.017   3.074 -0.0768 -0.5076  2.5629
 7298TIP3   OH246088   0.368   5.873   4.279  0.3491 -0.2644 -0.0689
 7298TIP3    H146089   0.369   5.825   4.361 -1.0580 -1.3838 -0.6714
 7298TIP3    H246090   0.420   5.819   4.219 -0.8784 -0.8434 -0.6324
 7299TIP3   OH246091   6.194   1.001   5.339 -0.2984 -0.5558 -0.3661
 7299TIP3    H146092   6.134   0.939   5.381 -0.2052  0.3226  1.1299
 7299TIP3    H246093   6.281   0.968   5.360 -0.2530 -0.4217 -0.3401
 7300TIP3   OH246094   2.436   5.903   3.702 -0.0080  0.0285 -0.1797
 7300TIP3    H146095   2.528   5.876   3.699  0.5275  1.6783  0.3858
 7300TIP3    H246096   2.415   5.908   3.795 -0.2258  1.0238 -0.2699
 7301TIP3   OH246097   4.370   4.441   3.214 -0.6819  0.0291 -0.4795
 7301TIP3    H146098   4.289   4.392   3.220  0.4748 -2.1684 -1.7096
 7301TIP3    H246099   4.411   4.431   3.300 -1.5134  0.9112  0.0516
 7302TIP3   OH246100   4.024   4.642   3.605  0.1291 -0.0470  0.0863
 7302TIP3    H146101   3.950   4.604   3.653 -0.8227 -1.7890 -2.5175
 7302TIP3    H246102   4.030   4.732   3.637 -1.6264 -0.5413  2.0253
 7303TIP3   OH246103   3.892   4.760   2.647 -0.2803 -0.0400 -0.4262
 7303TIP3    H146104   3.983   4.776   2.671 -0.1148 -1.0975 -0.3214
 7303TIP3    H246105   3.871   4.829   2.584  0.0345  1.3044  0.8689
 7304TIP3   OH246106   4.156   5.603   5.125  0.6752  0.3813 -0.2779
 7304TIP3    H146107   4.219   5.633   5.190 -0.0143  1.1768  0.0389
 7304TIP3    H246108   4.097   5.677   5.111 -1.7105 -1.0605  1.3082
 7305TIP3   OH246109   4.754   1.854   4.122  0.0453 -0.1761 -0.1445
 7305TIP3    H146110   4.750   1.783   4.059 -1.1324 -1.1863  1.0131
 7305TIP3    H246111   4.676   1.906   4.104 -0.8378 -1.0302  1.0755
 7306TIP3   OH246112   0.238   4.064   3.176  0.0365  1.1695  0.1073
 7306TIP3    H146113   0.166   4.026   3.126 -1.0298  0.3829  2.1214
 7306TIP3    H246114   0.249   4.152   3.140  0.1262  0.2545 -2.2396
 7307TIP3   OH246115   0.967   3.871   2.819 -0.4391 -0.5321  0.1118
 7307TIP3    H146116   1.002   3.829   2.741 -0.6119  1.2414 -0.9725
 7307TIP3    H246117   1.015   3.954   2.825 -1.1968 -0.1515  1.2801
 7308TIP3   OH246118   1.941   5.111   4.963  0.5564 -0.4771  0.4626
 7308TIP3    H146119   1.856   5.141   4.993  0.3037  0.6039 -1.1938
 7308TIP3    H246120   1.922   5.037   4.904  0.6708  0.3107 -0.5869
 7309TIP3   OH246121   3.496   0.343   2.309 -0.0998  0.5136  0.4992
 7309TIP3    H146122   3.581   0.378   2.335 -0.9961  1.4215  2.3679
 7309TIP3    H246123   3.463   0.298   2.387 -0.9042 -0.7404 -0.5187
 7310TIP3   OH246124   1.802   5.147   4.455  1.0864  0.3986 -0.0624
 7310TIP3    H146125   1.846   5.167   4.538 -0.0421  0.8390  0.4520
 7310TIP3    H246126   1.833   5.060   4.432  0.9448  0.0067  1.1576
 7311TIP3   OH246127   4.330   4.752   2.501  0.2229  0.1854  0.8075
 7311TIP3    H146128   4.326   4.658   2.520  0.2004  0.1932  0.8435
 7311TIP3    H246129   4.360   4.757   2.411 -0.6947  0.1224  0.4884
 7312TIP3   OH246130   3.593   2.480   3.374 -0.0208 -0.3059 -0.1358
 7312TIP3    H146131   3.684   2.502   3.355  0.5291 -0.1789  2.3640
 7312TIP3    H246132   3.593   2.386   3.390 -1.0171 -0.9833 -3.3351
 7313TIP3   OH246133   2.897   1.341   3.784 -0.3034 -0.2443  0.3638
 7313TIP3    H146134   2.842   1.364   3.860 -0.7090  1.6808 -0.4396
 7313TIP3    H246135   2.981   1.383   3.802  0.1642 -1.2210  0.5111
 7314TIP3   OH246136   3.332   6.030   5.180 -0.1003 -0.1550  0.1987
 7314TIP3    H146137   3.361   6.087   5.250  0.4174  0.4466 -0.4869
 7314TIP3    H246138   3.378   6.061   5.102 -1.3479 -0.2006 -0.6042
 7315TIP3   OH246139   0.607   2.588   4.375  0.0861 -0.4491 -0.0799
 7315TIP3    H146140   0.665   2.515   4.395  1.7575  1.1130  1.0455
 7315TIP3    H246141   0.526   2.569   4.423  1.3168 -0.4880  2.1075
 7316TIP3   OH246142   3.131   5.667   2.061 -0.3201  0.3841 -0.2771
 7316TIP3    H146143   3.038   5.647   2.050 -0.1298  0.0888 -1.5991
 7316TIP3    H246144   3.133   5.760   2.085 -0.8958  1.2650 -3.1846
 7317TIP3   OH246145   4.367   0.863   4.264  0.5952 -0.1419  0.3552
 7317TIP3    H146146   4.430   0.828   4.327  0.1598 -4.3990 -1.2131
 7317TIP3    H246147   4.282   0.829   4.292  0.1883 -0.9337 -1.6259
 7318TIP3   OH246148   3.049   0.544   4.560 -0.2367  0.7403 -0.1865
 7318TIP3    H146149   3.008   0.555   4.645  3.2661 -0.7368  1.9028
 7318TIP3    H246150   3.120   0.608   4.559  0.3103  0.1681 -1.6374
 7319TIP3   OH246151   0.272   6.723   3.765  0.1900 -0.1989  0.2247
 7319TIP3    H146152   0.329   6.646   3.770  1.1518  0.3999 -1.0828
 7319TIP3    H246153   0.317   6.790   3.815  0.1818  0.0070 -0.0426
 7320TIP3   OH246154   0.856   2.994   5.198  0.2845 -0.1436 -0.3561
 7320TIP3    H146155   0.776   2.955   5.163 -0.3801 -0.8861  1.8544
 7320TIP3    H246156   0.926   2.957   5.144 -0.6526 -1.4685 -0.7078
 7321TIP3   OH246157   1.188   0.554   2.387  0.2125 -0.3192  0.5582
 7321TIP3    H146158   1.181   0.596   2.302  2.4532 -2.2236 -0.6720
 7321TIP3    H246159   1.255   0.603   2.433  0.7821 -0.7775  0.2304
 7322TIP3   OH246160   4.358   5.298   2.619 -0.2372  0.5687 -0.5212
 7322TIP3    H146161   4.411   5.344   2.684 -0.5711 -0.9858  0.9160
 7322TIP3    H246162   4.392   5.329   2.535  1.7774  0.9176  0.3533
 7323TIP3   OH246163   4.308   6.391   3.596 -0.6249 -0.2386 -0.0945
 7323TIP3    H146164   4.251   6.321   3.629 -0.8133  0.1455  0.3996
 7323TIP3    H246165   4.274   6.410   3.508 -1.6376  0.3876  0.4162
 7324TIP3   OH246166   0.352   5.544   4.638 -0.0968  0.9282 -0.2357
 7324TIP3    H146167   0.322   5.477   4.577  0.1747  0.3922  0.2059
 7324TIP3    H246168   0.441   5.516   4.662  0.7174  2.3833 -1.3861
 7325TIP3   OH246169   6.358   6.235   4.115  0.4652  0.4047 -0.0080
 7325TIP3    H146170   6.369   6.257   4.022  0.1433 -1.1015 -0.4298
 7325TIP3    H246171   6.282   6.286   4.143 -0.7539 -0.6789 -1.1668
 7326TIP3   OH246172   3.929   5.037   3.355 -0.3396  0.2970  0.3577
 7326TIP3    H146173   3.976   5.066   3.433 -1.3535  0.4460  0.9356
 7326TIP3    H246174   3.943   5.108   3.291  0.1884  0.3458  0.5218
 7327TIP3   OH246175   1.930   2.216   3.463  0.0142 -0.0888 -0.0353
 7327TIP3    H146176   1.882   2.160   3.402  0.2881  0.3271 -0.6469
 7327TIP3    H246177   1.898   2.304   3.444 -1.5240 -0.1586  1.9575
 7328TIP3   OH246178   2.656   5.427   4.262 -0.5929 -0.1711 -0.1359
 7328TIP3    H146179   2.596   5.500   4.271 -0.2441  0.3340 -1.6582
 7328TIP3    H246180   2.603   5.357   4.224 -0.6718 -0.3721  0.3362
 7329TIP3   OH246181   3.928   5.870   4.100 -0.1449  0.2075  0.3013
 7329TIP3    H146182   4.019   5.842   4.107  0.1449  1.2968  1.0324
 7329TIP3    H246183   3.903   5.845   4.011  0.8653 -0.1066  0.0869
 7330TIP3   OH246184   4.368   4.855   3.752  0.4421  0.0205 -0.1387
 7330TIP3    H146185   4.273   4.862   3.754  0.4495  0.0927  0.0291
 7330TIP3    H246186   4.391   4.818   3.837  0.4775 -1.1987 -0.6499
 7331TIP3   OH246187   6.271   2.182   2.800 -0.5488  0.1284 -0.4020
 7331TIP3    H146188   6.288   2.147   2.712 -0.2210 -0.3030 -0.1705
 7331TIP3    H246189   6.255   2.275   2.786 -0.3193  0.0967 -0.9014
 7332TIP3   OH246190   0.919   6.195   4.479  0.3404 -0.0414  0.3083
 7332TIP3    H146191   0.879   6.278   4.453  1.3207  0.4268  0.2435
 7332TIP3    H246192   0.966   6.165   4.401  0.2483 -0.4960  0.4251
 7333TIP3   OH246193   0.526   3.544   2.244 -0.7078  0.0519  0.4758
 7333TIP3    H146194   0.449   3.536   2.300 -0.5090  0.4766  0.8183
 7333TIP3    H246195   0.566   3.627   2.269 -0.6951  0.3198 -0.4118
 7334TIP3   OH246196   2.582   4.715   4.152  0.5080 -0.4830 -0.4563
 7334TIP3    H146197   2.643   4.642   4.151  1.1456 -0.1496  2.7326
 7334TIP3    H246198   2.496   4.674   4.141  0.8190 -1.8410  1.6301
 7335TIP3   OH246199   4.799   1.148   4.581 -0.5441 -0.2417 -0.2652
 7335TIP3    H146200   4.832   1.224   4.534  0.3074 -0.0564  0.6015
 7335TIP3    H246201   4.874   1.115   4.629 -0.8559 -1.7431 -0.7505
 7336TIP3   OH246202   5.261   3.135   2.016  0.3218 -0.0709 -0.1736
 7336TIP3    H146203   5.346   3.133   1.972  0.5165 -1.2005  0.2336
 7336TIP3    H246204   5.233   3.226   2.010  0.6658 -0.0449 -2.0201
 7337TIP3   OH246205   2.848   3.705   3.103  0.2431 -0.6601  0.5526
 7337TIP3    H146206   2.877   3.741   3.187 -0.5039  0.7237  0.2446
 7337TIP3    H246207   2.830   3.782   3.049  1.8470 -1.4945 -1.3147
 7338TIP3   OH246208   5.061   6.359   4.626 -0.4912 -0.0156 -0.1637
 7338TIP3    H146209   5.108   6.280   4.601 -0.7623  0.3136 -1.8686
 7338TIP3    H246210   5.128   6.416   4.665  0.0137 -0.4906 -0.3295
 7339TIP3   OH246211   4.987   1.715   3.608  0.1366  0.2585  0.6961
 7339TIP3    H146212   4.991   1.620   3.611 -0.5658  0.2412  1.9179
 7339TIP3    H246213   5.040   1.740   3.532 -1.7299 -1.2128 -1.2140
 7340TIP3   OH246214   1.820   4.080   2.015 -0.0410  0.3373 -0.1649
 7340TIP3    H146215   1.728   4.054   2.008 -0.1793  1.2420 -2.5099
 7340TIP3    H246216   1.869   3.998   2.004 -0.4989 -0.3804  2.4502
 7341TIP3   OH246217   1.945   2.507   4.924  0.0852  0.1071  0.3717
 7341TIP3    H146218   2.022   2.541   4.878  0.2621 -0.2566  0.3959
 7341TIP3    H246219   1.967   2.416   4.944  0.6539  0.6832  2.6106
 7342TIP3   OH246220   5.146   0.702   2.899 -0.3238  1.3215  0.1271
 7342TIP3    H146221   5.058   0.740   2.906  0.2650  2.7300  0.1499
 7342TIP3    H246222   5.194   0.742   2.972  0.9452  2.2809 -1.2035
 7343TIP3   OH246223   3.953   2.031   2.099  0.0626  0.3767  0.5093
 7343TIP3    H146224   3.982   2.116   2.133 -0.7005  0.2388  1.5675
 7343TIP3    H246225   3.938   2.046   2.006 -0.2549  1.4582  0.7216
 7344TIP3   OH246226   2.049   2.997   3.667 -0.0528  0.5166  0.2370
 7344TIP3    H146227   2.034   2.988   3.573  0.4793 -0.3978  0.2181
 7344TIP3    H246228   2.119   3.061   3.674 -0.1638  0.6635  0.0126
 7345TIP3   OH246229   1.105   3.793   3.941 -0.4718  0.6041  0.0499
 7345TIP3    H146230   1.118   3.698   3.932 -0.8220  0.5365  0.2095
 7345TIP3    H246231   1.145   3.815   4.025  0.5531  0.7879 -0.4803
 7346TIP3   OH246232   3.521   3.984   2.468  0.3114 -0.6212 -0.8939
 7346TIP3    H146233   3.544   4.004   2.377  1.4714 -1.0480 -0.6999
 7346TIP3    H246234   3.549   4.062   2.517  0.9532 -0.9572 -0.7194
 7347TIP3   OH246235   4.630   6.670   1.852 -0.1403 -0.8340  0.0382
 7347TIP3    H146236   4.720   6.645   1.836  0.0993 -0.5637  0.9077
 7347TIP3    H246237   4.629   6.765   1.842 -0.6010 -0.9418 -1.1702
 7348TIP3   OH246238   4.618   4.903   2.082 -0.1600  0.0970 -0.1369
 7348TIP3    H146239   4.707   4.879   2.055  0.2764  1.9471 -0.5450
 7348TIP3    H246240   4.614   4.997   2.065 -2.6080 -0.1514 -1.2516
 7349TIP3   OH246241   3.280   6.661   4.964 -0.1623 -0.1266 -0.3960
 7349TIP3    H146242   3.185   6.651   4.962 -0.3794  1.7258 -0.9023
 7349TIP3    H246243   3.295   6.753   4.984  1.5173 -0.1798 -1.1844
 7350TIP3   OH246244   4.830   2.177   4.866 -0.1623  0.0151  0.3863
 7350TIP3    H146245   4.830   2.188   4.961  0.2108  0.1729  0.3675
 7350TIP3    H246246   4.740   2.149   4.846 -0.1984 -0.1759  0.7991
 7351TIP3   OH246247   4.600   6.684   4.184  0.7279 -0.2736  0.0489
 7351TIP3    H146248   4.525   6.682   4.125  1.8864  2.5765 -1.7470
 7351TIP3    H246249   4.661   6.619   4.148 -0.1104 -1.3454  0.4976
 7352TIP3   OH246250   0.503   0.798   3.249 -0.5073 -0.0106  0.2625
 7352TIP3    H146251   0.545   0.834   3.171  1.7686  0.1249  1.4672
 7352TIP3    H246252   0.549   0.716   3.265  0.4806  0.9098  2.5596
 7353TIP3   OH246253   2.600   0.901   4.456 -0.4906  0.4301 -0.2109
 7353TIP3    H146254   2.523   0.872   4.504 -0.0757 -0.9172 -0.3031
 7353TIP3    H246255   2.618   0.830   4.393  2.1344 -0.4794  1.3652
 7354TIP3   OH246256   1.178   2.890   3.899 -0.4137  0.3539  0.7480
 7354TIP3    H146257   1.259   2.858   3.939  0.2281  0.1317 -0.6677
 7354TIP3    H246258   1.152   2.819   3.839 -1.2844  0.7171  0.6887
 7355TIP3   OH246259   6.399   5.818   3.187 -0.5303  0.0598 -0.1111
 7355TIP3    H146260   6.397   5.836   3.281  0.6491 -3.0621  0.6285
 7355TIP3    H246261   6.490   5.833   3.161 -0.4239 -0.8336 -0.3016
 7356TIP3   OH246262   3.971   0.833   2.001  0.2881 -0.3762  0.4628
 7356TIP3    H146263   3.968   0.738   2.016 -0.0217 -0.2726  1.0810
 7356TIP3    H246264   4.017   0.842   1.918 -0.2094 -1.1032  0.0929
 7357TIP3   OH246265   3.953   2.463   2.352  0.1925 -0.4070 -0.4296
 7357TIP3    H146266   3.974   2.522   2.280  0.7731 -0.2418 -0.1310
 7357TIP3    H246267   4.026   2.472   2.413 -0.5692 -0.0751  0.4669
 7358TIP3   OH246268   5.984   6.572   3.558  0.2707  0.6159  0.0295
 7358TIP3    H146269   6.060   6.605   3.510  0.7968 -0.0698  0.3653
 7358TIP3    H246270   5.922   6.545   3.489  0.7330  0.2844 -0.2688
 7359TIP3   OH246271   0.163   3.376   2.250 -0.1885 -0.4173  0.0268
 7359TIP3    H146272   0.163   3.455   2.304  0.0551  0.1006 -0.7259
 7359TIP3    H246273   0.253   3.345   2.253 -0.2102 -0.4795  0.0449
 7360TIP3   OH246274   1.738   3.945   2.681 -0.5104  0.8045  0.4752
 7360TIP3    H146275   1.812   3.999   2.654 -0.2423 -0.0920 -0.6873
 7360TIP3    H246276   1.665   4.006   2.691 -0.6008  1.2519 -2.2464
 7361TIP3   OH246277   4.343   5.575   3.654  0.2655 -0.0661 -0.1025
 7361TIP3    H146278   4.253   5.598   3.676  0.1548  1.0971 -1.6299
 7361TIP3    H246279   4.392   5.589   3.735 -0.6944  0.6470  0.3661
 7362TIP3   OH246280   5.935   5.619   3.818 -0.5005  0.5004  0.2217
 7362TIP3    H146281   5.872   5.557   3.780  1.5274  0.0441 -2.7553
 7362TIP3    H246282   6.013   5.565   3.836 -0.6445  1.1384  3.3250
 7363TIP3   OH246283   3.894   0.258   2.217  0.6873 -0.5873  0.0856
 7363TIP3    H146284   3.933   0.171   2.221  0.0539 -0.8839 -0.1489
 7363TIP3    H246285   3.928   0.303   2.294 -1.2984 -2.0180  1.9230
 7364TIP3   OH246286   0.431   1.707   5.326 -0.0818 -0.0352 -0.0711
 7364TIP3    H146287   0.337   1.692   5.319  0.2020 -1.3684 -1.5886
 7364TIP3    H246288   0.470   1.620   5.328  1.1625  0.4942 -0.0278
 7365TIP3   OH246289   2.344   4.843   4.705 -0.3059  0.0389 -0.1671
 7365TIP3    H146290   2.410   4.783   4.741  0.0115  0.7545  0.4522
 7365TIP3    H246291   2.356   4.836   4.610 -1.8429 -2.6617 -0.2637
 7366TIP3   OH246292   5.749   4.668   3.940 -0.0546  0.2583  0.6181
 7366TIP3    H146293   5.676   4.692   3.883 -0.4531  1.2383  1.5205
 7366TIP3    H246294   5.819   4.729   3.917  0.5793 -0.7954 -0.3746
 7367TIP3   OH246295   5.900   0.159   4.759 -0.6080 -0.0044  0.6060
 7367TIP3    H146296   5.804   0.169   4.756 -0.7864 -1.2031  1.4074
 7367TIP3    H246297   5.915   0.097   4.830  0.8570  1.0746  1.3032
 7368TIP3   OH246298   3.501   3.512   2.593  0.3030 -0.1744 -0.4828
 7368TIP3    H146299   3.575   3.499   2.533 -0.1302  1.1123 -1.3346
 7368TIP3    H246300   3.535   3.570   2.661  0.3554 -0.3864 -0.3275
 7369TIP3   OH246301   6.770   6.472   4.219  0.6418 -0.3922 -0.6793
 7369TIP3    H146302   6.817   6.494   4.300 -0.3812 -0.1302 -0.1474
 7369TIP3    H246303   6.690   6.429   4.248  0.2337 -0.2395 -1.5502
 7370TIP3   OH246304   1.287   2.879   4.249 -0.0806 -0.0830 -0.3501
 7370TIP3    H146305   1.210   2.930   4.223 -1.7298 -2.0347  0.4415
 7370TIP3    H246306   1.342   2.941   4.296 -0.5425  1.6646 -1.9702
 7371TIP3   OH246307   2.057   0.376   3.574 -0.3630  0.7051 -0.1735
 7371TIP3    H146308   2.021   0.340   3.655  0.5892  1.8279  0.7844
 7371TIP3    H246309   1.983   0.421   3.533 -0.7764  0.4053  0.2308
 7372TIP3   OH246310   6.210   5.688   3.975 -0.0870  0.1430  0.5918
 7372TIP3    H146311   6.268   5.674   4.049 -0.3513  0.0454  0.7811
 7372TIP3    H246312   6.268   5.712   3.903  0.2856 -1.0028  0.4972
 7373TIP3   OH246313   1.983   6.461   3.618 -0.0840 -0.7389  0.8144
 7373TIP3    H146314   2.053   6.453   3.553 -0.3299  1.2216  0.2507
 7373TIP3    H246315   1.907   6.422   3.576 -1.3941  4.0524 -2.0494
 7374TIP3   OH246316   6.380   3.428   3.678  0.1632 -0.2176 -0.5066
 7374TIP3    H146317   6.463   3.406   3.720  1.0762 -0.0772 -2.1621
 7374TIP3    H246318   6.404   3.483   3.603 -1.1983 -1.8917 -2.2727
 7375TIP3   OH246319   0.236   1.511   2.358  0.0149  0.3545 -0.0531
 7375TIP3    H146320   0.297   1.497   2.285 -0.2303 -0.3829 -0.1256
 7375TIP3    H246321   0.264   1.593   2.398  2.4467 -1.0286  1.2762
 7376TIP3   OH246322   0.787   4.354   3.277  0.3692 -0.1613  0.3619
 7376TIP3    H146323   0.798   4.334   3.184  2.3830  0.1471  0.4820
 7376TIP3    H246324   0.832   4.283   3.323 -0.3513 -0.1583  1.0894
 7377TIP3   OH246325   3.677   2.059   2.471  0.1026 -0.2588  0.1356
 7377TIP3    H146326   3.687   2.154   2.462  0.2527 -0.1437  1.4209
 7377TIP3    H246327   3.762   2.024   2.447 -0.6227 -0.2912 -2.7956
 7378TIP3   OH246328   1.074   6.632   4.195  0.5082  0.1629 -0.1032
 7378TIP3    H146329   1.021   6.631   4.115 -0.3564 -0.1736  0.4511
 7378TIP3    H246330   1.154   6.678   4.171 -0.2426  1.1333 -0.8554
 7379TIP3   OH246331   4.669   0.272   3.880  0.1916 -0.6144 -0.3184
 7379TIP3    H146332   4.656   0.342   3.816  0.5989 -0.1800  0.0653
 7379TIP3    H246333   4.668   0.316   3.965  0.8762 -1.0034 -0.0944
 7380TIP3   OH246334   1.559   3.352   2.986  0.6276 -0.2529  0.3191
 7380TIP3    H146335   1.590   3.278   3.039  0.6532  0.1921  0.9364
 7380TIP3    H246336   1.504   3.402   3.045  1.1562  0.5934  0.1132
 7381TIP3   OH246337   2.085   1.672   5.208  0.3087  0.2335 -0.2468
 7381TIP3    H146338   2.089   1.577   5.194  2.2178  0.3674 -0.7971
 7381TIP3    H246339   2.066   1.681   5.301  0.9397 -0.6887 -0.0156
 7382TIP3   OH246340   6.010   4.148   2.504 -0.1043  0.0439 -0.4499
 7382TIP3    H146341   6.009   4.113   2.593  0.8455 -0.8424 -0.7723
 7382TIP3    H246342   6.095   4.190   2.496 -0.3288  0.4232 -0.8261
 7383TIP3   OH246343   4.669   2.900   3.673  0.2508  0.3035 -0.2289
 7383TIP3    H146344   4.686   2.806   3.681 -1.3542 -0.0292 -0.5104
 7383TIP3    H246345   4.700   2.936   3.756 -0.5326 -0.7045  0.5346
 7384TIP3   OH246346   2.500   1.693   4.504  0.3132  0.6427 -0.0085
 7384TIP3    H146347   2.468   1.603   4.497  0.4763  0.6684 -1.4009
 7384TIP3    H246348   2.512   1.707   4.598 -1.6204 -0.1025  0.4085
 7385TIP3   OH246349   1.713   0.266   2.965  0.3237  0.0666  0.0745
 7385TIP3    H146350   1.713   0.171   2.952  0.6096 -0.0749  1.0172
 7385TIP3    H246351   1.631   0.285   3.011 -0.6779  0.5564 -1.8188
 7386TIP3   OH246352   0.896   0.722   2.042 -0.3779 -0.5400 -0.6433
 7386TIP3    H146353   0.862   0.686   1.961 -0.2639  0.7785 -1.3017
 7386TIP3    H246354   0.818   0.745   2.093 -0.4743  0.1959 -1.1090
 7387TIP3   OH246355   6.410   5.349   3.574 -0.1308 -0.1464 -0.1172
 7387TIP3    H146356   6.456   5.273   3.537 -0.5302 -0.7920  0.6743
 7387TIP3    H246357   6.458   5.425   3.541  0.4545 -0.7528 -0.6879
 7388TIP3   OH246358   0.139   2.714   3.387 -0.3735 -0.4512  0.0421
 7388TIP3    H146359   0.183   2.659   3.322  0.3342 -0.5090  0.5548
 7388TIP3    H246360   0.140   2.802   3.348 -1.0962 -0.7108 -0.5771
 7389TIP3   OH246361   6.697   5.411   4.493 -0.4427 -0.3496  0.1460
 7389TIP3    H146362   6.688   5.345   4.424 -0.6616 -1.9528  1.6441
 7389TIP3    H246363   6.645   5.486   4.461 -1.7379 -1.5826 -0.7722
 7390TIP3   OH246364   3.841   4.161   2.260 -0.0179  0.4607  0.6464
 7390TIP3    H146365   3.897   4.196   2.330 -0.6370 -2.2914  2.6921
 7390TIP3    H246366   3.900   4.106   2.208 -0.4511 -1.3422  1.9803
 7391TIP3   OH246367   1.706   2.091   3.644  0.4042 -0.3144  0.7309
 7391TIP3    H146368   1.711   2.027   3.573  1.0473  0.1887  0.3130
 7391TIP3    H246369   1.647   2.159   3.611 -1.4146 -1.3415  1.7203
 7392TIP3   OH246370   3.393   3.409   2.990 -0.1322  0.4740 -0.4323
 7392TIP3    H146371   3.452   3.353   2.939 -1.0285 -1.0145  0.0917
 7392TIP3    H246372   3.435   3.495   2.989  0.1195  0.4129 -3.2658
 7393TIP3   OH246373   6.685   2.737   4.901  0.0250 -0.1822  0.0036
 7393TIP3    H146374   6.663   2.645   4.886 -0.9177  0.0666 -0.2212
 7393TIP3    H246375   6.693   2.745   4.996  2.8491 -1.0698 -0.0543
 7394TIP3   OH246376   0.811   1.162   3.224  0.1898  0.4409 -0.1777
 7394TIP3    H146377   0.800   1.157   3.319  0.4491 -1.3552 -0.2054
 7394TIP3    H246378   0.721   1.167   3.190  0.1218  2.2011  0.1664
 7395TIP3   OH246379   0.922   3.337   4.469  0.1000 -0.4309 -0.3676
 7395TIP3    H146380   0.979   3.352   4.545 -0.1739 -1.5569  0.0790
 7395TIP3    H246381   0.964   3.265   4.421 -0.3870 -0.5687 -0.5974
 7396TIP3   OH246382   0.236   3.698   3.094 -0.1892  0.3239 -0.3916
 7396TIP3    H146383   0.196   3.772   3.049 -1.5096  0.2819  0.6466
 7396TIP3    H246384   0.193   3.695   3.180  0.0457 -1.4561 -0.2805
 7397TIP3   OH246385   3.477   5.146   4.603 -0.2915 -0.0393  0.3691
 7397TIP3    H146386   3.408   5.097   4.558 -0.1024 -0.8840  0.9734
 7397TIP3    H246387   3.479   5.231   4.559 -1.1875 -0.2811 -0.1591
 7398TIP3   OH246388   6.594   6.514   1.941 -0.2950 -0.3187 -0.4603
 7398TIP3    H146389   6.604   6.550   1.852  1.3082 -0.8720 -0.5441
 7398TIP3    H246390   6.662   6.447   1.947 -0.9961 -0.9412  0.8761
 7399TIP3   OH246391   4.103   2.724   4.115 -0.3771  0.0117 -0.3763
 7399TIP3    H146392   4.092   2.802   4.060  0.7078  0.7301  0.3877
 7399TIP3    H246393   4.154   2.664   4.061 -1.0725 -0.1120 -0.9061
 7400TIP3   OH246394   5.842   4.582   2.090  0.3894  0.6117 -0.2194
 7400TIP3    H146395   5.884   4.621   2.014  1.4601 -1.1253 -0.5790
 7400TIP3    H246396   5.906   4.520   2.124 -0.7746  0.0124  0.9871
 7401TIP3   OH246397   6.712   0.811   4.032 -0.3815  0.0380 -0.6228
 7401TIP3    H146398   6.740   0.722   4.012  2.2258  0.7916 -0.6831
 7401TIP3    H246399   6.743   0.864   3.958  0.7216  1.3881  0.7336
 7402TIP3   OH246400   2.568   5.155   3.813 -0.5166  0.4346  0.7407
 7402TIP3    H146401   2.611   5.239   3.799 -1.2697  0.7698  0.3948
 7402TIP3    H246402   2.475   5.172   3.799 -0.5720 -0.7339 -0.5941
 7403TIP3   OH246403   4.055   0.401   5.484  0.6487 -0.1224  0.1648
 7403TIP3    H146404   4.107   0.481   5.479  0.6681 -0.0434  1.3499
 7403TIP3    H246405   4.036   0.379   5.393  3.7306 -0.8225 -0.4006
 7404TIP3   OH246406   0.004   0.727   4.319 -0.1066 -0.3563  0.0078
 7404TIP3    H146407   0.072   0.661   4.304  0.8904  0.7151 -0.3673
 7404TIP3    H246408  -0.012   0.765   4.232 -0.7943 -0.2201  0.1872
 7405TIP3   OH246409   2.434   4.404   5.741 -0.5770 -0.1510  0.6200
 7405TIP3    H146410   2.439   4.466   5.669 -0.2935 -1.2266 -0.3063
 7405TIP3    H246411   2.351   4.425   5.785 -1.3358 -0.2338 -0.7291
 7406TIP3   OH246412   0.504   2.027   4.598  0.1961  0.0409  0.2496
 7406TIP3    H146413   0.569   2.057   4.662 -0.5845  1.0073  0.6067
 7406TIP3    H246414   0.553   1.966   4.542  1.1914  0.0866  1.0300
 7407TIP3   OH246415   1.267   4.554   1.896  0.6865  0.0606  0.5538
 7407TIP3    H146416   1.205   4.561   1.824  0.0831  0.0288  1.0662
 7407TIP3    H246417   1.328   4.627   1.882  0.5045  0.1295  0.0886
 7408TIP3   OH246418   1.629   3.692   3.167  0.3426  0.4172  0.5547
 7408TIP3    H146419   1.699   3.708   3.102  0.1465  3.2681  0.9175
 7408TIP3    H246420   1.562   3.644   3.118  0.2782  2.3230 -1.4043
 7409TIP3   OH246421   3.003   4.845   3.760  0.4104 -0.5810 -0.1636
 7409TIP3    H146422   3.016   4.766   3.708 -1.1421 -0.3461 -0.9603
 7409TIP3    H246423   2.910   4.865   3.751  1.0632  2.4136 -1.5591
 7410TIP3   OH246424   3.781   3.871   5.309 -0.2072 -0.3762  0.6469
 7410TIP3    H146425   3.835   3.948   5.322 -1.4827  0.5353  0.7210
 7410TIP3    H246426   3.804   3.839   5.221 -1.0860  1.2986 -0.2437
 7411TIP3   OH246427   1.200   2.254   2.380  0.5276  0.3908  0.3866
 7411TIP3    H146428   1.137   2.197   2.335  2.0863 -0.6199 -0.6110
 7411TIP3    H246429   1.221   2.322   2.316  0.7027  0.5421  0.6033
 7412TIP3   OH246430   2.344   6.766   4.403  0.2519  0.0391 -0.2497
 7412TIP3    H146431   2.301   6.684   4.378  2.1598 -0.7359 -1.2226
 7412TIP3    H246432   2.348   6.817   4.322 -0.2024  0.7730  0.1762
 7413TIP3   OH246433   2.590   2.475   3.487 -0.2514 -0.8581  0.4094
 7413TIP3    H146434   2.617   2.388   3.516  0.8802 -0.8355 -0.4927
 7413TIP3    H246435   2.564   2.462   3.395  0.8394 -0.0863 -0.0182
 7414TIP3   OH246436   3.864   2.446   3.417 -0.2910  0.2049  0.0279
 7414TIP3    H146437   3.945   2.459   3.368  0.4412 -2.1222  0.5025
 7414TIP3    H246438   3.883   2.480   3.505 -0.2417  0.7391 -0.1879
 7415TIP3   OH246439   6.176   6.257   2.319 -0.1333  0.0862 -0.3182
 7415TIP3    H146440   6.203   6.253   2.227 -0.7627 -0.4847 -0.4892
 7415TIP3    H246441   6.156   6.166   2.342  0.7627  0.1185  0.6217
 7416TIP3   OH246442   6.310   0.949   3.162  0.0865  0.2584  0.2256
 7416TIP3    H146443   6.226   0.962   3.120 -0.7992 -2.6179  0.9232
 7416TIP3    H246444   6.290   0.902   3.243  2.2122  1.2505  1.4316
 7417TIP3   OH246445   1.955   4.371   2.360 -0.1907  0.4701  0.6215
 7417TIP3    H146446   2.028   4.343   2.305 -1.3718 -1.3768 -0.0953
 7417TIP3    H246447   1.893   4.298   2.357 -1.9120  1.8156  1.5026
 7418TIP3   OH246448   6.104   5.906   4.607 -0.1170 -0.0611  0.0113
 7418TIP3    H146449   6.114   5.994   4.644  0.2763 -0.4695  0.9003
 7418TIP3    H246450   6.018   5.876   4.639 -0.1492 -0.0935 -0.1031
 7419TIP3   OH246451   5.110   2.989   3.077  0.5117 -0.5138 -0.1735
 7419TIP3    H146452   5.087   2.898   3.098 -1.6855  0.2142  0.8584
 7419TIP3    H246453   5.047   3.014   3.010 -0.0218  0.7553  0.7733
 7420TIP3   OH246454   6.064   1.046   2.594  0.1036 -0.1584 -0.0406
 7420TIP3    H146455   6.137   1.090   2.638  1.2531 -0.8132 -1.2192
 7420TIP3    H246456   6.066   0.957   2.629  2.3969 -1.3591 -2.7534
 7421TIP3   OH246457   2.108   3.521   2.774  0.7236  0.1416  0.5999
 7421TIP3    H146458   2.092   3.478   2.690  0.9833  0.3143  0.4620
 7421TIP3    H246459   2.115   3.614   2.752  2.4385  0.0420  0.5756
 7422TIP3   OH246460   4.145   6.362   4.415 -0.1198 -0.3710 -0.3712
 7422TIP3    H146461   4.111   6.274   4.399 -0.8780 -0.0727 -0.4064
 7422TIP3    H246462   4.072   6.410   4.454  0.7427 -0.1934  1.1341
 7423TIP3   OH246463   2.743   4.220   4.275 -0.0431 -0.1418  0.3443
 7423TIP3    H146464   2.700   4.294   4.318  0.9590  1.0249 -0.6060
 7423TIP3    H246465   2.784   4.172   4.346 -0.8109  0.1357  0.9912
 7424TIP3   OH246466   3.209   0.716   3.671 -0.3090  0.7595 -0.0131
 7424TIP3    H146467   3.142   0.685   3.732  0.1493  0.0530  0.1444
 7424TIP3    H246468   3.260   0.637   3.649 -2.3987  0.2349 -3.8335
 7425TIP3   OH246469   5.057   0.713   4.109 -0.7172  0.1209 -0.1172
 7425TIP3    H146470   5.114   0.648   4.149  0.1285  0.0915 -1.3310
 7425TIP3    H246471   4.982   0.663   4.076 -0.1589 -0.2296 -0.8815
 7426TIP3   OH246472   1.596   4.519   2.210  0.3415  0.0576 -0.3014
 7426TIP3    H146473   1.666   4.455   2.222  0.2320 -0.0030  0.0109
 7426TIP3    H246474   1.519   4.480   2.252  0.0081 -0.0677 -1.0101
 7427TIP3   OH246475   1.033   5.128   3.740 -0.2745 -0.4946  0.5789
 7427TIP3    H146476   1.022   5.050   3.795  2.0607 -0.3702  1.3484
 7427TIP3    H246477   1.114   5.168   3.772  0.1563  0.6526 -1.7316
 7428TIP3   OH246478   2.763   4.894   3.626 -0.4175 -0.2044  0.3530
 7428TIP3    H146479   2.796   4.959   3.564  2.1750 -1.8662 -0.1775
 7428TIP3    H246480   2.670   4.886   3.606 -0.2867  1.5268 -1.1942
 7429TIP3   OH246481   2.320   0.426   3.493  0.2069 -0.3072 -0.5358
 7429TIP3    H146482   2.231   0.415   3.528  0.3322  0.8619  0.2080
 7429TIP3    H246483   2.314   0.397   3.402 -1.1213  0.4719 -0.7163
 7430TIP3   OH246484   6.736   2.220   2.294 -0.4117 -0.1042 -0.0730
 7430TIP3    H146485   6.804   2.265   2.344 -0.9949  1.8014 -0.8726
 7430TIP3    H246486   6.698   2.289   2.239 -2.1279 -1.3767 -0.5660
 7431TIP3   OH246487   2.853   1.108   4.282  0.2346 -0.2631  0.4903
 7431TIP3    H146488   2.784   1.048   4.254 -1.2575  0.7390  1.8902
 7431TIP3    H246489   2.909   1.117   4.204 -2.1519  0.2042 -1.2835
 7432TIP3   OH246490   4.886   6.272   2.208 -0.0684 -0.2888  0.1047
 7432TIP3    H146491   4.899   6.353   2.257 -2.4657  0.4377 -0.3019
 7432TIP3    H246492   4.898   6.202   2.272  0.6811  0.4556  0.7887
 7433TIP3   OH246493   3.026   5.823   4.229 -0.3412 -0.2485  0.3325
 7433TIP3    H146494   3.027   5.798   4.322  1.5917 -1.8155 -0.0405
 7433TIP3    H246495   3.002   5.743   4.183 -0.8427  0.3971 -0.5523
 7434TIP3   OH246496   4.164   5.892   2.884  0.0248  0.2710 -0.1535
 7434TIP3    H146497   4.096   5.877   2.819  0.5641 -0.0461 -0.6551
 7434TIP3    H246498   4.208   5.808   2.893  1.1355  0.7648 -0.7544
 7435TIP3   OH246499   3.205   0.527   4.312 -0.3491  0.4110  0.1142
 7435TIP3    H146500   3.155   0.521   4.231 -1.5510 -0.3813  0.8686
 7435TIP3    H246501   3.143   0.500   4.380  0.1911  2.3836  1.4852
 7436TIP3   OH246502   3.499   4.827   3.724  0.0747  0.4709  0.0698
 7436TIP3    H146503   3.591   4.845   3.745  0.0695  1.1706 -0.4634
 7436TIP3    H246504   3.450   4.892   3.773 -0.2168 -0.4958  1.1023
 7437TIP3   OH246505   5.247   1.582   2.855 -0.2586  0.1571 -0.0444
 7437TIP3    H146506   5.216   1.645   2.920 -1.5175 -1.0691  0.6117
 7437TIP3    H246507   5.191   1.505   2.868 -0.6908 -0.0760 -2.6882
 7438TIP3   OH246508   6.629   1.202   3.252 -0.0700  0.2129 -0.0903
 7438TIP3    H146509   6.681   1.171   3.326  0.5471 -0.0601 -0.6169
 7438TIP3    H246510   6.572   1.269   3.288  0.3709  0.2293  0.5931
 7439TIP3   OH246511   0.796   4.887   5.122 -0.0633 -0.0216  0.0153
 7439TIP3    H146512   0.861   4.874   5.191 -1.1660  0.1878  1.1245
 7439TIP3    H246513   0.736   4.952   5.157 -0.9132 -0.2563 -0.9553
 7440TIP3   OH246514   3.958   3.581   3.133  0.1371 -0.0307  0.0055
 7440TIP3    H146515   3.944   3.497   3.090 -0.4413  0.5928 -1.0602
 7440TIP3    H246516   3.981   3.558   3.223 -0.2212 -1.3227 -0.2115
 7441TIP3   OH246517   3.322   0.121   2.287  0.2480 -1.0706 -0.3642
 7441TIP3    H146518   3.349   0.058   2.219  0.1466 -0.5370 -0.9094
 7441TIP3    H246519   3.386   0.192   2.279 -0.8289 -0.1595 -1.1269
 7442TIP3   OH246520   1.813   2.172   4.765 -0.0559  0.2243  0.4531
 7442TIP3    H146521   1.880   2.117   4.724  0.6540 -1.3213  3.4162
 7442TIP3    H246522   1.863   2.234   4.818 -0.9465  2.1035 -0.7838
 7443TIP3   OH246523   2.779   1.195   3.568 -0.2656  0.1868 -0.1542
 7443TIP3    H146524   2.812   1.256   3.635 -1.6544  0.9330 -0.1102
 7443TIP3    H246525   2.684   1.198   3.579 -0.4127 -1.0516 -1.0000
 7444TIP3   OH246526   1.797   5.006   3.725 -0.7297 -0.1561 -0.1764
 7444TIP3    H146527   1.755   5.032   3.643 -0.5225 -1.2588 -0.6623
 7444TIP3    H246528   1.891   5.017   3.708 -0.6318 -1.2421 -0.4294
 7445TIP3   OH246529   3.461   5.642   5.284  0.4136  0.0754 -0.6879
 7445TIP3    H146530   3.440   5.576   5.218  1.1445 -1.2000  0.2999
 7445TIP3    H246531   3.477   5.722   5.234 -1.1345 -0.3078 -1.8773
 7446TIP3   OH246532   6.101   3.343   2.106  0.0861 -0.4839 -0.0385
 7446TIP3    H146533   6.144   3.400   2.169 -1.8692  0.3539  0.5897
 7446TIP3    H246534   6.067   3.402   2.038  0.7525 -1.2272 -1.0648
 7447TIP3   OH246535   0.627   1.544   3.328  0.4633 -0.4465 -0.5692
 7447TIP3    H146536   0.601   1.629   3.363 -0.5544  0.7325 -3.8106
 7447TIP3    H246537   0.544   1.498   3.314  0.8927 -1.2087 -0.6318
 7448TIP3   OH246538   0.870   4.505   4.141  0.8331 -0.3179  0.0169
 7448TIP3    H146539   0.813   4.535   4.070  0.0966  0.2698  0.8255
 7448TIP3    H246540   0.949   4.559   4.134 -0.4257  1.8403  1.3810
 7449TIP3   OH246541   0.110   3.097   2.253  0.3678 -0.3181 -0.3161
 7449TIP3    H146542   0.117   3.191   2.236 -0.7015 -0.0055  0.8124
 7449TIP3    H246543   0.120   3.089   2.348 -1.0251 -1.1749 -0.2218
 7450TIP3   OH246544   4.251   2.000   1.936  0.0070  0.2670  0.0105
 7450TIP3    H146545   4.195   1.922   1.941 -0.8330  0.8558  0.0100
 7450TIP3    H246546   4.324   1.981   1.995 -0.5157 -0.2671  0.4976
 7451TIP3   OH246547   0.886   1.018   3.751 -0.4060 -0.5635 -0.3177
 7451TIP3    H146548   0.931   1.057   3.826 -0.3884  1.9067 -1.5376
 7451TIP3    H246549   0.945   0.947   3.723  1.5668  0.9792 -0.3365
 7452TIP3   OH246550   2.988   6.414   3.465 -0.3212  0.3004  0.1566
 7452TIP3    H146551   3.022   6.492   3.509  0.0538  0.5103 -0.4892
 7452TIP3    H246552   2.986   6.346   3.533  0.9855  0.3940  0.3118
 7453TIP3   OH246553   5.513   2.475   2.281 -0.0819  0.0138 -0.0959
 7453TIP3    H146554   5.488   2.554   2.233 -0.0137  0.5860  0.8038
 7453TIP3    H246555   5.465   2.405   2.237  1.1261  0.2912 -1.9730
 7454TIP3   OH246556   1.722   1.732   3.494 -0.2094 -0.1876  0.3473
 7454TIP3    H146557   1.806   1.758   3.532 -0.0092  1.0242 -0.8595
 7454TIP3    H246558   1.680   1.680   3.562  1.3510 -0.4911  1.1220
 7455TIP3   OH246559   6.543   3.445   4.770  0.0749 -0.6400 -0.1152
 7455TIP3    H146560   6.541   3.503   4.695  0.7906 -1.1453 -0.5433
 7455TIP3    H246561   6.492   3.489   4.837  0.6068  0.4802 -0.4294
 7456TIP3   OH246562   3.748   1.131   4.251  0.4113  0.1721  0.2857
 7456TIP3    H146563   3.728   1.222   4.230 -1.6302 -0.6402 -1.8222
 7456TIP3    H246564   3.721   1.121   4.342 -0.3665  1.4350  0.2203
 7457TIP3   OH246565   1.001   5.183   2.163 -0.3473  0.0660 -0.3392
 7457TIP3    H146566   1.009   5.088   2.169  0.8964  0.0589 -1.3764
 7457TIP3    H246567   0.908   5.200   2.168 -0.6615 -1.2922 -1.0147
 7458TIP3   OH246568   3.062   2.302   4.105 -0.6363  0.2367  0.0113
 7458TIP3    H146569   3.090   2.230   4.161  3.0571  1.5199  0.0581
 7458TIP3    H246570   2.994   2.347   4.156  0.6747 -0.2225  2.2800
 7459TIP3   OH246571   2.850   1.975   4.202 -0.6282  0.4370 -0.2520
 7459TIP3    H146572   2.942   1.990   4.183  0.2208 -1.9374  1.4142
 7459TIP3    H246573   2.819   2.057   4.239  1.4292  0.6911  1.0730
 7460TIP3   OH246574   3.589   5.153   2.329  0.0773  0.4559  0.0571
 7460TIP3    H146575   3.584   5.133   2.423 -1.1028 -0.1779 -0.1233
 7460TIP3    H246576   3.659   5.218   2.323 -0.2954  1.0476  1.4744
 7461TIP3   OH246577   3.217   6.077   2.471 -0.0118 -0.0303 -0.0593
 7461TIP3    H146578   3.175   6.006   2.520  0.5769 -0.5230 -0.2698
 7461TIP3    H246579   3.246   6.138   2.539 -2.6175  1.2359  0.0527
 7462TIP3   OH246580   5.753   5.395   2.339 -0.9366  0.4088 -0.2951
 7462TIP3    H146581   5.722   5.313   2.376 -0.4353 -0.2223 -1.2528
 7462TIP3    H246582   5.692   5.414   2.267 -0.5809  0.4583 -0.5873
 7463TIP3   OH246583   2.120   5.156   5.271  0.1110  0.2019 -0.7247
 7463TIP3    H146584   2.074   5.073   5.261 -0.7416  0.3918  1.2121
 7463TIP3    H246585   2.178   5.142   5.346  0.6962  1.0625 -0.9991
 7464TIP3   OH246586   5.353   1.005   2.327  0.5355  0.8556  0.2659
 7464TIP3    H146587   5.299   0.928   2.308 -0.5063  1.2233  1.6081
 7464TIP3    H246588   5.433   0.991   2.277 -0.6859  0.1753 -1.6057
 7465TIP3   OH246589   1.425   2.559   4.172  0.0308  0.0758  0.3719
 7465TIP3    H146590   1.517   2.561   4.146  0.0808  0.1230  0.5544
 7465TIP3    H246591   1.427   2.551   4.267 -0.1557 -0.5822  0.3220
 7466TIP3   OH246592   4.588   0.739   2.384  0.3191  0.5004  0.0369
 7466TIP3    H146593   4.493   0.723   2.386  0.2683  0.6988 -0.6973
 7466TIP3    H246594   4.596   0.831   2.359  0.7065  0.5064  0.1809
 7467TIP3   OH246595   6.647   6.570   3.680 -0.0763  0.0978  0.3358
 7467TIP3    H146596   6.633   6.545   3.772  2.7372 -0.9943  0.5397
 7467TIP3    H246597   6.725   6.624   3.682  0.4789 -0.5942 -1.5105
 7468TIP3   OH246598   6.797   5.886   5.627 -0.1437 -0.0501 -0.1838
 7468TIP3    H146599   6.711   5.927   5.614 -1.3493 -3.1054 -3.7813
 7468TIP3    H246600   6.790   5.840   5.711 -0.7738  2.2064  1.0870
 7469TIP3   OH246601   1.463   4.380   5.240  0.8957 -0.0902  0.5410
 7469TIP3    H146602   1.423   4.406   5.157  0.3976  2.4989  1.5106
 7469TIP3    H246603   1.389   4.355   5.295  0.9833  0.5585  0.9635
 7470TIP3   OH246604   1.311   4.164   5.453 -0.4671  0.2734  0.5447
 7470TIP3    H146605   1.218   4.189   5.459 -0.5002 -0.1036  1.7403
 7470TIP3    H246606   1.319   4.087   5.509  0.2556 -0.6544 -0.7753
 7471TIP3   OH246607   1.717   2.885   4.994  0.0744 -0.7424  0.3721
 7471TIP3    H146608   1.768   2.965   5.006  0.1482 -0.4962 -1.3410
 7471TIP3    H246609   1.631   2.905   5.029  0.1942 -0.0411  0.2670
 7472TIP3   OH246610   1.808   1.366   3.500  0.4815 -0.1898 -0.2528
 7472TIP3    H146611   1.900   1.388   3.484  0.1803  0.6695 -0.8758
 7472TIP3    H246612   1.760   1.413   3.432 -0.4287 -0.5594  0.1230
 7473TIP3   OH246613   3.608   2.255   4.392  0.2857 -0.4692  0.1316
 7473TIP3    H146614   3.535   2.317   4.390 -1.0174 -1.9755 -1.9377
 7473TIP3    H246615   3.674   2.293   4.334  0.1436 -0.2792  0.0947
 7474TIP3   OH246616   4.898   6.832   4.448  0.3220 -0.4924  0.0600
 7474TIP3    H146617   4.850   6.846   4.366 -0.2611 -0.9652  0.3127
 7474TIP3    H246618   4.891   6.738   4.464  0.8395 -0.4733  0.4061
 7475TIP3   OH246619   3.751   4.360   4.118  0.3116 -0.0024 -0.5288
 7475TIP3    H146620   3.691   4.434   4.129  0.1341 -0.0900 -0.8894
 7475TIP3    H246621   3.717   4.291   4.174 -0.2143 -0.2238 -1.1060
 7476TIP3   OH246622   3.703   3.718   1.920 -0.0066  0.2676 -0.2600
 7476TIP3    H146623   3.697   3.627   1.892  0.1391  0.4120 -0.7626
 7476TIP3    H246624   3.788   3.748   1.887  0.3430  0.3259  0.6696
 7477TIP3   OH246625   2.147   4.229   5.850  0.2763  0.4184  0.0195
 7477TIP3    H146626   2.171   4.321   5.842 -0.2029  0.4645 -1.0066
 7477TIP3    H246627   2.097   4.210   5.771  0.5359 -0.7768  0.1253
 7478TIP3   OH246628   5.857   4.934   1.935  0.1055 -0.0715 -0.2433
 7478TIP3    H146629   5.788   4.993   1.903  0.5952  0.4639 -0.3244
 7478TIP3    H246630   5.905   4.908   1.857  1.4448  1.4191  0.0504
 7479TIP3   OH246631   6.006   1.258  12.322 -0.0855  0.0482 -0.4299
 7479TIP3    H146632   6.092   1.276  12.360 -0.9669  0.8886  1.2667
 7479TIP3    H246633   5.997   1.163  12.329  0.1134  0.0982  0.7787
 7480TIP3   OH246634   4.879   4.353   4.821  0.2482 -0.1685  0.2149
 7480TIP3    H146635   4.905   4.399   4.901 -0.7926  0.9643 -0.0628
 7480TIP3    H246636   4.955   4.360   4.764 -0.0251  1.7094 -0.0062
 7481TIP3   OH246637   6.239   1.495   2.966 -0.7574 -0.0704 -0.5654
 7481TIP3    H146638   6.145   1.477   2.962 -0.5002 -1.7909  0.1161
 7481TIP3    H246639   6.278   1.413   2.996  0.8004  1.1784  1.0217
 7482TIP3   OH246640   6.064   1.870   3.991 -0.0621  0.3725 -0.0447
 7482TIP3    H146641   6.148   1.825   4.006  1.8094  3.7564  0.6281
 7482TIP3    H246642   6.035   1.895   4.079 -0.8280  0.8839 -0.4363
 7483TIP3   OH246643   2.656   5.337   2.948  0.3054 -0.0446 -0.0392
 7483TIP3    H146644   2.682   5.389   2.872  1.1426  0.8601  0.8390
 7483TIP3    H246645   2.737   5.294   2.977  0.3009  0.6772  1.1230
 7484TIP3   OH246646   6.789   5.456   3.670 -0.3835  0.0127 -0.4653
 7484TIP3    H146647   6.837   5.536   3.690  0.1280 -0.5216  0.5420
 7484TIP3    H246648   6.726   5.481   3.603 -2.0957  1.8978  1.7211
 7485TIP3   OH246649   6.753   2.013   2.095  0.0971  0.1608 -0.3773
 7485TIP3    H146650   6.790   2.025   2.008  1.5414  1.0844  0.3262
 7485TIP3    H246651   6.773   2.094   2.141 -1.3694  0.0111  0.5725
 7486TIP3   OH246652   4.041   1.337   2.885  0.5128 -0.1148 -0.7302
 7486TIP3    H146653   3.950   1.345   2.913  1.0275  1.1205  0.7525
 7486TIP3    H246654   4.088   1.308   2.963  1.5473  0.2640 -1.1906
 7487TIP3   OH246655   6.565   2.866   3.551 -0.5776 -0.2858 -1.1539
 7487TIP3    H146656   6.538   2.924   3.480  1.4932 -0.1426 -1.8989
 7487TIP3    H246657   6.661   2.866   3.547 -0.4062 -0.7784  1.2472
 7488TIP3   OH246658   4.983   1.372   2.261 -0.2302  0.2800  0.5995
 7488TIP3    H146659   4.956   1.390   2.351  0.5519  0.7712  0.7505
 7488TIP3    H246660   5.055   1.310   2.271  0.2236  0.7597  0.3510
 7489TIP3   OH246661   2.501   4.409   2.429 -0.1942  0.6168  0.1050
 7489TIP3    H146662   2.418   4.388   2.470  0.8434  1.2765  2.7337
 7489TIP3    H246663   2.490   4.500   2.399 -0.0509  1.1445  1.5841
 7490TIP3   OH246664   2.773   0.926   3.519 -0.2132  0.0540 -0.0916
 7490TIP3    H146665   2.777   1.012   3.562  0.2185 -0.0425  0.0684
 7490TIP3    H246666   2.761   0.946   3.426  2.2145  0.3747 -0.4068
 7491TIP3   OH246667   3.766   2.389   4.217  0.1293  0.5411  0.5200
 7491TIP3    H146668   3.779   2.467   4.271 -0.3020 -0.9135  2.8627
 7491TIP3    H246669   3.844   2.385   4.162  0.6821  2.0087  1.1521
 7492TIP3   OH246670   6.090   2.183   3.631  0.4278  0.2262  0.1404
 7492TIP3    H146671   6.061   2.117   3.568 -0.2502  0.5082  0.1496
 7492TIP3    H246672   6.138   2.247   3.579 -1.1795  1.1184 -0.3299
 7493TIP3   OH246673   0.100   2.788   4.818 -0.3704  0.3056  0.1658
 7493TIP3    H146674   0.014   2.747   4.806 -0.8676  0.7718  1.9219
 7493TIP3    H246675   0.133   2.754   4.901  1.3274 -0.1186 -0.6287
 7494TIP3   OH246676   5.948   3.896   2.730 -0.1408 -0.1167  0.3323
 7494TIP3    H146677   5.988   3.811   2.715  1.2316  0.4116  0.8355
 7494TIP3    H246678   5.863   3.891   2.686  0.6761 -1.1063 -1.2123
 7495TIP3   OH246679   6.237   1.592   3.811 -0.4551 -0.8461  0.5344
 7495TIP3    H146680   6.308   1.641   3.852  1.4789 -1.7564 -1.5438
 7495TIP3    H246681   6.175   1.576   3.883  1.0937  0.5212  2.2874
 7496TIP3   OH246682   2.721   2.128   2.966 -0.2667 -0.2389  0.3404
 7496TIP3    H146683   2.694   2.166   2.882 -0.6276 -0.9955  0.1097
 7496TIP3    H246684   2.777   2.054   2.943  0.0447 -0.1436  0.7789
 7497TIP3   OH246685   0.993   4.630   2.202 -0.1623  0.5276  0.5730
 7497TIP3    H146686   1.063   4.565   2.211 -1.4897 -0.9900  0.5005
 7497TIP3    H246687   0.975   4.658   2.292 -0.5980 -0.3692  0.7768
 7498TIP3   OH246688   1.373   1.883   2.387 -0.1544  0.0083 -0.2240
 7498TIP3    H146689   1.459   1.874   2.347  0.2164 -1.4240  0.8099
 7498TIP3    H246690   1.321   1.813   2.348 -0.5076  0.1324  0.0197
 7499TIP3   OH246691   1.968   3.527   3.042 -0.6689 -0.6645 -0.2085
 7499TIP3    H146692   2.049   3.484   3.013  0.1413  0.2707  0.5645
 7499TIP3    H246693   1.978   3.618   3.013  0.1160  0.2924  2.6838
 7500TIP3   OH246694   2.201   3.880   3.600 -0.1598 -0.4313  0.8373
 7500TIP3    H146695   2.206   3.919   3.687 -1.1708  0.0769  0.6818
 7500TIP3    H246696   2.126   3.923   3.559 -0.9209 -2.0813  0.4209
 7501TIP3   OH246697   1.046   5.617   4.893  0.0579 -0.2862  0.6120
 7501TIP3    H146698   1.132   5.653   4.874  0.0195 -0.0941  0.7860
 7501TIP3    H246699   1.004   5.684   4.947 -0.5636  0.0671 -0.2758
 7502TIP3   OH246700   0.841   3.891   3.893  0.0600 -0.2200 -0.7362
 7502TIP3    H146701   0.833   3.888   3.988 -1.4317 -1.5003 -0.8699
 7502TIP3    H246702   0.914   3.832   3.873  0.4613  0.1524 -0.4023
 7503TIP3   OH246703   4.410   6.385   2.588 -0.2756  0.1174  0.3622
 7503TIP3    H146704   4.410   6.366   2.682 -0.1884  0.9250  0.5331
 7503TIP3    H246705   4.365   6.310   2.548 -3.1271  1.1705  1.3612
 7504TIP3   OH246706   3.531   4.475   5.355  0.2543 -0.0238  0.4286
 7504TIP3    H146707   3.452   4.423   5.342 -1.0902  1.4694  2.1439
 7504TIP3    H246708   3.509   4.561   5.320  1.4002  0.2241  0.2722
 7505TIP3   OH246709   4.972   0.074   3.139  0.2184 -0.2119 -0.3593
 7505TIP3    H146710   4.876   0.076   3.136  0.2201 -0.7846 -1.3275
 7505TIP3    H246711   4.999   0.072   3.047  1.3114  3.7783 -0.2941
 7506TIP3   OH246712   4.249   4.555   5.703 -0.2941  0.0382 -0.6709
 7506TIP3    H146713   4.229   4.647   5.722 -1.7012 -0.7845  2.3780
 7506TIP3    H246714   4.342   4.556   5.678 -0.2618  2.2406 -0.6862
 7507TIP3   OH246715   6.754   2.878   2.606 -0.4080 -0.2863  0.2173
 7507TIP3    H146716   6.772   2.791   2.644 -1.5688 -0.0295  1.4589
 7507TIP3    H246717   6.702   2.922   2.673  1.8795  2.1535  0.5281
 7508TIP3   OH246718   0.850   6.216   2.918 -0.1487  0.3459  0.1081
 7508TIP3    H146719   0.807   6.179   2.841  0.8356  1.7657 -1.1876
 7508TIP3    H246720   0.895   6.294   2.886  0.9483  0.5634  1.9785
 7509TIP3   OH246721   1.585   4.327   3.579  0.0429  0.3808  0.2832
 7509TIP3    H146722   1.559   4.254   3.636  0.5012 -0.3497 -0.4239
 7509TIP3    H246723   1.600   4.400   3.639 -0.9728  0.0566  0.9506
 7510TIP3   OH246724   5.772   5.556   4.157  0.1309 -0.3091  0.0782
 7510TIP3    H146725   5.798   5.647   4.167  0.7615 -0.3788 -0.7759
 7510TIP3    H246726   5.778   5.539   4.063  2.2704 -1.8527  0.3989
 7511TIP3   OH246727   2.391   4.356   3.505  0.5616  0.0213 -0.1938
 7511TIP3    H146728   2.411   4.413   3.579 -0.3014 -0.0429  0.1006
 7511TIP3    H246729   2.326   4.294   3.538  1.1856 -0.8850 -0.6265
 7512TIP3   OH246730   1.932   3.831   2.035  0.5446 -0.0388  0.2986
 7512TIP3    H146731   2.003   3.770   2.016  0.7265 -0.3264  1.7925
 7512TIP3    H246732   1.854   3.775   2.041  0.2318  0.2235 -0.8936
 7513TIP3   OH246733   5.070   2.075   4.765 -0.0475 -0.1085  0.3590
 7513TIP3    H146734   4.991   2.127   4.783  0.2907  0.5894 -0.1359
 7513TIP3    H246735   5.077   2.016   4.840 -1.5654 -0.8458 -0.0448
 7514TIP3   OH246736   4.549   3.964   3.024 -0.5021  0.1120  0.1941
 7514TIP3    H146737   4.600   4.031   2.978 -1.1512  0.0524 -0.6336
 7514TIP3    H246738   4.459   3.977   2.994 -0.5803 -1.3955 -0.3154
 7515TIP3   OH246739   6.628   3.372   3.814 -0.3161 -0.0576 -0.0449
 7515TIP3    H146740   6.609   3.350   3.906 -0.3576 -1.4013 -0.3581
 7515TIP3    H246741   6.719   3.349   3.802 -0.0314  1.0333 -0.1011
 7516TIP3   OH246742   3.920   0.918   4.210 -0.1310 -0.2611 -0.2106
 7516TIP3    H146743   3.927   0.940   4.117  0.9513  0.1945 -0.0335
 7516TIP3    H246744   3.850   0.975   4.242 -0.7279 -0.6413 -0.8016
 7517TIP3   OH246745   5.585   5.178   3.761 -0.3603  0.2390 -0.0314
 7517TIP3    H146746   5.611   5.096   3.719 -0.9451  0.5057 -0.9280
 7517TIP3    H246747   5.512   5.210   3.709  0.3008  1.6911 -0.1203
 7518TIP3   OH246748   0.206   3.419   3.334 -0.4345  0.3122  0.0260
 7518TIP3    H146749   0.173   3.349   3.390  1.2379 -0.2237  0.4057
 7518TIP3    H246750   0.157   3.497   3.360 -0.8187 -0.2729  1.0920
 7519TIP3   OH246751   2.384   3.207   2.673 -0.2717  0.1893  0.5461
 7519TIP3    H146752   2.326   3.232   2.601 -0.3777  0.3489  0.6872
 7519TIP3    H246753   2.402   3.289   2.720  0.5451  0.2462  0.1596
 7520TIP3   OH246754   0.684   4.846   3.793  0.1545 -0.3041 -0.0455
 7520TIP3    H146755   0.598   4.829   3.755  0.7974  0.3833 -1.9308
 7520TIP3    H246756   0.708   4.765   3.837 -1.5413 -0.4225  0.7131
 7521TIP3   OH246757   0.997   2.622   2.357 -0.5374 -0.6736  0.2607
 7521TIP3    H146758   0.980   2.710   2.322 -1.6139 -0.3206  1.5781
 7521TIP3    H246759   1.050   2.637   2.435 -1.5408 -1.0899  1.0478
 7522TIP3   OH246760   5.445   2.563   4.516  0.0585  0.6693 -0.0108
 7522TIP3    H146761   5.484   2.545   4.601 -1.2869  4.3027  1.5693
 7522TIP3    H246762   5.447   2.478   4.470  3.1631 -0.8774  2.5578
 7523TIP3   OH246763   4.006   4.589   4.468  0.0541  0.6261  0.0165
 7523TIP3    H146764   4.014   4.592   4.564  1.5885  1.0879 -0.1106
 7523TIP3    H246765   4.071   4.525   4.441 -0.6795  0.1689 -0.7056
 7524TIP3   OH246766   3.018   0.009   2.030  0.0881  0.4699 -0.1235
 7524TIP3    H146767   3.077   0.075   1.993  0.3553  0.8673  0.9584
 7524TIP3    H246768   3.073  -0.069   2.041  0.2717  0.6559  0.3239
 7525TIP3   OH246769   5.183   6.356   2.998 -0.4750 -0.7392 -0.2988
 7525TIP3    H146770   5.174   6.390   2.909 -1.2888 -1.7973 -0.6424
 7525TIP3    H246771   5.143   6.423   3.054 -0.7759 -0.4815 -0.8215
 7526TIP3   OH246772   3.862   5.427   2.117 -0.5858 -0.8779 -0.5314
 7526TIP3    H146773   3.880   5.333   2.112 -1.2387 -0.9810 -1.0435
 7526TIP3    H246774   3.767   5.433   2.127 -0.5279 -0.2764 -0.3032
 7527TIP3   OH246775   2.535   1.463   5.073  0.0490  0.4762  0.2013
 7527TIP3    H146776   2.612   1.501   5.115  1.0653 -2.2963  1.0963
 7527TIP3    H246777   2.467   1.530   5.081  2.0107  2.5707  0.4260
 7528TIP3   OH246778   2.634   5.357   3.492 -0.6398 -0.1621  0.3513
 7528TIP3    H146779   2.568   5.317   3.435 -1.5827  1.5053  0.1940
 7528TIP3    H246780   2.642   5.447   3.460  0.9319 -0.0114  1.0719
 7529TIP3   OH246781   6.142   4.842   2.168 -0.0800  0.0504 -0.5520
 7529TIP3    H146782   6.165   4.816   2.257 -1.2681  0.6369 -0.0482
 7529TIP3    H246783   6.051   4.872   2.175  0.4577  2.0848 -1.5397
 7530TIP3   OH246784   1.972   3.872   3.189  0.8825 -0.2959  0.1683
 7530TIP3    H146785   2.040   3.828   3.138  0.2608 -0.2803 -0.6923
 7530TIP3    H246786   1.908   3.901   3.124  0.9541  1.3335  0.7634
 7531TIP3   OH246787   4.623   0.988   2.595  0.0184 -0.0272  0.0633
 7531TIP3    H146788   4.696   0.937   2.561  0.3374 -0.7326  1.7271
 7531TIP3    H246789   4.661   1.040   2.665 -0.8149  0.6389  0.0372
 7532TIP3   OH246790   1.327   3.300   4.624  0.0785 -0.1653 -0.5480
 7532TIP3    H146791   1.242   3.313   4.666 -0.6070  0.2404 -1.9900
 7532TIP3    H246792   1.340   3.379   4.571  2.5829  1.0021  1.5898
 7533TIP3   OH246793   1.812   3.334   2.860  0.5634 -0.2596 -0.2487
 7533TIP3    H146794   1.870   3.400   2.897  1.7332 -0.7881 -1.0839
 7533TIP3    H246795   1.724   3.365   2.881  1.1367  0.4359  1.2663
 7534TIP3   OH246796   6.459   2.992   3.953 -0.1038  0.2321  0.4374
 7534TIP3    H146797   6.406   3.070   3.940 -1.5528 -0.6608  0.8280
 7534TIP3    H246798   6.442   2.938   3.875  0.4615  0.0567  0.4277
 7535TIP3   OH246799   5.029   0.283   2.295 -0.2095 -0.6162 -0.3291
 7535TIP3    H146800   5.059   0.210   2.350 -2.3464 -1.0089  0.4144
 7535TIP3    H246801   4.942   0.256   2.265 -1.0095  1.5630 -0.1333
 7536TIP3   OH246802   3.946   2.566   4.921 -0.3777  0.1452  0.2423
 7536TIP3    H146803   3.869   2.549   4.974  0.2030 -1.1812  0.7081
 7536TIP3    H246804   4.019   2.564   4.983  0.0284  1.6131 -0.1519
 7537TIP3   OH246805   0.568   0.990   4.667  0.0896  0.3967 -0.7615
 7537TIP3    H146806   0.653   0.975   4.626 -0.1777  0.1883 -1.2372
 7537TIP3    H246807   0.507   0.936   4.618 -0.2202  0.0567 -0.0185
 7538TIP3   OH246808   0.424   5.932   3.193  0.3699 -0.3739  0.1553
 7538TIP3    H146809   0.472   5.854   3.165 -0.4774 -0.1078 -2.2498
 7538TIP3    H246810   0.348   5.898   3.240  2.3644 -0.8117  3.3732
 7539TIP3   OH246811   1.571   3.443   2.399 -0.4170  0.6855  0.2809
 7539TIP3    H146812   1.613   3.483   2.323 -2.5327 -0.7127 -1.7870
 7539TIP3    H246813   1.634   3.379   2.431  0.0901  0.5095 -1.0170
 7540TIP3   OH246814   5.015   5.600   4.451 -0.1250 -0.3996 -0.2121
 7540TIP3    H146815   4.943   5.540   4.469  0.7507 -0.6788  2.9913
 7540TIP3    H246816   5.094   5.546   4.452  0.5224  0.4997  1.1137
 7541TIP3   OH246817   3.337   1.534   4.508 -0.0001  0.9733 -0.2449
 7541TIP3    H146818   3.421   1.529   4.553 -0.2604  0.0704  0.1589
 7541TIP3    H246819   3.303   1.620   4.532 -0.3893  0.3063  1.7866
 7542TIP3   OH246820   3.958   2.044   4.924 -0.1650  0.0870  0.4218
 7542TIP3    H146821   4.007   2.102   4.983  0.1736  1.0756 -0.7728
 7542TIP3    H246822   4.007   2.049   4.841  0.8645 -3.2469  0.6908
 7543TIP3   OH246823   3.728   0.849   4.707 -0.2016 -0.3288 -0.0975
 7543TIP3    H146824   3.742   0.868   4.799 -1.1252 -0.6131  0.1160
 7543TIP3    H246825   3.662   0.779   4.707  0.1701 -0.6945 -0.9559
 7544TIP3   OH246826   3.377   4.220   5.540  0.4265  0.1942  0.1479
 7544TIP3    H146827   3.349   4.264   5.459  2.1877  0.1037 -0.5533
 7544TIP3    H246828   3.359   4.283   5.609  2.3344  1.8399 -0.7658
 7545TIP3   OH246829   3.017   5.158   4.593 -0.0969 -0.6488 -0.4331
 7545TIP3    H146830   2.968   5.095   4.646  0.2292 -0.6981 -0.1826
 7545TIP3    H246831   2.951   5.199   4.537 -0.4454 -0.6145 -0.0044
 7546TIP3   OH246832   5.699   3.159   3.383 -0.2920  0.3346  0.3558
 7546TIP3    H146833   5.783   3.130   3.419 -0.8196  0.2248  1.5690
 7546TIP3    H246834   5.684   3.244   3.424  0.3877  1.5345 -1.7797
 7547TIP3   OH246835   6.305   0.259   4.390  0.1247  0.0022  0.4092
 7547TIP3    H146836   6.300   0.164   4.394  0.9341 -0.0329  0.6917
 7547TIP3    H246837   6.381   0.282   4.443 -1.1272  0.9332  1.8965
 7548TIP3   OH246838   0.871   0.427   3.577 -0.8568  0.6254  0.1271
 7548TIP3    H146839   0.805   0.496   3.567 -1.2677  0.4511  1.5082
 7548TIP3    H246840   0.891   0.426   3.670  0.5931  0.1915 -0.1738
 7549TIP3   OH246841   4.549   1.427   4.713 -0.3809  0.1982 -0.1162
 7549TIP3    H146842   4.629   1.455   4.669 -0.3578 -0.8136 -0.7597
 7549TIP3    H246843   4.497   1.507   4.721  0.3793  0.7260 -0.3765
 7550TIP3   OH246844   6.725   1.128   2.835 -0.6370  0.1178  0.5591
 7550TIP3    H146845   6.762   1.040   2.831  0.7850  0.6831  0.4390
 7550TIP3    H246846   6.785   1.181   2.781 -1.1664  1.2459  1.0522
 7551TIP3   OH246847   4.267   0.669   3.359 -0.3978  0.1382  0.1824
 7551TIP3    H146848   4.311   0.731   3.301  0.6416 -0.0905  0.7048
 7551TIP3    H246849   4.243   0.596   3.301  1.8909 -0.7326  0.2245
 7552TIP3   OH246850   5.446   5.856   4.837 -0.1979  0.3320 -0.3828
 7552TIP3    H146851   5.473   5.884   4.749  1.6219 -2.5360 -0.8863
 7552TIP3    H246852   5.515   5.888   4.895 -0.1691  0.2258 -0.3579
 7553TIP3   OH246853   0.433   4.091   4.349 -0.3500 -0.6188  0.1872
 7553TIP3    H146854   0.527   4.077   4.356 -0.4689 -0.9910  1.0937
 7553TIP3    H246855   0.417   4.172   4.397 -0.4916 -0.5369  0.0042
 7554TIP3   OH246856   4.022   0.459   2.379  0.5423 -0.5254  0.1848
 7554TIP3    H146857   4.108   0.464   2.421  1.0057 -0.5500 -0.7504
 7554TIP3    H246858   3.994   0.550   2.372  0.7989 -0.4659 -0.1174
 7555TIP3   OH246859   3.646   4.516   3.155  0.0865  0.1227  0.5485
 7555TIP3    H146860   3.577   4.495   3.218 -0.5283  0.9913  0.1861
 7555TIP3    H246861   3.723   4.537   3.209  0.1234 -0.9751  0.9510
 7556TIP3   OH246862   4.876   2.793   4.163  0.4359  0.0688  0.4287
 7556TIP3    H146863   4.838   2.731   4.226 -2.0609  2.2922  1.2717
 7556TIP3    H246864   4.896   2.870   4.216 -1.8073  2.0480 -1.4204
 7557TIP3   OH246865   2.182   2.537   3.559 -0.1003 -0.3502 -0.1954
 7557TIP3    H146866   2.143   2.506   3.641 -0.8769 -0.6485 -0.6686
 7557TIP3    H246867   2.271   2.564   3.583  0.1872 -1.8170  0.4691
 7558TIP3   OH246868   3.212   2.022   2.561  0.0217 -0.2657 -0.2519
 7558TIP3    H146869   3.237   1.930   2.571  1.0267 -0.1643 -1.5962
 7558TIP3    H246870   3.191   2.031   2.468  0.6812  1.0323 -0.2958
 7559TIP3   OH246871   2.878   2.370   2.094  0.5625 -0.3819 -0.5601
 7559TIP3    H146872   2.859   2.387   2.001  3.5417 -0.3861 -1.2808
 7559TIP3    H246873   2.918   2.284   2.094  1.3217 -0.0409  0.6209
 7560TIP3   OH246874   4.648   5.964   3.095 -0.5810 -0.4039  0.3313
 7560TIP3    H146875   4.674   6.020   3.168  1.0944 -0.4483 -0.1875
 7560TIP3    H246876   4.642   5.876   3.133 -1.9940 -0.0967  0.8771
 7561TIP3   OH246877   4.926   0.610   4.472 -0.8097  0.4399  0.1867
 7561TIP3    H146878   4.954   0.602   4.563 -0.0371 -0.0910 -0.0917
 7561TIP3    H246879   4.873   0.532   4.456 -1.1044  0.6283  0.2342
 7562TIP3   OH246880   2.651   5.406   3.761 -0.1014 -0.2955  0.3743
 7562TIP3    H146881   2.639   5.414   3.666 -0.7991  0.5436  0.5165
 7562TIP3    H246882   2.743   5.427   3.775  0.1720 -1.0774 -0.1749
 7563TIP3   OH246883   2.940   2.599   2.558  0.3316 -0.3475  0.2510
 7563TIP3    H146884   2.859   2.630   2.599  0.4089 -0.3872  0.4368
 7563TIP3    H246885   2.950   2.652   2.479  1.1457  1.0111  1.2272
 7564TIP3   OH246886   5.513   4.108   2.090  0.2170 -0.2059  0.3325
 7564TIP3    H146887   5.422   4.079   2.082 -0.0652  1.0265 -1.7438
 7564TIP3    H246888   5.514   4.195   2.051  2.4188 -0.4508 -0.2970
 7565TIP3   OH246889   5.267   2.275   3.914  0.0903  0.2488 -0.4617
 7565TIP3    H146890   5.173   2.272   3.895 -0.1356 -1.2668  0.6890
 7565TIP3    H246891   5.304   2.203   3.864  0.1296 -1.1008  1.3931
 7566TIP3   OH246892   1.317   0.921   3.458 -0.1879 -0.2866 -0.5637
 7566TIP3    H146893   1.280   0.854   3.516 -0.1700  1.2365  1.3117
 7566TIP3    H246894   1.406   0.934   3.490 -0.5559  1.4068 -0.1327
 7567TIP3   OH246895   1.088   5.817   4.088  0.1168  0.2789  0.4716
 7567TIP3    H146896   1.145   5.778   4.021 -0.1603  1.2873 -0.3863
 7567TIP3    H246897   1.109   5.770   4.168  2.6319  1.0219  0.3282
 7568TIP3   OH246898   5.396   4.942   4.541 -0.0366 -0.2064 -0.0548
 7568TIP3    H146899   5.304   4.955   4.567 -0.1668  0.3301 -0.7491
 7568TIP3    H246900   5.423   5.028   4.508 -0.2993 -1.1732 -2.9960
 7569TIP3   OH246901   4.488   6.159   3.469 -0.0702  0.2589  0.2352
 7569TIP3    H146902   4.538   6.083   3.438 -0.7729 -0.8127  1.6226
 7569TIP3    H246903   4.520   6.174   3.558 -1.7386 -0.0307  0.9116
 7570TIP3   OH246904   6.500   1.386   5.076  0.9515  0.1375 -0.0069
 7570TIP3    H146905   6.490   1.428   4.991  2.1468 -0.9778 -0.7381
 7570TIP3    H246906   6.546   1.451   5.129  0.4908  0.7179 -0.2993
 7571TIP3   OH246907   3.128   5.360   3.174  0.3014 -0.0582 -0.0724
 7571TIP3    H146908   3.137   5.283   3.231 -0.7892 -0.7244 -0.7784
 7571TIP3    H246909   3.054   5.408   3.211 -0.3610 -0.4528 -0.8748
 7572TIP3   OH246910   3.315   5.966   5.801 -0.3021 -0.5478 -0.4239
 7572TIP3    H146911   3.224   5.945   5.824 -0.0004 -0.9709  0.4179
 7572TIP3    H246912   3.367   5.898   5.843  0.7500  1.9100  2.6268
 7573TIP3   OH246913   0.585   6.520   4.355  0.1741 -0.2228  0.4503
 7573TIP3    H146914   0.567   6.477   4.271  0.5465 -0.1376  0.3211
 7573TIP3    H246915   0.509   6.502   4.409  0.6347 -1.6723  0.6565
 7574TIP3   OH246916   1.402   1.594   3.623 -0.4185 -0.3004 -1.0885
 7574TIP3    H146917   1.351   1.569   3.700  1.0298  1.2850  0.4578
 7574TIP3    H246918   1.424   1.511   3.581 -1.5452 -1.1749 -0.0077
 7575TIP3   OH246919   5.486   3.419   3.461 -0.0834 -0.2448  0.5705
 7575TIP3    H146920   5.467   3.357   3.532 -1.3370 -0.2339  0.2602
 7575TIP3    H246921   5.402   3.436   3.420  0.1883  1.7888  0.7273
 7576TIP3   OH246922   0.627   4.442   4.745  0.0100 -0.0966  0.0860
 7576TIP3    H146923   0.666   4.513   4.695 -0.9009 -1.6628 -3.1421
 7576TIP3    H246924   0.546   4.478   4.781 -0.2469  0.6241 -1.1766
 7577TIP3   OH246925   4.193   2.495   2.718 -0.5449  0.5247 -0.1238
 7577TIP3    H146926   4.267   2.546   2.750 -1.5292  0.6820  2.0599
 7577TIP3    H246927   4.223   2.459   2.634  2.1420  0.2817  0.8466
 7578TIP3   OH246928   6.722   1.173   4.271 -0.0953  0.6905  0.1251
 7578TIP3    H146929   6.639   1.214   4.250 -0.4933  0.2196  0.7415
 7578TIP3    H246930   6.788   1.231   4.233 -0.6589  1.7218  0.6804
 7579TIP3   OH246931   0.802   1.118   3.514  0.0620 -0.2351  0.3678
 7579TIP3    H146932   0.743   1.187   3.544 -0.3442 -0.1647 -0.5666
 7579TIP3    H246933   0.839   1.081   3.594 -0.9543 -0.0158  0.9448
 7580TIP3   OH246934   2.439   3.720   5.112 -0.2406  0.4426  0.8030
 7580TIP3    H146935   2.531   3.744   5.109 -1.0748  4.0180 -1.5478
 7580TIP3    H246936   2.404   3.768   5.187 -0.3723 -0.3940  1.2963
 7581TIP3   OH246937   5.655   0.599   4.124  0.1538  0.2002  0.1800
 7581TIP3    H146938   5.647   0.687   4.086  1.7023  0.3281  0.0858
 7581TIP3    H246939   5.580   0.592   4.184 -1.1966  0.7545 -1.3524
 7582TIP3   OH246940   5.337   3.324   4.280 -0.1537  0.2003  0.1709
 7582TIP3    H146941   5.391   3.365   4.348  0.5794 -0.7939  0.2059
 7582TIP3    H246942   5.366   3.364   4.199  0.0549  0.2619  0.2770
 7583TIP3   OH246943   2.534   1.718   4.768 -0.0520 -0.0165 -0.4517
 7583TIP3    H146944   2.455   1.738   4.819  0.6106 -0.5074  0.8175
 7583TIP3    H246945   2.606   1.727   4.831  0.7495 -1.2073 -1.1608
 7584TIP3   OH246946   5.452   0.431   3.794  0.8460 -0.2835 -0.2863
 7584TIP3    H146947   5.488   0.351   3.833 -0.8088 -0.6658  0.5936
 7584TIP3    H246948   5.411   0.402   3.713  0.4594 -0.2873 -0.0906
 7585TIP3   OH246949   0.644   4.789   3.449  0.0422  0.3048 -0.0095
 7585TIP3    H146950   0.639   4.863   3.509  0.4769  0.5389 -0.2593
 7585TIP3    H246951   0.599   4.818   3.370 -0.0278  0.2052 -0.0060
 7586TIP3   OH246952   5.992   0.113   2.217  0.3474  0.1325  0.1981
 7586TIP3    H146953   5.979   0.055   2.142 -0.3859 -1.5875  1.6023
 7586TIP3    H246954   5.922   0.178   2.209 -0.1162 -0.4115 -0.2594
 7587TIP3   OH246955   3.203   2.322   3.398  0.2566 -0.2516 -0.6976
 7587TIP3    H146956   3.192   2.370   3.316 -1.4770 -2.4690 -1.8904
 7587TIP3    H246957   3.195   2.230   3.373  0.6978 -1.0643  1.8358
 7588TIP3   OH246958   2.469   2.555   2.409 -0.1237 -0.1098 -0.2438
 7588TIP3    H146959   2.504   2.491   2.471 -0.2162 -0.2616 -0.3453
 7588TIP3    H246960   2.541   2.571   2.348 -0.2399 -0.4541 -0.4774
 7589TIP3   OH246961   2.014   1.931   3.388 -0.2214  0.0451 -0.1618
 7589TIP3    H146962   2.010   1.917   3.482  0.5320 -0.5201 -0.2056
 7589TIP3    H246963   2.010   1.843   3.350  1.7666  0.0825 -0.5533
 7590TIP3   OH246964   4.810   2.457   3.059  0.1889  0.8136 -0.0712
 7590TIP3    H146965   4.830   2.421   3.145 -3.3658 -0.9516  0.2210
 7590TIP3    H246966   4.877   2.422   3.001  0.9417 -0.4034  1.4859
 7591TIP3   OH246967   6.614   3.267   3.491  0.5107  0.0682  0.1383
 7591TIP3    H146968   6.682   3.333   3.484 -0.0681  0.6363 -0.2504
 7591TIP3    H246969   6.586   3.270   3.583  0.2389  0.6201  0.0410
 7592TIP3   OH246970   3.719   4.680   4.707  0.5884 -0.2276  0.6678
 7592TIP3    H146971   3.751   4.663   4.618 -1.7545 -0.7921 -0.1637
 7592TIP3    H246972   3.690   4.771   4.705  1.2542 -0.0019  1.1136
 7593TIP3   OH246973   4.196   3.873   4.550 -0.2501 -0.1826  0.1846
 7593TIP3    H146974   4.136   3.804   4.521 -0.0330 -1.2587  2.1284
 7593TIP3    H246975   4.161   3.953   4.511 -1.5284 -1.1338 -0.6992
 7594TIP3   OH246976   5.319   6.296   2.237 -0.5872  0.3617 -0.3677
 7594TIP3    H146977   5.232   6.259   2.222 -0.8724  1.0664 -0.4665
 7594TIP3    H246978   5.378   6.220   2.234 -1.3652 -0.3534  1.3312
 7595TIP3   OH246979   2.196   4.159   2.725  0.3522  0.6293 -0.1116
 7595TIP3    H146980   2.252   4.124   2.793 -1.6662 -0.6443  0.9772
 7595TIP3    H246981   2.166   4.244   2.759  0.1826  0.4800  0.1097
 7596TIP3   OH246982   3.263   3.692   3.705  0.0629  0.1810  0.1937
 7596TIP3    H146983   3.335   3.690   3.768 -0.6346  1.5127  1.0601
 7596TIP3    H246984   3.209   3.616   3.727 -0.1648  0.6265  1.2086
 7597TIP3   OH246985   1.742   2.058   3.976 -0.3632  0.0020  0.1464
 7597TIP3    H146986   1.739   2.135   4.033 -0.5419 -0.5175  0.8629
 7597TIP3    H246987   1.706   2.087   3.893 -1.3983  0.4330  0.7259
 7598TIP3   OH246988   4.121   4.655   3.986 -0.8431  0.6581 -0.0350
 7598TIP3    H146989   4.192   4.636   3.925  0.0147 -2.0641  1.6471
 7598TIP3    H246990   4.132   4.748   4.006 -0.3629  1.3406 -2.9090
 7599TIP3   OH246991   6.697   2.678   4.610  0.4461  0.3211 -0.7671
 7599TIP3    H146992   6.680   2.736   4.685  2.6138  0.2374 -0.1419
 7599TIP3    H246993   6.722   2.738   4.539 -1.7382  0.4107 -1.5472
 7600TIP3   OH246994   4.464   0.402   2.515 -0.1727 -0.8065 -0.0041
 7600TIP3    H146995   4.411   0.377   2.439  1.4832 -0.4323 -1.3642
 7600TIP3    H246996   4.431   0.488   2.540 -0.2638 -0.6082 -0.7864
 7601TIP3   OH246997   2.520   5.551   2.153 -0.1608  0.0191 -0.4087
 7601TIP3    H146998   2.459   5.487   2.117  0.7015 -0.7989 -0.4768
 7601TIP3    H246999   2.507   5.546   2.247 -0.6852  0.3583 -0.4606
 7602TIP3   OH247000   6.420   6.288   3.488  0.4086 -0.2053  0.2983
 7602TIP3    H147001   6.478   6.268   3.563  0.9861 -1.3965 -0.4360
 7602TIP3    H247002   6.346   6.228   3.499  0.1237  0.1514  0.3241
 7603TIP3   OH247003   2.635   2.437   3.236 -0.3442 -0.2092  0.9199
 7603TIP3    H147004   2.698   2.445   3.164 -0.4647 -2.0121  0.5850
 7603TIP3    H247005   2.581   2.362   3.213 -2.0810  0.7674  1.6355
 7604TIP3   OH247006   3.188   6.547   2.777 -0.4004  0.1184 -0.5306
 7604TIP3    H147007   3.098   6.552   2.808  0.2619  1.1988  1.4540
 7604TIP3    H247008   3.240   6.576   2.852  1.6934 -1.6685 -1.1847
 7605TIP3   OH247009   5.059   5.081   2.968  0.5135 -0.5051 -0.5989
 7605TIP3    H147010   4.980   5.027   2.965  1.1130 -1.3807 -2.2603
 7605TIP3    H247011   5.035   5.160   2.919 -0.0999  0.4381  1.1227
 7606TIP3   OH247012   3.240   2.281   4.462 -0.5693  0.0474 -0.3300
 7606TIP3    H147013   3.222   2.316   4.549  0.4497  0.3444 -0.2288
 7606TIP3    H247014   3.225   2.187   4.471 -2.0645  0.2697 -0.2755
 7607TIP3   OH247015   4.402   4.780   3.051  0.0849  0.2620 -0.3450
 7607TIP3    H147016   4.332   4.845   3.046 -0.7201 -0.5496  0.1580
 7607TIP3    H247017   4.384   4.731   3.131 -1.1554 -2.6189 -2.2157
 7608TIP3   OH247018   5.804   5.801   4.358  0.6064  0.1298 -0.0349
 7608TIP3    H147019   5.838   5.851   4.432  1.0520  2.4472 -1.7124
 7608TIP3    H247020   5.882   5.779   4.306  0.0789  1.1405 -1.3189
 7609TIP3   OH247021   3.858   4.667   5.253 -0.2521  0.6488  0.4861
 7609TIP3    H147022   3.877   4.739   5.314 -0.7333  0.2269  1.1526
 7609TIP3    H247023   3.867   4.706   5.166 -0.2600  1.4518  0.8362
 7610TIP3   OH247024   3.374   2.431   3.058  0.3403 -0.4945  0.3472
 7610TIP3    H147025   3.398   2.409   2.968  1.4975 -0.2487  0.5777
 7610TIP3    H247026   3.347   2.348   3.097  0.9185 -0.8102  0.0862
 7611TIP3   OH247027   5.252   4.632   4.086 -0.2218 -0.2480 -0.1828
 7611TIP3    H147028   5.267   4.540   4.062  0.4363 -0.4757  0.9963
 7611TIP3    H247029   5.173   4.630   4.140  0.8819 -0.4539  1.5140
 7612TIP3   OH247030   2.886   0.748   5.175 -0.1307 -0.2307  0.0825
 7612TIP3    H147031   2.904   0.686   5.246  1.6154 -1.3380 -1.2201
 7612TIP3    H247032   2.969   0.795   5.163 -0.5579  0.3056 -0.8543
 7613TIP3   OH247033   3.454   1.065   2.577 -0.1317  0.4345  0.1845
 7613TIP3    H147034   3.547   1.071   2.597 -0.3434  1.4527  0.9567
 7613TIP3    H247035   3.437   0.971   2.569  0.8712  0.2209  0.4268
 7614TIP3   OH247036   1.712   4.199   2.271  0.1300 -0.1316 -0.1346
 7614TIP3    H147037   1.686   4.145   2.197 -1.0202 -0.6214  0.5819
 7614TIP3    H247038   1.640   4.189   2.334  1.6491 -0.8044  1.6111
 7615TIP3   OH247039   5.810   3.678   4.046 -0.2536  0.4103  0.1635
 7615TIP3    H147040   5.902   3.703   4.059 -0.4015  1.4051 -0.5407
 7615TIP3    H247041   5.772   3.754   4.002 -1.1877 -0.3818 -0.4058
 7616TIP3   OH247042   6.111   4.417   2.793 -0.1589 -0.0332 -0.5433
 7616TIP3    H147043   6.037   4.391   2.848 -0.3970  0.0957 -0.8024
 7616TIP3    H247044   6.180   4.353   2.813 -0.2575 -0.0162 -0.1294
 7617TIP3   OH247045   5.156   0.507   3.407  0.3269 -0.0344 -0.5041
 7617TIP3    H147046   5.083   0.496   3.468 -0.3643 -1.7384 -1.5580
 7617TIP3    H247047   5.128   0.461   3.328  1.6013  1.2735 -1.7647
 7618TIP3   OH247048   1.455   3.913   4.858 -0.0669  0.4156  0.4819
 7618TIP3    H147049   1.432   3.855   4.930  1.2919 -1.1602 -0.3032
 7618TIP3    H247050   1.551   3.920   4.861 -0.0716  1.2643 -0.4561
 7619TIP3   OH247051   2.439   6.778   4.010  0.0304 -0.0231 -0.1569
 7619TIP3    H147052   2.382   6.744   3.941 -1.2393  0.4761  0.6089
 7619TIP3    H247053   2.391   6.852   4.046  0.9677  0.1184  0.8432
 7620TIP3   OH247054   2.790   0.899   4.650 -0.1683  0.2288 -0.2830
 7620TIP3    H147055   2.753   0.828   4.701  0.4066  0.0072 -0.1776
 7620TIP3    H247056   2.718   0.926   4.591  0.3011 -2.0059 -2.0120
 7621TIP3   OH247057   4.473   4.484   2.651 -0.4285  0.0588 -0.1294
 7621TIP3    H147058   4.386   4.453   2.675  0.0781 -0.0138  1.7085
 7621TIP3    H247059   4.479   4.571   2.691  0.1328  0.3060 -0.7367
 7622TIP3   OH247060   1.094   0.617   4.788  0.1424  0.2012  0.1266
 7622TIP3    H147061   1.116   0.654   4.873  1.5870  0.3305 -0.2846
 7622TIP3    H247062   1.041   0.540   4.809 -0.0176  0.5628  1.1104
 7623TIP3   OH247063   0.911   1.263   4.580  0.1564 -0.1228 -0.3888
 7623TIP3    H147064   0.838   1.311   4.620  1.8010  1.4534  0.9142
 7623TIP3    H247065   0.878   1.175   4.568 -1.3231 -0.0235  2.1394
 7624TIP3   OH247066   2.153   2.513   4.090 -0.2904 -0.0595 -0.0525
 7624TIP3    H147067   2.106   2.589   4.124  0.2285  0.1492  0.2113
 7624TIP3    H247068   2.161   2.454   4.165  1.6072  0.7690  0.4571
 7625TIP3   OH247069   2.668   6.292   3.049 -0.0405 -0.0923  0.0854
 7625TIP3    H147070   2.594   6.276   3.108 -0.1511 -2.0888 -0.5280
 7625TIP3    H247071   2.739   6.318   3.107 -1.0384  1.3119  0.7456
 7626TIP3   OH247072   5.238   5.743   3.507 -0.2974  0.3759 -0.3400
 7626TIP3    H147073   5.239   5.834   3.535  0.0771 -0.0935  1.2801
 7626TIP3    H247074   5.317   5.705   3.545 -0.5635 -0.6801 -0.7961
 7627TIP3   OH247075   2.771   1.599   2.770 -0.0247  0.3488 -0.1931
 7627TIP3    H147076   2.680   1.584   2.795  0.6739 -3.2782  0.7200
 7627TIP3    H247077   2.816   1.618   2.852  0.1568  1.8245 -0.5999
 7628TIP3   OH247078   0.871   6.667   2.482  0.3908 -0.4522 -1.1921
 7628TIP3    H147079   0.877   6.583   2.527  0.0033 -0.7055 -1.5931
 7628TIP3    H247080   0.884   6.645   2.389 -3.2475 -0.6428 -1.7875
 7629TIP3   OH247081   3.496   3.767   2.757 -0.1171 -0.1918 -0.2843
 7629TIP3    H147082   3.565   3.720   2.803 -0.8842 -1.5025 -0.4201
 7629TIP3    H247083   3.543   3.831   2.703  0.9958 -0.9731 -0.2934
 7630TIP3   OH247084   2.780   4.476   4.935  0.0344 -0.4748  0.6941
 7630TIP3    H147085   2.688   4.496   4.947  0.2540  0.1625  1.3785
 7630TIP3    H247086   2.795   4.397   4.986 -0.3794 -1.2595 -0.3597
 7631TIP3   OH247087   3.442   3.507   3.478  0.6332  0.1547  0.2098
 7631TIP3    H147088   3.457   3.436   3.415  1.1026  0.8866 -0.5148
 7631TIP3    H247089   3.356   3.542   3.454  0.3674 -0.2167  0.6164
 7632TIP3   OH247090   4.047   4.765   3.311  0.1589  0.2254  0.0582
 7632TIP3    H147091   4.142   4.774   3.298  0.7777 -3.3109  1.0151
 7632TIP3    H247092   4.021   4.845   3.356  2.3056  2.0432 -1.6635
 7633TIP3   OH247093   6.788   0.329   4.251 -0.0750 -0.2627 -0.4163
 7633TIP3    H147094   6.746   0.244   4.234 -2.7628  0.6250  1.2477
 7633TIP3    H247095   6.724   0.393   4.220  0.9482  1.1733  0.3771
 7634TIP3   OH247096   4.839   1.546   2.130  0.1800 -0.2474 -0.2083
 7634TIP3    H147097   4.757   1.502   2.154  0.3659  0.7468  2.6008
 7634TIP3    H247098   4.908   1.489   2.162  0.4662  0.8216  1.1797
 7635TIP3   OH247099   4.025   2.183   3.948  0.3372 -0.3362  0.3901
 7635TIP3    H147100   3.988   2.101   3.916  0.6066 -0.7726  1.1655
 7635TIP3    H247101   4.059   2.161   4.035  0.8506  0.4763  0.4010
 7636TIP3   OH247102   6.131   5.365   4.111 -0.3949  0.4185 -0.1711
 7636TIP3    H147103   6.191   5.440   4.119  0.1183 -0.0896  1.0357
 7636TIP3    H247104   6.067   5.379   4.181  1.1180 -1.4634  1.7393
 7637TIP3   OH247105   3.867   6.097   2.806 -0.1961 -0.1212 -0.0035
 7637TIP3    H147106   3.857   6.023   2.866 -0.1123 -1.4724 -1.5932
 7637TIP3    H247107   3.815   6.073   2.729 -2.8009  2.8711  0.5770
 7638TIP3   OH247108   5.742   4.643   4.206 -0.4085 -0.0848 -0.1515
 7638TIP3    H147109   5.756   4.640   4.112 -2.4869 -0.7204 -0.4970
 7638TIP3    H247110   5.713   4.732   4.224 -0.1430 -0.0021 -0.1322
 7639TIP3   OH247111   6.144   1.939   3.204  0.1847 -0.5691 -0.2528
 7639TIP3    H147112   6.123   1.846   3.214 -1.7023 -0.0423  1.3121
 7639TIP3    H247113   6.233   1.948   3.238  0.4772 -1.8306 -0.6487
 7640TIP3   OH247114   2.971   1.783   4.344 -0.1055  0.4826  0.0553
 7640TIP3    H147115   2.930   1.774   4.430  0.0108  0.5347  0.1168
 7640TIP3    H247116   2.909   1.835   4.293 -1.2763 -1.4911 -0.6384
 7641TIP3   OH247117   5.522   0.108   3.781 -0.1157 -0.3971 -0.6281
 7641TIP3    H147118   5.603   0.097   3.730  0.4411  0.9129 -0.0740
 7641TIP3    H247119   5.543   0.072   3.867  0.8062  2.2030  0.3360
 7642TIP3   OH247120   6.317   6.624   5.328 -0.6183  0.8618  0.0050
 7642TIP3    H147121   6.334   6.559   5.397 -2.7172  1.5412  1.2557
 7642TIP3    H247122   6.338   6.578   5.247  1.5701 -0.0971  1.0070
 7643TIP3   OH247123   6.854   3.275   3.226  0.3263  0.7149 -0.0253
 7643TIP3    H147124   6.931   3.330   3.242  0.8543 -0.0320  0.0453
 7643TIP3    H247125   6.784   3.318   3.276  0.2739  2.3199 -1.3736
 7644TIP3   OH247126   2.967   5.881   3.520 -0.0321  0.1002 -0.0076
 7644TIP3    H147127   3.009   5.841   3.444 -0.3766 -0.1627 -0.0592
 7644TIP3    H247128   2.930   5.808   3.569 -0.3904  0.3234  0.0627
 7645TIP3   OH247129   4.172   0.129   4.347 -0.1697  0.4729 -0.3716
 7645TIP3    H147130   4.102   0.079   4.388  2.7299 -1.2473  3.0796
 7645TIP3    H247131   4.172   0.102   4.255 -1.7846 -2.1667  0.3206
 7646TIP3   OH247132   6.848   3.765   3.684  0.6710 -0.2921  0.1180
 7646TIP3    H147133   6.795   3.701   3.637 -0.4593  0.0284  0.9234
 7646TIP3    H247134   6.842   3.845   3.632  1.7457 -0.6851 -0.6655
 7647TIP3   OH247135   0.937   6.849   2.688 -0.2746  0.2906 -0.2412
 7647TIP3    H147136   0.912   6.785   2.621 -3.5615  0.2500  0.8580
 7647TIP3    H247137   0.894   6.930   2.662  0.9247  1.1366  0.2728
 7648TIP3   OH247138   3.281   4.661   3.237 -0.2780 -0.3902 -0.1380
 7648TIP3    H147139   3.246   4.638   3.324  2.4670 -0.4461  1.0337
 7648TIP3    H247140   3.336   4.587   3.212  2.6282  1.4728  0.2509
 7649TIP3   OH247141   2.240   2.156   4.783  0.3169  0.3827  0.0628
 7649TIP3    H147142   2.247   2.079   4.726 -0.8026 -0.8430  1.5084
 7649TIP3    H247143   2.329   2.173   4.812  0.4847 -0.8310  0.3069
 7650TIP3   OH247144   3.447   3.587   2.316  0.1066 -0.4560  0.3774
 7650TIP3    H147145   3.464   3.621   2.404  0.1412  1.7391 -0.4152
 7650TIP3    H247146   3.501   3.642   2.259  0.8397 -2.4695 -0.9492
 7651TIP3   OH247147   0.353   4.674   4.262 -0.2622  0.3480  0.1279
 7651TIP3    H147148   0.297   4.650   4.336 -0.5594  2.2800  0.5987
 7651TIP3    H247149   0.416   4.602   4.255 -1.1075 -0.5526  1.3434
 7652TIP3   OH247150   0.684   1.836   3.975  0.1124 -0.2042  0.4486
 7652TIP3    H147151   0.725   1.918   3.947 -0.7021  0.4570  1.1464
 7652TIP3    H247152   0.735   1.809   4.052  0.0439 -0.0650  0.5434
 7653TIP3   OH247153   2.522   3.041   3.547 -0.1955 -0.1139  0.1383
 7653TIP3    H147154   2.569   2.977   3.601  0.5774  1.3859  1.3354
 7653TIP3    H247155   2.578   3.118   3.549 -0.4288  0.2020 -2.3864
 7654TIP3   OH247156   2.296   2.723   2.970 -0.2264 -0.0577  0.4019
 7654TIP3    H147157   2.271   2.736   3.061 -0.5199 -0.1881  0.3436
 7654TIP3    H247158   2.376   2.671   2.974 -0.8900 -1.0979  0.5735
 7655TIP3   OH247159   2.256   2.141   5.130 -0.0054  0.1656  0.5262
 7655TIP3    H147160   2.290   2.218   5.175 -0.6100  0.8491 -0.1501
 7655TIP3    H247161   2.334   2.092   5.104  0.3711  0.2840  1.4000
 7656TIP3   OH247162   1.645   1.362   4.816  0.2151 -0.5364  0.2546
 7656TIP3    H147163   1.693   1.430   4.864  1.6372 -0.5075 -1.1060
 7656TIP3    H247164   1.568   1.407   4.782  1.3029  0.5566 -0.9140
 7657TIP3   OH247165   6.104   5.340   2.560 -0.0962 -0.1775  0.1307
 7657TIP3    H147166   6.199   5.350   2.566  0.0401  1.7901 -3.0295
 7657TIP3    H247167   6.091   5.266   2.500 -0.4842  0.3820 -0.4977
 7658TIP3   OH247168   2.360   4.654   3.363  0.4726 -0.7659 -0.1943
 7658TIP3    H147169   2.372   4.579   3.304 -0.4390  0.1249 -1.5494
 7658TIP3    H247170   2.300   4.712   3.317 -0.0420  0.1123  1.4956
 7659TIP3   OH247171   4.637   3.675   3.584 -0.0994  0.4000 -0.1307
 7659TIP3    H147172   4.557   3.624   3.591  0.9525 -1.2445  0.4862
 7659TIP3    H247173   4.672   3.655   3.497  0.0575  0.4606 -0.0828
 7660TIP3   OH247174   2.285   1.043   3.855  0.7108  0.0417  0.2452
 7660TIP3    H147175   2.270   1.124   3.806  1.8243  0.7424  1.0194
 7660TIP3    H247176   2.376   1.049   3.884  0.3492 -0.7524  1.6523
 7661TIP3   OH247177   1.163   3.562   2.987 -0.0911 -0.4072  0.0129
 7661TIP3    H147178   1.123   3.609   3.060 -0.6927 -1.8288  0.6411
 7661TIP3    H247179   1.104   3.578   2.913 -0.8922 -1.0528  0.4944
 7662TIP3   OH247180   1.657   2.766   2.285  0.2090  0.2745  0.0803
 7662TIP3    H147181   1.721   2.830   2.317  0.5990  0.2331 -0.6028
 7662TIP3    H247182   1.684   2.748   2.195  0.1345 -0.9006  0.2779
 7663TIP3   OH247183   4.806   0.010   2.761  0.2798  0.1397  0.5114
 7663TIP3    H147184   4.741  -0.054   2.793  0.7235 -0.4430  0.2717
 7663TIP3    H247185   4.774   0.094   2.792 -0.4270 -0.1777  0.6686
 7664TIP3   OH247186   3.492   4.796   5.030 -0.1144 -0.5797  0.7763
 7664TIP3    H147187   3.487   4.840   5.115  1.7661 -1.1749  1.2465
 7664TIP3    H247188   3.482   4.867   4.967 -1.8501 -0.1654  1.4604
 7665TIP3   OH247189   1.943   0.415   5.028  0.5862  0.1125  0.0886
 7665TIP3    H147190   1.989   0.390   4.948 -0.1207 -0.2970 -0.1928
 7665TIP3    H247191   1.883   0.343   5.046 -1.8916  1.7440 -1.0341
 7666TIP3   OH247192   6.539   0.419   4.455 -0.0229 -0.5244 -0.1264
 7666TIP3    H147193   6.511   0.504   4.488  2.0140 -0.3273  1.2798
 7666TIP3    H247194   6.518   0.422   4.362 -0.8254  1.1419  0.0605
 7667TIP3   OH247195   3.042   3.621   4.578 -0.0066 -0.0211  0.1993
 7667TIP3    H147196   3.081   3.608   4.664 -1.6189 -1.5526  0.7523
 7667TIP3    H247197   2.960   3.571   4.580 -0.4141  0.4294 -2.0018
 7668TIP3   OH247198   6.260   2.645   3.965 -0.5704  0.3166  0.0666
 7668TIP3    H147199   6.189   2.611   3.911  0.2236  0.3659 -1.0368
 7668TIP3    H247200   6.311   2.701   3.906  0.3406  0.3538  0.8563
 7669TIP3   OH247201   0.966   0.298   4.544  0.0605  0.4441 -0.5316
 7669TIP3    H147202   0.975   0.344   4.627  0.8638  0.7924 -0.7969
 7669TIP3    H247203   0.971   0.205   4.567 -1.8465  0.4387  0.0419
 7670TIP3   OH247204   4.984   0.640   4.735 -0.1132 -0.0767  0.2790
 7670TIP3    H147205   5.079   0.641   4.744  0.0531 -0.5629 -1.1341
 7670TIP3    H247206   4.954   0.721   4.776  0.9797  0.4394  0.0826
 7671TIP3   OH247207   4.323   5.298   3.633 -0.1157  0.9275  0.2875
 7671TIP3    H147208   4.371   5.244   3.696 -0.9248  1.9488  1.8444
 7671TIP3    H247209   4.358   5.386   3.645 -0.4416  1.1733 -0.5463
 7672TIP3   OH247210   1.806   1.430   2.853 -0.4843 -0.1489 -0.3230
 7672TIP3    H147211   1.884   1.473   2.817 -0.8573  1.0564  0.2458
 7672TIP3    H247212   1.825   1.422   2.946 -2.1940  3.0268  0.4626
 7673TIP3   OH247213   6.008   6.676   3.027  0.5818  0.3587 -0.1489
 7673TIP3    H147214   5.943   6.733   2.986  0.4908 -0.2424 -0.8693
 7673TIP3    H247215   5.959   6.603   3.063  0.6058  1.1360  1.5533
 7674TIP3   OH247216   0.875   4.141   3.053  0.4510  0.0481 -0.2977
 7674TIP3    H147217   0.949   4.082   3.068  0.8297  0.0269 -2.0015
 7674TIP3    H247218   0.799   4.093   3.083  0.9525 -0.6167 -0.0707
 7675TIP3   OH247219   3.860   3.487   4.718  0.1668  0.5631  0.0809
 7675TIP3    H147220   3.779   3.530   4.690  0.0489  0.0603 -0.3439
 7675TIP3    H247221   3.878   3.526   4.804 -0.1032  1.2429 -0.1608
 7676TIP3   OH247222   1.335   0.433   3.715  0.1983 -0.4341  0.3064
 7676TIP3    H147223   1.296   0.463   3.797  1.0884 -1.0232  0.9663
 7676TIP3    H247224   1.323   0.338   3.716  1.0305 -0.5473  0.1985
 7677TIP3   OH247225   5.803   1.731   3.156 -0.5611  0.3202  0.0770
 7677TIP3    H147226   5.762   1.812   3.185  1.1482  1.5603 -0.7960
 7677TIP3    H247227   5.800   1.735   3.060 -0.6268 -0.7689  0.0149
 7678TIP3   OH247228   4.158   1.986   4.476  0.4673  0.2525 -0.1458
 7678TIP3    H147229   4.234   2.004   4.531 -0.0046  0.1017  0.5703
 7678TIP3    H247230   4.158   1.892   4.464  0.6475  0.2999 -0.5222
 7679TIP3   OH247231   4.063   0.750   2.562  0.0366 -0.7160 -0.1353
 7679TIP3    H147232   4.016   0.755   2.478  1.0406  1.6974 -0.6193
 7679TIP3    H247233   4.032   0.826   2.611  2.7021  0.4459 -0.1248
 7680TIP3   OH247234   2.249   2.404   5.230  0.3364 -0.2528 -0.0455
 7680TIP3    H147235   2.165   2.450   5.232  0.8277  0.7420 -1.1354
 7680TIP3    H247236   2.313   2.470   5.256  0.9835 -0.5054 -0.9650
 7681TIP3   OH247237   4.798   6.285   3.450 -0.2645 -0.1623 -0.3305
 7681TIP3    H147238   4.877   6.257   3.496  0.1353  3.1117  1.2916
 7681TIP3    H247239   4.830   6.330   3.372 -0.2910  2.3321  0.9877
 7682TIP3   OH247240   3.475   6.544   2.687  0.1857 -0.0117  0.9852
 7682TIP3    H147241   3.446   6.596   2.763  2.2508  1.1921  1.0346
 7682TIP3    H247242   3.561   6.510   2.713  0.7881  0.1658 -0.6767
 7683TIP3   OH247243   1.224   0.469   3.972 -0.4321 -0.2343  0.0459
 7683TIP3    H147244   1.228   0.554   4.014 -0.9763  0.4540 -1.2209
 7683TIP3    H247245   1.265   0.409   4.034  1.0093  1.1320  0.4770
 7684TIP3   OH247246   1.890   1.014   2.135  0.0630 -0.5625  0.0649
 7684TIP3    H147247   1.920   1.084   2.078 -1.1905  1.1219  1.3657
 7684TIP3    H247248   1.963   0.999   2.196  0.6299 -0.9811 -0.6936
 7685TIP3   OH247249   5.237   5.692   5.146  0.3694 -0.0351 -0.4174
 7685TIP3    H147250   5.156   5.648   5.172  0.6262  0.1142  0.6915
 7685TIP3    H247251   5.256   5.752   5.218  0.4643  1.3150 -1.5202
 7686TIP3   OH247252   3.320   5.878   5.551 -0.5997 -0.6233  0.6124
 7686TIP3    H147253   3.329   5.917   5.637 -3.0057 -0.5451  0.9011
 7686TIP3    H247254   3.288   5.949   5.495  1.9201 -0.3962 -0.6550
 7687TIP3   OH247255   6.839   1.821   2.656 -0.1217  0.1347 -0.8469
 7687TIP3    H147256   6.931   1.806   2.638 -0.1834  0.1088 -1.1471
 7687TIP3    H247257   6.795   1.805   2.573 -0.3022  0.9379 -0.9175
 7688TIP3   OH247258   3.175   0.561   2.887  0.4665 -0.2355  0.8064
 7688TIP3    H147259   3.261   0.602   2.885  0.9109 -1.1744  0.1829
 7688TIP3    H247260   3.154   0.545   2.795 -0.3788 -0.0201  0.9534
 7689TIP3   OH247261   6.813   1.375   3.895  0.2237 -0.1495  0.1274
 7689TIP3    H147262   6.874   1.412   3.832 -0.8206 -1.1372 -1.5452
 7689TIP3    H247263   6.791   1.289   3.860 -1.6491 -0.0794  0.9780
 7690TIP3   OH247264   2.882   5.270   3.305  0.4285 -0.2484  0.0490
 7690TIP3    H147265   2.885   5.232   3.217 -0.3919 -0.9368  0.3063
 7690TIP3    H247266   2.806   5.329   3.303  1.3748  1.0132 -0.1849
 7691TIP3   OH247267   3.930   1.514   3.371 -0.4514  0.3811 -0.8721
 7691TIP3    H147268   4.001   1.579   3.367  0.1141 -0.2594 -1.5771
 7691TIP3    H247269   3.901   1.516   3.462  1.5349 -0.4272 -0.1469
 7692TIP3   OH247270   3.604   4.386   2.798  0.1356  0.5085 -0.3822
 7692TIP3    H147271   3.556   4.466   2.778 -0.3086 -0.3018 -2.9359
 7692TIP3    H247272   3.546   4.339   2.859 -0.5949  1.1815 -0.5381
 7693TIP3   OH247273   6.427   1.896   9.499  0.4557  0.3102  0.4552
 7693TIP3    H147274   6.493   1.956   9.535 -1.7118  1.1975  3.4173
 7693TIP3    H247275   6.374   1.951   9.442  0.8359  0.2158  0.0130
 7694TIP3   OH247276   3.209   2.532   2.586 -0.6471  0.7529  0.0490
 7694TIP3    H147277   3.114   2.541   2.583 -0.6486  0.5732 -0.7267
 7694TIP3    H247278   3.223   2.437   2.594 -0.5350  0.8397  1.0972
 7695TIP3   OH247279   4.501   1.565   5.407  0.0899  0.0735  0.3412
 7695TIP3    H147280   4.465   1.515   5.481  2.3454 -3.6428 -0.8282
 7695TIP3    H247281   4.431   1.563   5.341 -0.7114  0.5173  1.1563
 7696TIP3   OH247282   2.656   1.756   2.077 -0.2487 -0.2293 -0.3928
 7696TIP3    H147283   2.578   1.737   2.129 -0.4245  0.3968 -0.4244
 7696TIP3    H247284   2.663   1.683   2.016 -0.1566 -0.8760  0.3719
 7697TIP3   OH247285   3.480   3.647   3.172  0.2990 -0.1992 -0.3293
 7697TIP3    H147286   3.562   3.626   3.216 -0.2744 -2.9505 -0.3649
 7697TIP3    H247287   3.413   3.634   3.239 -0.2587 -0.1369 -0.8683
 7698TIP3   OH247288   6.158   1.460   3.345  0.3138 -0.2952 -0.4689
 7698TIP3    H147289   6.136   1.533   3.287  0.0249  1.5437  1.8220
 7698TIP3    H247290   6.219   1.497   3.408 -0.2945 -1.8767  1.1226
 7699TIP3   OH247291   3.261   5.518   3.516 -0.4085 -0.1820  0.2100
 7699TIP3    H147292   3.267   5.559   3.430  1.7995 -1.1043 -0.1441
 7699TIP3    H247293   3.343   5.469   3.525 -1.2406 -1.3229  2.2251
 7700TIP3   OH247294   2.579   1.878   4.278  0.1968  0.7781  0.3150
 7700TIP3    H147295   2.671   1.896   4.299  0.6161 -1.1811  0.3074
 7700TIP3    H247296   2.550   1.819   4.348 -1.1353  1.5462  0.4356
 7701TIP3   OH247297   5.724   2.151   2.840 -0.1929 -0.7027 -0.0976
 7701TIP3    H147298   5.798   2.154   2.780 -0.5571 -1.3034 -0.5928
 7701TIP3    H247299   5.663   2.218   2.809 -0.1239 -0.6236 -0.0593
 7702TIP3   OH247300   5.260   3.808   2.193  0.0976  0.2373 -0.8882
 7702TIP3    H147301   5.227   3.782   2.107 -0.9920 -1.1806 -0.0932
 7702TIP3    H247302   5.190   3.862   2.229  0.0982 -0.0064 -0.5151
 7703TIP3   OH247303   5.563   0.685   2.611 -0.5232 -0.2762 -0.3226
 7703TIP3    H147304   5.470   0.678   2.592 -1.3083 -0.2108  2.9101
 7703TIP3    H247305   5.593   0.594   2.619 -1.2495 -0.3746  2.1535
 7704TIP3   OH247306   0.293   3.186   3.796 -0.3005 -0.0808 -0.1976
 7704TIP3    H147307   0.323   3.275   3.814 -1.2417  0.0875  0.5782
 7704TIP3    H247308   0.290   3.144   3.881 -0.2723 -0.7301 -0.5141
 7705TIP3   OH247309   5.955   2.231   2.697 -0.4359 -0.4308 -0.2998
 7705TIP3    H147310   6.023   2.238   2.763  0.0724 -1.3250 -0.7195
 7705TIP3    H247311   5.986   2.285   2.624 -1.0518  0.6519  0.2110
 7706TIP3   OH247312   3.807   4.624   3.788  0.6132  0.5139  0.1010
 7706TIP3    H147313   3.724   4.603   3.831  0.8250 -0.4425  0.0760
 7706TIP3    H247314   3.802   4.717   3.769  1.1716  1.4125  3.6455
 7707TIP3   OH247315   1.658   6.434   3.818  0.3489 -0.7307  0.3867
 7707TIP3    H147316   1.735   6.457   3.870 -1.2859  2.2391  1.7329
 7707TIP3    H247317   1.583   6.458   3.873 -1.5373 -0.9619 -1.8992
 7708TIP3   OH247318   2.821   0.092   4.388 -0.2864  0.3274 -0.7284
 7708TIP3    H147319   2.868   0.172   4.362  1.0321  1.0898  3.2050
 7708TIP3    H247320   2.887   0.041   4.436 -1.8330 -1.8443 -0.7857
 7709TIP3   OH247321   0.719   4.620   2.704 -0.4723  0.1368  0.0398
 7709TIP3    H147322   0.775   4.613   2.627 -1.3331  0.5959 -0.6476
 7709TIP3    H247323   0.636   4.581   2.677 -0.8146  0.3861  0.7060
 7710TIP3   OH247324   6.014   3.768   1.683 -0.0378  1.0688  0.0140
 7710TIP3    H147325   6.013   3.857   1.720  0.9057  0.5271  1.3853
 7710TIP3    H247326   6.102   3.758   1.647  1.1648 -0.5314  3.0726
 7711TIP3   OH247327   4.773   6.259   4.847 -0.1627 -0.1240 -0.4583
 7711TIP3    H147328   4.737   6.296   4.767 -1.3143 -0.9741 -0.3715
 7711TIP3    H247329   4.770   6.164   4.833  0.1364 -0.2712  0.3791
 7712TIP3   OH247330   1.809   1.286   3.087 -0.1969  0.0756 -0.2381
 7712TIP3    H147331   1.833   1.362   3.141 -0.3291  0.2948 -0.4819
 7712TIP3    H247332   1.776   1.221   3.149 -0.8698  0.5303 -0.0992
 7713TIP3   OH247333   3.564   2.885   4.132  0.2069 -0.3475 -0.6064
 7713TIP3    H147334   3.607   2.914   4.052  1.7896 -1.8291 -0.3507
 7713TIP3    H247335   3.548   2.791   4.119 -0.5725 -0.3756  0.3673
 7714TIP3   OH247336   2.819   5.253   4.036  0.1387  0.3137 -0.0431
 7714TIP3    H147337   2.741   5.298   4.067 -1.1107 -1.5020 -0.3526
 7714TIP3    H247338   2.808   5.163   4.066 -0.3420 -1.1884 -4.0447
 7715TIP3   OH247339   0.230   1.841   4.275 -0.4601 -0.2035 -0.2281
 7715TIP3    H147340   0.184   1.777   4.221  0.7478 -0.3291 -1.1668
 7715TIP3    H247341   0.288   1.886   4.213 -0.8276  1.3607  0.5350
 7716TIP3   OH247342   1.874   4.039   2.951 -0.2800  0.2551 -0.0040
 7716TIP3    H147343   1.844   4.116   2.999 -3.2765  0.3037 -1.7075
 7716TIP3    H247344   1.944   4.072   2.894  1.5672  0.6822  2.3080
 7717TIP3   OH247345   5.011   1.047   4.005 -0.0221 -0.2063  0.2573
 7717TIP3    H147346   5.053   1.126   4.039 -0.7760  0.6670 -0.7969
 7717TIP3    H247347   5.084   0.989   3.982  0.6278  1.0246 -0.9203
 7718TIP3   OH247348   2.612   1.855   2.497  0.6341 -0.3327 -0.5684
 7718TIP3    H147349   2.603   1.890   2.409 -1.3480 -0.3496 -0.4152
 7718TIP3    H247350   2.522   1.841   2.527  1.2831 -1.5148  0.9825
 7719TIP3   OH247351   6.644   4.611   2.789  0.5273  0.1975  0.1384
 7719TIP3    H147352   6.640   4.639   2.698 -0.7619  2.0485  0.6969
 7719TIP3    H247353   6.658   4.516   2.785 -0.4165  0.1041 -1.9857
 7720TIP3   OH247354   0.530   2.184   3.861 -0.7632 -0.0733  0.2674
 7720TIP3    H147355   0.498   2.252   3.801  1.4148  1.3945  0.6549
 7720TIP3    H247356   0.490   2.207   3.946  1.3532  1.9564  0.8295
 7721TIP3   OH247357   3.041   2.879   2.366 -0.1974 -0.0722  0.3969
 7721TIP3    H147358   2.987   2.925   2.430 -1.2513 -1.4187  0.5169
 7721TIP3    H247359   2.988   2.880   2.286  0.5395  0.4327 -0.1011
 7722TIP3   OH247360   4.049   5.274   5.103  0.1803  0.7991  0.2829
 7722TIP3    H147361   4.091   5.350   5.064  1.5823  0.1437  0.4541
 7722TIP3    H247362   4.110   5.246   5.172  0.0234 -0.8461 -0.1936
 7723TIP3   OH247363   0.221   5.166   2.496  0.4874 -0.2298  0.2118
 7723TIP3    H147364   0.187   5.256   2.488  0.7949 -0.1441 -0.1555
 7723TIP3    H247365   0.148   5.117   2.533  0.5887  0.3346  1.1828
 7724TIP3   OH247366   3.575   6.846   2.583  0.5892 -0.0295  0.3502
 7724TIP3    H147367   3.560   6.802   2.499  2.9809  0.5999 -0.4892
 7724TIP3    H247368   3.493   6.890   2.602 -0.6980 -1.8755 -0.5816
 7725TIP3   OH247369   5.702   6.747   2.071  0.0105 -0.4028 -0.2538
 7725TIP3    H147370   5.797   6.735   2.074  0.1418  0.6983  0.3653
 7725TIP3    H247371   5.668   6.660   2.048  1.1123 -1.0076  0.3183
 7726TIP3   OH247372   4.396   0.976   2.766  0.1128  0.4935 -0.3363
 7726TIP3    H147373   4.374   1.068   2.783  1.5055  0.8014 -0.0574
 7726TIP3    H247374   4.464   0.980   2.699 -1.0487 -0.4347 -1.6104
 7727TIP3   OH247375   0.341   2.557   2.454  0.0258  0.3668  0.0820
 7727TIP3    H147376   0.342   2.546   2.359  0.2437 -0.5567  0.1781
 7727TIP3    H247377   0.433   2.569   2.478  0.1064 -0.6002  0.2923
 7728TIP3   OH247378   2.123   2.961   2.540 -0.2619 -0.0638 -0.0107
 7728TIP3    H147379   2.163   2.874   2.545  1.5408  0.6310 -1.6221
 7728TIP3    H247380   2.123   2.992   2.631 -1.0902 -1.7788  0.6181
 7729TIP3   OH247381   4.478   5.991   4.976 -0.1218  0.1638 -0.8941
 7729TIP3    H147382   4.448   5.901   4.966 -0.3513  0.1327  0.0058
 7729TIP3    H247383   4.456   6.032   4.892  0.9504 -0.8664 -1.7095
 7730TIP3   OH247384   6.656   3.918   4.443 -0.2357  0.2133 -0.6963
 7730TIP3    H147385   6.685   3.899   4.354 -1.0086 -0.3450 -0.8408
 7730TIP3    H247386   6.580   3.974   4.433 -0.2468  0.2580 -0.3827
 7731TIP3   OH247387   0.316   0.431   3.010  0.6080 -0.4978 -0.1833
 7731TIP3    H147388   0.302   0.494   2.939  2.4271  0.0050 -0.1470
 7731TIP3    H247389   0.296   0.346   2.971 -0.1487 -0.0650 -0.7659
 7732TIP3   OH247390   3.174   2.298   2.878  0.5027  0.1559  0.0071
 7732TIP3    H147391   3.224   2.283   2.798  0.2232  2.4685 -0.6851
 7732TIP3    H247392   3.084   2.275   2.854  0.7919 -1.5898  0.4822
 7733TIP3   OH247393   6.435   6.590   4.055  0.5587 -1.3386 -0.3040
 7733TIP3    H147394   6.363   6.640   4.016  1.0293 -0.3286  0.0705
 7733TIP3    H247395   6.460   6.527   3.988  0.1762 -0.8262 -0.9386
 7734TIP3   OH247396   1.549   5.618   2.962 -0.0829  0.0688  0.3163
 7734TIP3    H147397   1.597   5.537   2.979  0.5882  0.7653  2.0118
 7734TIP3    H247398   1.559   5.633   2.868  0.7063 -1.2362  0.1706
 7735TIP3   OH247399   6.445   2.294   4.345 -0.3641  0.3633 -0.1388
 7735TIP3    H147400   6.438   2.242   4.265 -0.2581 -0.1203  0.1612
 7735TIP3    H247401   6.395   2.245   4.410  1.9364 -0.8061  0.8735
 7736TIP3   OH247402   0.145   0.885   4.570 -0.2204 -0.0005 -0.3823
 7736TIP3    H147403   0.106   0.873   4.656 -0.7726  0.2229 -0.5952
 7736TIP3    H247404   0.072   0.913   4.514 -0.1481 -1.3300 -1.2019
 7737TIP3   OH247405   5.096   4.696   3.275 -0.0083  0.1193  0.1860
 7737TIP3    H147406   5.176   4.644   3.283 -0.4026 -0.4065  0.7939
 7737TIP3    H247407   5.127   4.784   3.254  0.6103 -0.7724 -3.2047
 7738TIP3   OH247408   4.295   0.054   2.570 -0.2224  0.1637 -0.4970
 7738TIP3    H147409   4.199   0.047   2.569 -0.4254  1.9869 -2.4106
 7738TIP3    H247410   4.316   0.080   2.660 -1.6286  0.6442 -0.2775
 7739TIP3   OH247411   0.173   1.223   3.266  0.6706 -0.2778 -0.1382
 7739TIP3    H147412   0.095   1.243   3.214  2.1674 -0.9894 -2.8391
 7739TIP3    H247413   0.197   1.135   3.239  0.8733 -1.2016  2.7669
 7740TIP3   OH247414   2.927   3.821   3.325  0.3030  0.0576  0.3060
 7740TIP3    H147415   3.012   3.864   3.314  0.1337  0.5436  0.8649
 7740TIP3    H247416   2.864   3.893   3.331 -0.2935 -0.3004 -1.1071
 7741TIP3   OH247417   4.894   2.461   4.724  0.0629  0.5147  0.0571
 7741TIP3    H147418   4.902   2.433   4.815 -1.2229 -1.9378 -0.4995
 7741TIP3    H247419   4.833   2.535   4.727  0.5359  0.8858  1.2188
 7742TIP3   OH247420   4.551   5.377   2.807  0.2753 -0.0603  0.1672
 7742TIP3    H147421   4.535   5.470   2.792 -0.4776 -0.3035 -0.5652
 7742TIP3    H247422   4.529   5.364   2.899 -0.1403  0.3739  0.1328
 7743TIP3   OH247423   4.357   1.383   4.065  0.2570  0.4349  0.0732
 7743TIP3    H147424   4.398   1.448   4.123 -1.7024  2.3328 -0.5137
 7743TIP3    H247425   4.392   1.300   4.094  2.3460  1.6812  1.3735
 7744TIP3   OH247426   5.398   6.712   3.064  0.2199  0.3241 -0.2966
 7744TIP3    H147427   5.381   6.707   2.970  0.2482  0.7850 -0.3275
 7744TIP3    H247428   5.343   6.785   3.094 -0.2338 -0.1929  0.1426
 7745TIP3   OH247429   0.608   2.585   2.514  0.3822 -0.1775 -0.1806
 7745TIP3    H147430   0.672   2.519   2.490  1.1730  0.0589  1.1570
 7745TIP3    H247431   0.660   2.661   2.539 -0.4386  0.2174  0.3833
 7746TIP3   OH247432   2.606   3.309   2.496 -0.5307  0.2414  0.1980
 7746TIP3    H147433   2.567   3.311   2.408 -0.2805  0.8522  0.1006
 7746TIP3    H247434   2.531   3.292   2.554 -0.8336  0.7164 -0.0491
 7747TIP3   OH247435   0.842   3.563   3.842  0.0148 -0.4568  0.3384
 7747TIP3    H147436   0.792   3.494   3.799 -0.3214 -0.5928  0.9520
 7747TIP3    H247437   0.846   3.633   3.776 -1.1982 -0.3416  0.3721
 7748TIP3   OH247438   2.843   2.262   3.489 -0.0110 -0.3716 -0.4429
 7748TIP3    H147439   2.832   2.352   3.521 -0.2858 -0.5728  0.0440
 7748TIP3    H247440   2.899   2.271   3.412  2.8231 -0.0934  1.4703
 7749TIP3   OH247441   1.976   3.161   4.270  0.5452  0.3777  0.5960
 7749TIP3    H147442   2.005   3.220   4.340  1.0399  0.5794  0.2277
 7749TIP3    H247443   2.042   3.092   4.267  0.3926  0.2329  0.4941
 7750TIP3   OH247444   5.821   5.169   4.012  0.1673  0.0991 -0.2304
 7750TIP3    H147445   5.744   5.226   4.017  1.2105  1.4896  0.8446
 7750TIP3    H247446   5.828   5.145   3.920 -1.3608  0.1954 -0.3952
 7751TIP3   OH247447   0.327   2.205   2.346 -0.1013  0.4209  0.0598
 7751TIP3    H147448   0.341   2.157   2.428  0.3498  0.8366  0.2285
 7751TIP3    H247449   0.320   2.137   2.279 -2.8690 -0.1098  0.7375
 7752TIP3   OH247450   3.970   0.012   4.497 -0.1164  0.6519 -0.1211
 7752TIP3    H147451   4.035  -0.048   4.534  1.2091  1.3184 -1.2739
 7752TIP3    H247452   3.895   0.005   4.556  0.8799 -0.3728  1.0941
 7753TIP3   OH247453   4.506   1.846   3.439 -0.1282  1.0895  0.3013
 7753TIP3    H147454   4.599   1.840   3.417 -0.5060  1.0419 -1.4331
 7753TIP3    H247455   4.492   1.939   3.459  0.0448  1.3541 -0.7446
 7754TIP3   OH247456   5.233   4.491   4.382  0.7972  0.0575 -0.1889
 7754TIP3    H147457   5.231   4.404   4.421  2.6107  0.7898  1.7299
 7754TIP3    H247458   5.314   4.493   4.331  0.7132  0.5698 -0.3102
 7755TIP3   OH247459   2.871   3.185   5.575 -0.1054  0.4744 -0.0034
 7755TIP3    H147460   2.891   3.256   5.514 -0.0167  1.4739  1.1399
 7755TIP3    H247461   2.817   3.227   5.642 -0.0450 -0.5482  0.6958
 7756TIP3   OH247462   1.513   4.070   4.056 -0.4612  0.4517  0.4837
 7756TIP3    H147463   1.492   4.122   4.133 -0.3452  2.2347 -0.6502
 7756TIP3    H247464   1.428   4.048   4.018 -0.5613 -1.1051  1.4779
 7757TIP3   OH247465   1.999   3.158   5.461 -0.1451 -0.3527  0.3698
 7757TIP3    H147466   1.921   3.184   5.411  0.5040  1.5473  0.2559
 7757TIP3    H247467   2.064   3.225   5.441  1.2526 -1.4115  1.1526
 7758TIP3   OH247468   3.263   2.365   4.713 -0.5154  0.1444 -0.2036
 7758TIP3    H147469   3.219   2.394   4.793 -0.7484  1.2272 -0.7099
 7758TIP3    H247470   3.339   2.423   4.706  0.1139 -0.6641 -0.1915
 7759TIP3   OH247471   4.559   0.955   4.477  0.1733 -0.7075 -0.2363
 7759TIP3    H147472   4.524   1.041   4.452 -0.1661 -0.8436 -0.2336
 7759TIP3    H247473   4.647   0.973   4.510 -0.2732 -0.2409  0.7282
 7760TIP3   OH247474   0.016   0.276   5.396  0.5061  0.1791  0.2164
 7760TIP3    H147475  -0.019   0.339   5.334  2.1402  0.5028 -0.4284
 7760TIP3    H247476   0.014   0.192   5.349  0.5150  0.1807  0.2132
 7761TIP3   OH247477   4.058   4.906   3.677 -0.0326  0.0090 -0.1153
 7761TIP3    H147478   4.098   4.991   3.659  1.2168 -0.8413 -1.5629
 7761TIP3    H247479   3.967   4.927   3.699  0.3017  1.7287 -0.2051
 7762TIP3   OH247480   3.410   1.468   5.045 -0.0425  0.3457 -0.4364
 7762TIP3    H147481   3.355   1.483   5.122  1.0133  1.0329  0.2007
 7762TIP3    H247482   3.478   1.535   5.050  1.0922 -0.7249 -0.9999
 7763TIP3   OH247483   4.551   3.566   2.643 -0.1137  0.0169  0.0576
 7763TIP3    H147484   4.581   3.580   2.733  1.1741  1.3036 -0.5334
 7763TIP3    H247485   4.623   3.518   2.602 -0.5011 -0.1617 -0.4175
 7764TIP3   OH247486   3.413   3.433   4.816 -0.0945  0.2933 -0.3545
 7764TIP3    H147487   3.443   3.430   4.907 -0.9974  1.1432 -0.0110
 7764TIP3    H247488   3.470   3.496   4.773 -0.6534  1.0831  0.0288
 7765TIP3   OH247489   6.772   2.145   4.803 -0.7780  0.4523 -0.0496
 7765TIP3    H147490   6.795   2.215   4.741 -0.6336  0.4772  0.0321
 7765TIP3    H247491   6.740   2.191   4.880  1.5342  0.5452  0.9484
 7766TIP3   OH247492   4.457   3.599   4.361 -0.2573 -0.1229  0.0106
 7766TIP3    H147493   4.442   3.691   4.342 -2.8303 -0.4236  0.2992
 7766TIP3    H247494   4.403   3.580   4.437  0.0987 -1.9108 -0.1306
 7767TIP3   OH247495   3.407   1.097   2.106  0.0147  0.1774  0.0270
 7767TIP3    H147496   3.319   1.068   2.130  0.3190  0.2497  1.3160
 7767TIP3    H247497   3.454   1.016   2.085 -1.0576  0.2846 -3.4496
 7768TIP3   OH247498   3.517   3.925   3.175  0.1709 -0.1311  0.3945
 7768TIP3    H147499   3.537   3.932   3.268 -0.9325 -2.2161  0.8432
 7768TIP3    H247500   3.514   3.830   3.158 -0.1680  0.2008 -1.6495
 7769TIP3   OH247501   3.783   6.409   3.768 -0.3472  0.2124  0.3296
 7769TIP3    H147502   3.861   6.409   3.712 -0.0264  0.5242  0.7658
 7769TIP3    H247503   3.806   6.468   3.840 -1.2331  0.8248  0.1235
 7770TIP3   OH247504   2.622   0.217   3.145  0.1825  0.6223 -0.1357
 7770TIP3    H147505   2.700   0.210   3.089  0.3261  2.7946 -0.2717
 7770TIP3    H247506   2.638   0.153   3.215  1.5009  0.1490 -0.8211
 7771TIP3   OH247507   2.879   0.261   2.173  0.8996  0.2743  0.0525
 7771TIP3    H147508   2.951   0.233   2.229  0.6295  3.0632  1.9968
 7771TIP3    H247509   2.904   0.348   2.143 -0.3711  0.1029 -1.7121
 7772TIP3   OH247510   4.904   6.645   1.757 -0.0705  0.4062  0.2931
 7772TIP3    H147511   4.947   6.693   1.685  0.9816  1.1027  1.3427
 7772TIP3    H247512   4.957   6.567   1.768 -0.8341 -0.2149 -0.3438
 7773TIP3   OH247513   5.334   1.736   4.029  0.4031  0.3464  0.4933
 7773TIP3    H147514   5.323   1.698   4.116 -0.3588 -1.0632 -0.1835
 7773TIP3    H247515   5.246   1.733   3.990  0.7703  0.7604 -0.3912
 7774TIP3   OH247516   4.916   2.427   5.006  0.1507  0.1292 -0.0730
 7774TIP3    H147517   4.878   2.369   5.073 -1.9274  0.6360 -0.7442
 7774TIP3    H247518   4.891   2.515   5.034  0.5056  0.4590 -0.7695
 7775TIP3   OH247519   1.130   6.300   5.101  0.3751  0.2093  0.1753
 7775TIP3    H147520   1.068   6.372   5.105 -0.2816 -0.3817  1.3642
 7775TIP3    H247521   1.106   6.244   5.175  0.4052 -1.5957 -1.1263
 7776TIP3   OH247522   0.208   4.757   2.385  1.0198 -0.4181  0.1735
 7776TIP3    H147523   0.115   4.751   2.406  0.7458  0.8833 -0.5148
 7776TIP3    H247524   0.241   4.668   2.394  0.1669 -0.5724  2.4528
 7777TIP3   OH247525   4.103   5.688   1.705  0.0356  0.1229 -0.4168
 7777TIP3    H147526   4.097   5.660   1.797 -1.1567  1.4529 -0.0554
 7777TIP3    H247527   4.030   5.643   1.662  0.4925 -0.3664 -0.6939
 7778TIP3   OH247528   3.128   2.616   4.149 -0.3165 -0.4465 -0.3605
 7778TIP3    H147529   3.068   2.685   4.180  0.0511  0.0244 -0.6901
 7778TIP3    H247530   3.088   2.535   4.180 -0.4387 -0.0472  0.5591
 7779TIP3   OH247531   0.106   5.537   4.794 -0.0299  0.4385  0.3503
 7779TIP3    H147532   0.155   5.579   4.865  1.4984  2.0014 -1.5067
 7779TIP3    H247533   0.158   5.555   4.715 -2.4788  0.2401 -1.4344
 7780TIP3   OH247534   5.121   1.062   2.473 -0.3753 -0.0697 -0.5653
 7780TIP3    H147535   5.138   1.137   2.531 -0.5643 -1.1725  0.9735
 7780TIP3    H247536   5.207   1.040   2.438 -0.3283  0.9030 -1.1001
 7781TIP3   OH247537   1.223   3.080   5.106 -0.1638  0.0651  0.0810
 7781TIP3    H147538   1.164   3.135   5.156 -0.1608 -0.2063  0.3902
 7781TIP3    H247539   1.173   3.000   5.088  0.2737 -0.3863  0.8015
 7782TIP3   OH247540   3.059   5.945   2.055 -0.0261  0.5540  0.1001
 7782TIP3    H147541   3.133   5.976   2.108  0.1823 -0.2696  0.3051
 7782TIP3    H247542   3.007   6.024   2.038  1.2967  1.2915 -0.6896
 7783TIP3   OH247543   3.258   2.301   2.295 -0.6622 -0.1869 -0.3226
 7783TIP3    H147544   3.316   2.306   2.371  0.6865  1.7046 -1.3792
 7783TIP3    H247545   3.226   2.211   2.295 -0.9004 -0.1929  2.5836
 7784TIP3   OH247546   5.395   5.265   4.761  0.7533 -0.5527  0.5256
 7784TIP3    H147547   5.312   5.262   4.713  0.3771 -2.2646  1.2260
 7784TIP3    H247548   5.453   5.317   4.705 -0.7548  0.6612  0.0008
 7785TIP3   OH247549   6.570   2.727   2.945 -0.0009 -0.0988 -0.1758
 7785TIP3    H147550   6.548   2.818   2.965 -0.3457 -0.5660  1.7503
 7785TIP3    H247551   6.666   2.726   2.942 -0.0113  0.4925 -1.1526
 7786TIP3   OH247552   5.810   3.086   4.233 -0.3235 -0.2441 -0.1085
 7786TIP3    H147553   5.806   3.182   4.234  2.2390  0.0281 -2.3439
 7786TIP3    H247554   5.787   3.062   4.144 -2.7223 -1.9503  0.8764
 7787TIP3   OH247555   6.198   5.986   2.167 -0.0836  0.0381  0.2225
 7787TIP3    H147556   6.185   5.958   2.258  0.7312  0.1251  0.3742
 7787TIP3    H247557   6.230   5.907   2.123 -0.7755 -0.0877 -0.0683
 7788TIP3   OH247558   2.160   5.191   3.180 -0.1509  0.7631  0.2718
 7788TIP3    H147559   2.129   5.232   3.261  0.5967  1.3581  0.2681
 7788TIP3    H247560   2.175   5.265   3.121 -1.1143  0.3061 -0.5741
 7789TIP3   OH247561   3.256   5.761   2.796  0.4744 -0.5902  0.0566
 7789TIP3    H147562   3.204   5.802   2.727  0.1245  2.7416  2.0916
 7789TIP3    H247563   3.280   5.675   2.760 -0.9618  0.3274 -3.5202
 7790TIP3   OH247564   0.595   5.571   3.838 -0.2576  0.2421 -0.0357
 7790TIP3    H147565   0.537   5.648   3.832 -1.0198 -0.3105  0.0968
 7790TIP3    H247566   0.624   5.556   3.748  0.4802  1.1086  0.0360
 7791TIP3   OH247567   5.141   2.729   2.565 -0.4040  0.1006  0.0281
 7791TIP3    H147568   5.107   2.773   2.643  1.9323  0.6257  0.8453
 7791TIP3    H247569   5.121   2.788   2.493 -0.1942  0.9333  0.6427
 7792TIP3   OH247570   6.135   4.722   3.668 -0.0113  0.0940  0.1937
 7792TIP3    H147571   6.111   4.636   3.704 -0.1777  0.6518  1.4802
 7792TIP3    H247572   6.132   4.710   3.573  0.2405 -1.3970  0.3472
 7793TIP3   OH247573   2.531   3.312   4.037  0.1366 -0.4609 -0.6076
 7793TIP3    H147574   2.491   3.316   4.124 -0.0662 -0.4992 -0.6973
 7793TIP3    H247575   2.622   3.336   4.051 -0.3598  1.6605 -0.6727
 7794TIP3   OH247576   6.831   3.891   4.204 -0.3358  0.2225 -0.4371
 7794TIP3    H147577   6.893   3.826   4.171 -0.1251  1.1509 -1.9690
 7794TIP3    H247578   6.783   3.919   4.126 -1.9225  0.3327  0.5407
 7795TIP3   OH247579   3.734   1.313   3.861 -0.4717  0.0396  0.2267
 7795TIP3    H147580   3.722   1.345   3.772 -1.5961  1.3420  0.8029
 7795TIP3    H247581   3.686   1.231   3.864 -0.9155  0.2763 -0.2287
 7796TIP3   OH247582   1.161   0.438   2.105 -0.2630 -0.2510 -0.2582
 7796TIP3    H147583   1.233   0.405   2.051 -2.2997 -2.6156 -1.7242
 7796TIP3    H247584   1.169   0.533   2.099  1.0862 -0.4332 -2.7123
 7797TIP3   OH247585   3.861   3.024   4.133  0.2020  0.2245  0.2938
 7797TIP3    H147586   3.949   3.020   4.097 -0.5941  1.8008 -2.1199
 7797TIP3    H247587   3.817   3.091   4.081 -1.6648  1.4777  3.1842
 7798TIP3   OH247588   1.381   0.175   2.946 -0.1614 -0.6011 -0.0782
 7798TIP3    H147589   1.392   0.270   2.934  0.3848 -0.8023 -1.2962
 7798TIP3    H247590   1.291   0.166   2.978  0.3048  0.4352  1.6297
 7799TIP3   OH247591   4.983   3.203   4.790  0.2231 -0.2293  0.0395
 7799TIP3    H147592   5.050   3.191   4.857 -1.0238 -1.3040  1.1486
 7799TIP3    H247593   5.028   3.184   4.707  2.4112  3.3354  0.1981
 7800TIP3   OH247594   6.579   0.953   4.240 -0.5011  0.2462  0.3040
 7800TIP3    H147595   6.633   0.909   4.175  0.6046  0.4560  1.0611
 7800TIP3    H247596   6.624   1.036   4.257 -2.3594  1.5970 -0.8667
 7801TIP3   OH247597   6.554   0.823   2.757  0.7420  0.0371  0.2797
 7801TIP3    H147598   6.507   0.842   2.676 -0.5290 -0.2591  0.9383
 7801TIP3    H247599   6.630   0.772   2.729  0.4949  0.2151 -0.7506
 7802TIP3   OH247600   1.500   2.964   2.925 -0.1043 -0.0659 -0.5135
 7802TIP3    H147601   1.412   2.989   2.896 -0.4023 -0.0604  0.3785
 7802TIP3    H247602   1.532   2.906   2.855 -1.1636 -0.7967 -0.4248
 7803TIP3   OH247603   1.338   1.207   3.092 -0.2937 -0.0657  0.0990
 7803TIP3    H147604   1.310   1.117   3.072  2.7467 -0.8299 -1.3344
 7803TIP3    H247605   1.287   1.262   3.032 -0.5929 -1.1016 -0.6283
 7804TIP3   OH247606   6.377   5.522   4.130  0.2440  0.4914 -0.2951
 7804TIP3    H147607   6.431   5.551   4.203 -0.7588  2.4735 -0.2748
 7804TIP3    H247608   6.439   5.507   4.059  1.0736 -0.0441  0.5034
 7805TIP3   OH247609   2.785   4.044   3.319  0.0496  0.1494 -0.5938
 7805TIP3    H147610   2.711   4.048   3.380 -0.4234 -0.4823 -1.1228
 7805TIP3    H247611   2.837   4.122   3.341 -0.4326  0.2617  0.2043
 7806TIP3   OH247612   6.620   5.066   3.898  0.0508 -0.3846 -0.5941
 7806TIP3    H147613   6.656   5.037   3.814  1.4571 -0.5163  0.0393
 7806TIP3    H247614   6.543   5.118   3.874  0.8213  0.1501 -2.0037
 7807TIP3   OH247615   2.993   5.448   4.935 -0.1947 -0.0176  0.3688
 7807TIP3    H147616   3.032   5.419   4.852 -1.0934 -1.0973  0.3082
 7807TIP3    H247617   2.998   5.544   4.931  1.4064 -0.0771 -0.1289
 7808TIP3   OH247618   4.734   1.736   4.385  0.3773 -0.2286 -0.0917
 7808TIP3    H147619   4.650   1.782   4.384  0.6950  0.3581 -0.5224
 7808TIP3    H247620   4.779   1.765   4.306  0.3560 -1.7485 -0.6946
 7809TIP3   OH247621   0.572   0.517   2.726 -0.5286  0.3576 -0.1045
 7809TIP3    H147622   0.506   0.577   2.760 -0.3317  0.9630 -0.7601
 7809TIP3    H247623   0.614   0.481   2.803  0.7959  2.6697  0.3664
 7810TIP3   OH247624   5.382   3.619   2.392  0.0102  0.1093 -0.1527
 7810TIP3    H147625   5.316   3.657   2.335 -1.2971 -1.7866 -0.0129
 7810TIP3    H247626   5.428   3.555   2.336 -0.1684 -0.5713  0.4588
 7811TIP3   OH247627   3.792   3.880   2.601 -0.0735  0.2477 -0.1750
 7811TIP3    H147628   3.846   3.929   2.663  0.7271  0.5915 -1.1154
 7811TIP3    H247629   3.727   3.944   2.570 -0.1134  0.2313 -0.1262
 7812TIP3   OH247630   0.814   5.871   2.137  0.2537 -0.4888  0.3350
 7812TIP3    H147631   0.893   5.840   2.181 -0.4420  1.0157  2.8112
 7812TIP3    H247632   0.823   5.966   2.136 -0.9529 -0.3626 -0.4952
 7813TIP3   OH247633   4.912   1.421   2.505  0.4530 -0.0409 -0.0139
 7813TIP3    H147634   4.913   1.515   2.489  3.4004  0.1568  0.7342
 7813TIP3    H247635   4.843   1.408   2.571 -0.0330  1.5572 -0.1745
 7814TIP3   OH247636   5.117   4.901   4.176 -0.0663 -0.3833  0.4242
 7814TIP3    H147637   5.134   4.863   4.263  0.0147 -1.3272  0.0045
 7814TIP3    H247638   5.164   4.843   4.115 -1.3781 -0.6177 -0.3903
 7815TIP3   OH247639   5.117   5.214   2.601  0.0980 -0.6473  0.0195
 7815TIP3    H147640   5.193   5.272   2.612 -0.7236  0.7860 -1.4914
 7815TIP3    H247641   5.066   5.226   2.681  1.0367 -1.0101  0.6935
 7816TIP3   OH247642   1.380   3.773   5.097  0.1309  0.2491  0.0551
 7816TIP3    H147643   1.470   3.794   5.122  0.0141  0.2839  0.4582
 7816TIP3    H247644   1.329   3.788   5.177 -0.3479  0.9547 -0.3777
 7817TIP3   OH247645   2.850   2.020   1.715  0.2655 -0.2877  0.1569
 7817TIP3    H147646   2.887   1.935   1.740  0.8482 -0.2257 -0.4836
 7817TIP3    H247647   2.912   2.056   1.652  0.0524  0.6439  0.4667
 7818TIP3   OH247648   0.251   6.507   4.006  0.1033 -0.2352  0.1864
 7818TIP3    H147649   0.292   6.477   3.925  0.9849  1.9382 -0.2387
 7818TIP3    H247650   0.214   6.592   3.985 -2.6068 -1.0364  1.2433
 7819TIP3   OH247651   0.846   6.591   2.223  0.4585  0.4279  0.8537
 7819TIP3    H147652   0.803   6.590   2.137 -0.7296 -0.5458  1.4148
 7819TIP3    H247653   0.817   6.509   2.265 -0.7748  1.8698  3.0160
 7820TIP3   OH247654   4.648   4.865   5.202  0.0137  0.2728 -0.2343
 7820TIP3    H147655   4.732   4.897   5.169 -0.4870  1.7069 -0.2256
 7820TIP3    H247656   4.587   4.878   5.129 -0.2847 -0.3701 -0.1060
 7821TIP3   OH247657   3.197   6.192   5.705 -0.0683 -0.6167 -0.3837
 7821TIP3    H147658   3.123   6.149   5.747  0.2026 -1.2078 -0.5028
 7821TIP3    H247659   3.264   6.124   5.697  1.0349  0.2418  1.0038
 7822TIP3   OH247660   1.239   1.329   4.049  0.7477  0.8634 -0.0727
 7822TIP3    H147661   1.164   1.382   4.022  0.2991  0.7543  0.9125
 7822TIP3    H247662   1.227   1.316   4.143  0.7331 -1.1568 -0.2942
 7823TIP3   OH247663   6.803   3.805   5.266 -0.6264  0.0164  0.3119
 7823TIP3    H147664   6.892   3.833   5.284 -0.4415 -0.3094 -0.0607
 7823TIP3    H247665   6.771   3.865   5.199 -0.9960  0.6694  1.0605
 7824TIP3   OH247666   2.726   4.196   3.013  0.1018  0.0242 -0.1788
 7824TIP3    H147667   2.648   4.250   3.007 -0.2677 -0.3494  0.9165
 7824TIP3    H247668   2.790   4.252   3.058 -0.6467 -0.7611  2.0138
 7825TIP3   OH247669   1.601   5.832   3.503  0.3763  0.1443  0.5461
 7825TIP3    H147670   1.628   5.837   3.411  0.8228  1.8522  0.7489
 7825TIP3    H247671   1.564   5.744   3.512  0.1736 -0.0005 -1.3126
 7826TIP3   OH247672   0.832   5.202   4.540 -0.4951 -0.2804 -0.0561
 7826TIP3    H147673   0.814   5.295   4.550  1.6476 -0.0515  3.0669
 7826TIP3    H247674   0.751   5.159   4.569 -1.0965  0.5559 -0.4390
 7827TIP3   OH247675   2.022   0.167   4.262  0.5110  0.3924  0.0948
 7827TIP3    H147676   1.935   0.157   4.224  0.9957  0.7855 -1.1577
 7827TIP3    H247677   2.016   0.121   4.346 -0.7511 -0.0196 -0.1895
 7828TIP3   OH247678   6.568   6.207   2.205  0.4187  0.2913 -0.8880
 7828TIP3    H147679   6.648   6.153   2.201  0.6886  0.4115  1.5103
 7828TIP3    H247680   6.518   6.170   2.277 -0.3081  2.0564 -0.4461
 7829TIP3   OH247681   3.382   6.701   4.546 -0.2004 -0.2588  0.2084
 7829TIP3    H147682   3.332   6.713   4.465  1.9279 -1.4889 -1.4057
 7829TIP3    H247683   3.470   6.730   4.524  0.5951 -1.2421  1.9001
 7830TIP3   OH247684   1.237   1.279   4.322  0.0022  0.0016  0.5638
 7830TIP3    H147685   1.261   1.191   4.352 -1.8517 -1.3357 -1.6050
 7830TIP3    H247686   1.208   1.324   4.402  0.5912 -1.4759  1.6567
 7831TIP3   OH247687   1.753   2.077   2.731  0.5327 -0.3965 -0.2267
 7831TIP3    H147688   1.733   2.170   2.722 -0.7875 -0.8480 -3.1737
 7831TIP3    H247689   1.703   2.049   2.807 -0.2124  1.0338 -0.1557
 7832TIP3   OH247690   4.258   4.036   3.177  0.5487 -0.4727 -0.4085
 7832TIP3    H147691   4.339   4.084   3.193  0.1576  0.3490 -0.8216
 7832TIP3    H247692   4.252   4.032   3.081 -1.2228  1.8541 -0.4903
 7833TIP3   OH247693   1.622   4.837   4.303 -0.0022 -0.1720  0.3834
 7833TIP3    H147694   1.580   4.764   4.258  0.0866 -0.4384  0.7293
 7833TIP3    H247695   1.599   4.914   4.250  1.6661 -0.6885 -1.2048
 7834TIP3   OH247696   1.607   2.299   2.861  0.5554 -0.3142 -0.1404
 7834TIP3    H147697   1.565   2.363   2.919 -0.4422 -1.3657  0.3436
 7834TIP3    H247698   1.534   2.262   2.811  0.7205 -2.8455  1.3479
 7835TIP3   OH247699   3.717   3.766   2.351  0.0842  0.0277 -0.1676
 7835TIP3    H147700   3.655   3.820   2.301 -0.1189  0.4518  0.5302
 7835TIP3    H247701   3.747   3.823   2.421 -0.0809 -0.7577  0.5509
 7836TIP3   OH247702   3.699   1.403   2.535  0.1671  0.5148  0.2819
 7836TIP3    H147703   3.755   1.382   2.460 -1.6591 -1.7141 -0.5782
 7836TIP3    H247704   3.715   1.332   2.597 -0.8298  0.4872  0.5227
 7837TIP3   OH247705   4.617   6.325   2.121 -0.8596 -0.3020 -0.2430
 7837TIP3    H147706   4.713   6.322   2.121 -0.6815  0.7089  3.1476
 7837TIP3    H247707   4.591   6.238   2.151 -1.0706 -0.7047 -1.5388
 7838TIP3   OH247708   2.546   6.792   2.162 -0.0928  0.2521  0.3547
 7838TIP3    H147709   2.491   6.865   2.191  0.3527  0.5061  0.5671
 7838TIP3    H247710   2.623   6.834   2.122  0.5405 -0.0921  1.1835
 7839TIP3   OH247711   0.906   5.481   2.268  0.5662 -0.4562  0.7533
 7839TIP3    H147712   0.863   5.398   2.247  1.2217 -0.9459  1.2952
 7839TIP3    H247713   0.953   5.505   2.188 -0.8764  0.2084  0.0745
 7840TIP3   OH247714   3.987   0.289   4.121 -0.0361 -0.4328 -0.4164
 7840TIP3    H147715   4.061   0.345   4.099 -1.1326  1.7697  1.0521
 7840TIP3    H247716   3.952   0.261   4.036  1.6357 -0.3948 -1.1548
 7841TIP3   OH247717   5.523   0.104   2.058 -0.1570  0.0160  0.3563
 7841TIP3    H147718   5.586   0.034   2.075  0.9371  0.5468 -1.2627
 7841TIP3    H247719   5.438   0.062   2.067  0.4038 -0.8841  1.9418
 7842TIP3   OH247720   0.925   0.882   4.965 -0.0518  0.8438  0.4438
 7842TIP3    H147721   1.006   0.832   4.955  0.8912  2.4120 -0.1459
 7842TIP3    H247722   0.887   0.851   5.047  1.4763  0.5484  1.0628
 7843TIP3   OH247723   6.577   0.435   3.905  0.3522 -0.5684  0.0338
 7843TIP3    H147724   6.565   0.340   3.902 -3.2418 -0.3935  2.5408
 7843TIP3    H247725   6.536   0.466   3.824  0.7030 -1.0545 -0.3435
 7844TIP3   OH247726   2.026   2.257   4.947  0.4397  0.1389 -0.2278
 7844TIP3    H147727   2.110   2.224   4.915  0.2364  0.0769 -0.7054
 7844TIP3    H247728   2.043   2.282   5.038  0.2871 -2.5293  0.6266
 7845TIP3   OH247729   4.948   6.724   2.028 -0.0691  0.1175  0.0682
 7845TIP3    H147730   4.868   6.776   2.023 -1.1744 -1.4278  0.8751
 7845TIP3    H247731   4.942   6.663   1.954  0.5114  0.1558 -0.0205
 7846TIP3   OH247732   4.684   6.340   4.612 -0.7611 -0.3398 -0.0509
 7846TIP3    H147733   4.692   6.284   4.534 -0.0050 -0.1132 -0.1413
 7846TIP3    H247734   4.728   6.421   4.588 -3.0286  0.8738 -0.4227
 7847TIP3   OH247735   1.304   3.991   3.868  0.5152 -0.4031 -0.1022
 7847TIP3    H147736   1.239   4.060   3.856  0.5149 -0.4529 -0.4079
 7847TIP3    H247737   1.259   3.910   3.844  0.4932 -0.5208  0.3294
 7848TIP3   OH247738   2.469   2.993   4.493 -0.1828  0.0772 -0.3422
 7848TIP3    H147739   2.524   3.018   4.567  1.6145 -0.4090 -1.4577
 7848TIP3    H247740   2.516   2.922   4.451 -1.6267 -0.2785 -1.4354
 7849TIP3   OH247741   0.532   0.913   2.585  0.0875  0.2256 -0.5114
 7849TIP3    H147742   0.455   0.861   2.606  0.2002 -0.4427 -1.6879
 7849TIP3    H247743   0.606   0.853   2.600  0.2598  0.2620 -1.1886
 7850TIP3   OH247744   4.110   0.565   5.753  0.3340  0.4809  0.4824
 7850TIP3    H147745   4.193   0.613   5.748  0.2574  0.4871 -1.8940
 7850TIP3    H247746   4.132   0.477   5.724 -0.4123  0.3923  0.1704
 7851TIP3   OH247747   4.963   3.509   4.445 -0.0298  0.1450  0.0804
 7851TIP3    H147748   4.877   3.530   4.408 -0.5435  0.1480  1.2296
 7851TIP3    H247749   4.946   3.497   4.539  1.4838  1.6916  0.5995
 7852TIP3   OH247750   3.529   6.842   3.954 -0.1807 -0.5047 -0.5959
 7852TIP3    H147751   3.618   6.818   3.929  0.0130  1.8250 -2.4354
 7852TIP3    H247752   3.472   6.788   3.898  0.1626  0.5424 -1.9814
 7853TIP3   OH247753   1.020   6.194   2.426  0.2335 -0.1882  0.1386
 7853TIP3    H147754   1.114   6.200   2.408  0.2590 -0.4836  0.1681
 7853TIP3    H247755   1.010   6.113   2.475  0.1484  0.5097  1.3295
 7854TIP3   OH247756   1.065   4.149   4.159 -0.3050 -0.3157 -0.3920
 7854TIP3    H147757   0.989   4.149   4.218  0.8921  0.2485  1.2246
 7854TIP3    H247758   1.132   4.197   4.207  1.4171 -1.6754 -1.3326
 7855TIP3   OH247759   4.540   1.479   3.829 -0.2766  0.4471  0.1241
 7855TIP3    H147760   4.487   1.497   3.751 -1.4364 -0.2073  0.7327
 7855TIP3    H247761   4.522   1.553   3.887  1.1245  1.2886 -0.4741
 7856TIP3   OH247762   0.246   2.115   3.814  0.0273  0.2397  0.3980
 7856TIP3    H147763   0.336   2.132   3.842 -0.7927  1.3111  2.6575
 7856TIP3    H247764   0.237   2.164   3.733  1.8585 -1.0640 -0.6784
 7857TIP3   OH247765   4.588   4.289   1.963 -0.1630 -0.4026  0.6998
 7857TIP3    H147766   4.574   4.262   2.054 -0.5997 -0.1278  0.7133
 7857TIP3    H247767   4.647   4.222   1.928  0.1125 -0.4416  1.2178
 7858TIP3   OH247768   3.263   1.453   5.278  0.3493  0.0123  0.4598
 7858TIP3    H147769   3.276   1.362   5.306  1.6629 -0.3585 -1.1738
 7858TIP3    H247770   3.239   1.500   5.358  0.6959 -1.5721  1.5315
 7859TIP3   OH247771   6.433   1.288   4.747 -0.0351 -0.2148  0.0203
 7859TIP3    H147772   6.409   1.283   4.655 -2.0834  1.0920  0.4041
 7859TIP3    H247773   6.470   1.376   4.758  0.7388 -0.5717  0.3403
 7860TIP3   OH247774   6.238   3.593   4.083 -0.3596  0.9989 -0.1870
 7860TIP3    H147775   6.188   3.516   4.054 -0.1617  1.0268 -0.6137
 7860TIP3    H247776   6.223   3.658   4.014 -1.2280  1.6476  0.5927
 7861TIP3   OH247777   6.251   0.795   2.870  0.6944  0.2503 -0.0048
 7861TIP3    H147778   6.159   0.776   2.889  0.8458 -0.5293  0.0067
 7861TIP3    H247779   6.254   0.807   2.775  0.4697  0.9762  0.0748
 7862TIP3   OH247780   2.241   5.448   2.193  0.0177  0.2410 -0.2159
 7862TIP3    H147781   2.199   5.402   2.266 -0.8839  0.8135 -0.3636
 7862TIP3    H247782   2.274   5.378   2.136  0.5887 -0.2146  0.6392
 7863TIP3   OH247783   6.435   5.375   2.632 -0.3019  0.1476  0.2296
 7863TIP3    H147784   6.453   5.287   2.664  0.0465  0.6067  1.3374
 7863TIP3    H247785   6.396   5.420   2.707 -2.0985  0.4414 -0.8353
 7864TIP3   OH247786   1.523   2.661   5.223 -0.1499 -0.9714 -0.1017
 7864TIP3    H147787   1.500   2.750   5.197 -1.3713 -1.9514 -2.7868
 7864TIP3    H247788   1.603   2.641   5.173  0.4012 -1.2566  0.8547
 7865TIP3   OH247789   1.216   4.151   5.101  0.2575  0.3420  0.3567
 7865TIP3    H147790   1.142   4.206   5.073  0.0630  0.2211  0.6299
 7865TIP3    H247791   1.189   4.115   5.185  0.7550  0.5284  0.5972
 7866TIP3   OH247792   6.231   5.477   5.384  0.0692  0.1301 -0.0560
 7866TIP3    H147793   6.197   5.557   5.344 -1.6568  0.7877  2.5291
 7866TIP3    H247794   6.317   5.464   5.342 -0.4936  2.1441 -2.0033
 7867TIP3   OH247795   6.249   0.297   3.834  0.5745  0.3440  0.3753
 7867TIP3    H147796   6.248   0.387   3.866  2.3560  1.0132 -1.2260
 7867TIP3    H247797   6.338   0.266   3.851  0.6653 -0.3177 -1.0814
 7868TIP3   OH247798   3.649   3.597   2.902 -0.4008  0.0692 -0.0234
 7868TIP3    H147799   3.653   3.502   2.890 -1.3000  0.1464 -1.0716
 7868TIP3    H247800   3.696   3.613   2.983 -2.1063 -1.5038  1.3588
 7869TIP3   OH247801   0.813   6.776   3.285  0.4051  0.0782 -0.1028
 7869TIP3    H147802   0.782   6.765   3.375  1.0356 -1.5736 -0.0616
 7869TIP3    H247803   0.909   6.780   3.294  0.4755 -0.2500 -0.7059
 7870TIP3   OH247804   3.134   1.759   5.225  0.1194 -0.0545 -0.4216
 7870TIP3    H147805   3.096   1.707   5.155 -0.4099 -0.6997  0.3336
 7870TIP3    H247806   3.221   1.783   5.192 -0.2908  0.0493 -1.4796
 7871TIP3   OH247807   5.989   6.287   3.017 -0.1478  0.1955  0.2426
 7871TIP3    H147808   5.944   6.222   2.962  1.4459 -0.6365 -0.1505
 7871TIP3    H247809   5.920   6.346   3.046 -1.2139  0.0577 -1.8117
 7872TIP3   OH247810   5.877   5.125   3.729  0.9043 -0.2955  0.2995
 7872TIP3    H147811   5.799   5.086   3.690 -0.1309 -0.8504  2.7357
 7872TIP3    H247812   5.937   5.138   3.655 -1.3973  0.0248 -1.6303
 7873TIP3   OH247813   0.582   6.322   2.598 -0.2689  0.0920  0.4154
 7873TIP3    H147814   0.635   6.400   2.618 -0.3817 -0.0981  1.5495
 7873TIP3    H247815   0.632   6.250   2.635 -2.3431  0.1300  3.6791
 7874TIP3   OH247816   2.474   3.036   2.132 -0.0451  0.4066  0.1295
 7874TIP3    H147817   2.520   3.092   2.070  0.9452  0.2674  0.7116
 7874TIP3    H247818   2.533   2.961   2.144 -0.4303  0.2195  0.8913
 7875TIP3   OH247819   6.068   3.482   2.461 -0.7625  0.2086 -0.3634
 7875TIP3    H147820   6.119   3.510   2.384 -0.2321 -1.2030 -0.5564
 7875TIP3    H247821   5.977   3.486   2.432 -0.7414  1.8698 -0.3143
 7876TIP3   OH247822   0.005   5.685   3.115  0.2034 -0.1490 -0.1653
 7876TIP3    H147823   0.067   5.645   3.054  1.0753 -0.0318  0.6177
 7876TIP3    H247824  -0.043   5.610   3.151  1.0146 -0.4089  0.4149
 7877TIP3   OH247825   6.449   2.793   2.674 -0.2763  0.0077  0.3426
 7877TIP3    H147826   6.502   2.746   2.738  0.5927 -1.2106 -1.2041
 7877TIP3    H247827   6.406   2.725   2.623 -1.8728  0.9622  0.3305
 7878TIP3   OH247828   1.127   2.453   3.597  0.2716  0.0209 -0.1616
 7878TIP3    H147829   1.096   2.363   3.601 -2.0923  0.6981 -1.4151
 7878TIP3    H247830   1.110   2.481   3.507  1.1218  1.6742  0.1470
 7879TIP3   OH247831   4.082   3.007   2.703  0.2514  0.2234  0.2132
 7879TIP3    H147832   4.068   3.004   2.798 -1.2030 -0.0187  0.0154
 7879TIP3    H247833   4.094   2.915   2.678 -0.4103  0.1770  0.0385
 7880TIP3   OH247834   2.778   3.286   5.201 -0.2077  0.5911  0.1460
 7880TIP3    H147835   2.840   3.285   5.275  0.0337  2.3515  0.0118
 7880TIP3    H247836   2.780   3.197   5.167  0.8472  0.1368  1.3107
 7881TIP3   OH247837   6.255   0.938   4.743 -0.2788  0.1522  0.2771
 7881TIP3    H147838   6.301   0.854   4.733 -1.4561 -0.5567  0.6537
 7881TIP3    H247839   6.195   0.941   4.669 -0.0416  0.8090  0.1068
 7882TIP3   OH247840   6.808   0.359   2.950 -0.1568 -0.4961  0.0032
 7882TIP3    H147841   6.764   0.357   2.865 -2.4359 -1.7706  1.1309
 7882TIP3    H247842   6.764   0.429   2.998  0.5221 -0.3660  0.4537
 7883TIP3   OH247843   2.156   3.226   2.452 -0.2366  0.0800  0.2373
 7883TIP3    H147844   2.078   3.269   2.487  0.2380  0.6762  0.5639
 7883TIP3    H247845   2.132   3.133   2.449 -0.5115  0.0845  1.5764
 7884TIP3   OH247846   3.158   5.154   2.097  0.0324  0.4988  0.8575
 7884TIP3    H147847   3.227   5.193   2.151  0.3224 -0.6536  1.3416
 7884TIP3    H247848   3.130   5.077   2.145  0.0841 -0.3999 -0.4828
 7885TIP3   OH247849   1.036   2.069   2.720 -0.3099 -0.6172 -0.4183
 7885TIP3    H147850   1.065   1.993   2.670 -0.1241 -0.6400 -0.2786
 7885TIP3    H247851   1.065   2.052   2.809  1.4300  0.4718 -0.7212
 7886TIP3   OH247852   4.525   4.119   3.633  0.1303 -0.2921 -0.0050
 7886TIP3    H147853   4.527   4.149   3.542  2.6050 -0.2963  0.0073
 7886TIP3    H247854   4.614   4.090   3.652 -0.5560 -1.2144  2.1378
 7887TIP3   OH247855   3.018   5.485   2.919  0.0655 -0.1030 -0.3389
 7887TIP3    H147856   2.942   5.460   2.972  1.7070 -0.2811  2.0836
 7887TIP3    H247857   3.030   5.411   2.859 -1.5161 -0.1735 -0.6192
 7888TIP3   OH247858   3.028   2.709   3.335  0.0024 -0.4407 -0.6104
 7888TIP3    H147859   3.063   2.748   3.255  0.1852  2.6117  0.8289
 7888TIP3    H247860   2.938   2.686   3.312  0.3427 -0.5369 -1.9446
 7889TIP3   OH247861   5.357   0.648   3.283 -0.2017 -0.0100  0.4058
 7889TIP3    H147862   5.279   0.614   3.327 -0.9327  0.8914 -0.1654
 7889TIP3    H247863   5.391   0.714   3.344 -0.1346 -0.0874  0.4531
 7890TIP3   OH247864   6.628   6.342   2.962  0.2512  0.2949 -0.5241
 7890TIP3    H147865   6.718   6.329   2.934  0.4233 -0.5077  0.3661
 7890TIP3    H247866   6.614   6.278   3.032 -0.3323  1.8619  0.8664
 7891TIP3   OH247867   0.929   1.621   4.537  0.2376  0.3375  0.0027
 7891TIP3    H147868   0.980   1.631   4.617 -1.2904  0.7032  0.9873
 7891TIP3    H247869   0.838   1.635   4.565 -0.5853 -1.8496 -1.3516
 7892TIP3   OH247870   2.162   5.265   2.458 -0.0915 -0.0142 -0.2850
 7892TIP3    H147871   2.076   5.237   2.490  0.8138 -2.0872  0.4556
 7892TIP3    H247872   2.200   5.315   2.531 -0.0882 -0.3441 -0.0595
 7893TIP3   OH247873   5.537   3.960   3.543  0.1540 -0.1561  0.1653
 7893TIP3    H147874   5.568   3.875   3.574 -0.5794  0.0877  1.6240
 7893TIP3    H247875   5.510   4.007   3.622 -0.1199  1.1750 -0.6788
 7894TIP3   OH247876   2.258   0.138   4.118 -0.0589 -0.0025  0.1313
 7894TIP3    H147877   2.175   0.147   4.164 -1.0784  0.5102 -1.7082
 7894TIP3    H247878   2.324   0.170   4.180 -1.2425 -0.2078  1.5357
 7895TIP3   OH247879   0.856   2.689   2.868 -0.0528  0.8997  0.0792
 7895TIP3    H147880   0.925   2.623   2.879 -0.1367  1.1599  2.6639
 7895TIP3    H247881   0.778   2.649   2.904 -0.6582  1.5829 -0.4477
 7896TIP3   OH247882   2.597   3.449   5.061  0.1986 -0.1434 -1.0846
 7896TIP3    H147883   2.670   3.397   5.095  1.0670  0.5216 -1.8903
 7896TIP3    H247884   2.519   3.400   5.087  0.9498 -1.3039 -0.9321
 7897TIP3   OH247885   5.426   6.604   3.749  1.0434  0.2358 -0.3648
 7897TIP3    H147886   5.376   6.679   3.716 -0.6410  0.0332  1.5475
 7897TIP3    H247887   5.497   6.594   3.686 -0.6456  1.2736 -2.6078
 7898TIP3   OH247888   6.290   5.154   2.108  0.0084  0.4972  0.0799
 7898TIP3    H147889   6.276   5.084   2.171 -0.2506  1.5596  1.2537
 7898TIP3    H247890   6.334   5.223   2.158  0.9972  0.8588 -1.2448
 7899TIP3   OH247891   4.174   0.645   4.098 -0.1287 -0.1401  0.1115
 7899TIP3    H147892   4.268   0.643   4.114 -0.1741 -0.1072  0.3912
 7899TIP3    H247893   4.138   0.692   4.173 -0.0890  2.3545 -1.3214
 7900TIP3   OH247894   2.095   3.260   4.049 -0.0877 -0.8081 -0.4145
 7900TIP3    H147895   2.073   3.220   4.132 -0.9669 -1.1471 -0.7956
 7900TIP3    H247896   2.181   3.225   4.027 -1.1663 -3.1941 -1.1445
 7901TIP3   OH247897   5.061   5.016   3.446 -0.7820 -0.6511 -0.4337
 7901TIP3    H147898   4.969   4.990   3.438 -1.1178  0.7702 -1.6279
 7901TIP3    H247899   5.069   5.045   3.537 -1.6243 -0.4617 -0.4068
 7902TIP3   OH247900   1.501   1.428   2.778  0.9574  0.2718 -0.3287
 7902TIP3    H147901   1.578   1.451   2.829 -0.5026  0.3166  2.0392
 7902TIP3    H247902   1.506   1.333   2.768  1.1944  0.2438  0.0461
 7903TIP3   OH247903   3.465   4.339   3.613  0.3336  0.7430  0.4355
 7903TIP3    H147904   3.399   4.273   3.634  2.4922 -1.6580  0.1234
 7903TIP3    H247905   3.543   4.311   3.659  2.4320  0.8596 -2.7351
 7904TIP3   OH247906   0.237   1.960   4.535  0.1117 -0.0991 -0.0412
 7904TIP3    H147907   0.234   1.941   4.441 -0.7511 -1.7239  0.2733
 7904TIP3    H247908   0.325   1.994   4.550  0.4000 -0.1976 -1.3620
 7905TIP3   OH247909   0.566   5.285   3.950 -0.3700  0.4369  0.1680
 7905TIP3    H147910   0.590   5.344   4.022 -0.4192  0.4384  0.1834
 7905TIP3    H247911   0.612   5.203   3.970  1.5066  1.1212 -1.0042
 7906TIP3   OH247912   3.861   3.169   1.896  0.1611  0.5919 -0.1048
 7906TIP3    H147913   3.926   3.194   1.962  0.2201  4.0738 -1.2847
 7906TIP3    H247914   3.806   3.104   1.941  2.3627  0.0542  2.0579
 7907TIP3   OH247915   5.266   5.994  12.001  0.9586 -0.1379 -0.2492
 7907TIP3    H147916   5.227   5.921  12.048  0.9789  2.1054  3.7070
 7907TIP3    H247917   5.360   5.986  12.019  0.9763  0.7328  0.0830
 7908TIP3   OH247918   3.785   3.513   5.553 -0.2117  0.0559  0.2052
 7908TIP3    H147919   3.731   3.592   5.563 -1.4105 -0.3311 -2.3827
 7908TIP3    H247920   3.861   3.542   5.502 -1.6930 -0.7354 -2.6578
 7909TIP3   OH247921   6.138   4.265   3.993 -0.5404 -0.5909 -0.0084
 7909TIP3    H147922   6.093   4.259   3.909  0.1320 -0.9922 -0.3498
 7909TIP3    H247923   6.184   4.181   4.002 -1.3045 -0.9171  1.1718
 7910TIP3   OH247924   2.095   1.748   2.977  0.2182 -0.4969  0.2544
 7910TIP3    H147925   2.173   1.722   3.024  0.8162 -0.3266 -0.6174
 7910TIP3    H247926   2.074   1.835   3.009  1.9627  0.6048 -1.3822
 7911TIP3   OH247927   0.658   6.472   3.353 -0.7009  0.2973  0.3474
 7911TIP3    H147928   0.735   6.490   3.299 -0.4881 -1.2685  0.0746
 7911TIP3    H247929   0.692   6.455   3.440 -1.0437  2.7995  1.0391
 7912TIP3   OH247930   5.706   3.809   4.600 -0.2649 -0.0864 -0.0362
 7912TIP3    H147931   5.621   3.766   4.591 -0.0559 -1.4815  3.1838
 7912TIP3    H247932   5.702   3.851   4.686  2.4720 -0.7139  0.5046
 7913TIP3   OH247933   3.445   5.160   5.685 -0.0075 -0.1390  0.2538
 7913TIP3    H147934   3.364   5.208   5.670  0.5553  0.1083 -2.4748
 7913TIP3    H247935   3.491   5.212   5.752 -0.5191  1.7830 -0.7978
 7914TIP3   OH247936   1.516   0.940   4.934  0.0941 -0.3551  0.1577
 7914TIP3    H147937   1.551   0.988   4.859 -2.7888  0.7225 -0.6093
 7914TIP3    H247938   1.543   0.849   4.919  2.1265  0.2992 -0.5256
 7915TIP3   OH247939   2.439   2.736   4.883  0.1151  0.4218 -0.4806
 7915TIP3    H147940   2.356   2.690   4.898  0.0664  0.3375 -0.9865
 7915TIP3    H247941   2.414   2.816   4.836  0.5020 -0.6156 -2.5575
 7916TIP3   OH247942   5.199   0.380   2.099 -0.1471 -0.2718 -0.0997
 7916TIP3    H147943   5.139   0.374   2.173  1.1554 -0.7714  0.9424
 7916TIP3    H247944   5.234   0.291   2.089 -0.1482 -0.1597 -1.1815
 7917TIP3   OH247945   2.934   6.125   2.343 -0.4238 -0.8569  0.3357
 7917TIP3    H147946   2.892   6.043   2.369 -0.9140 -0.6793  0.1207
 7917TIP3    H247947   3.022   6.120   2.381 -0.8718 -0.9284  1.3767
 7918TIP3   OH247948   4.531   4.061   4.482 -0.3345  0.4219  0.3263
 7918TIP3    H147949   4.496   3.993   4.425 -1.2137  1.6161 -0.6046
 7918TIP3    H247950   4.498   4.040   4.569  0.0602 -0.7635  0.2063
 7919TIP3   OH247951   4.834   3.976   2.015  0.1990 -0.6717 -0.5873
 7919TIP3    H147952   4.789   3.910   2.067  0.1299 -1.3920 -1.5307
 7919TIP3    H247953   4.770   4.004   1.950  0.2273  0.3429 -0.2035
 7920TIP3   OH247954   4.155   3.239   2.366 -0.0134 -0.2458 -0.3973
 7920TIP3    H147955   4.242   3.277   2.379 -0.1243  0.1410 -0.7744
 7920TIP3    H247956   4.132   3.202   2.451 -0.3666  1.4842  0.3029
 7921TIP3   OH247957   0.802   0.065   2.963  0.1366  0.5622 -0.6449
 7921TIP3    H147958   0.860   0.025   2.898 -2.0729  1.5865 -3.4945
 7921TIP3    H247959   0.767  -0.008   3.013  3.0684 -0.1478  0.6148
 7922TIP3   OH247960   1.658   1.689   2.760  0.0197 -0.3463  0.2344
 7922TIP3    H147961   1.741   1.735   2.759  0.0834 -0.4399  0.8709
 7922TIP3    H247962   1.642   1.669   2.852 -0.8284 -0.1099  0.1467
 7923TIP3   OH247963   1.089   5.221   4.629  0.4862  0.5001  0.0334
 7923TIP3    H147964   1.140   5.140   4.623 -0.7687 -0.3850  0.7992
 7923TIP3    H247965   1.012   5.204   4.574 -0.1353  0.8917  0.7664
 7924TIP3   OH247966   5.127   2.562   2.095  0.4586 -0.5306  0.0676
 7924TIP3    H147967   5.096   2.646   2.127  0.9435 -0.4685  0.3856
 7924TIP3    H247968   5.062   2.535   2.030  1.5402  1.2545 -1.8905
 7925TIP3   OH247969   3.114   4.359   3.410 -0.3828 -0.1911 -0.3839
 7925TIP3    H147970   3.165   4.328   3.335 -1.6326  0.1991 -1.4394
 7925TIP3    H247971   3.028   4.317   3.400 -0.9209  0.7298  0.2076
 7926TIP3   OH247972   0.830   6.782   1.942  0.1023  0.0017  0.3769
 7926TIP3    H147973   0.892   6.723   1.898 -0.5433  0.4638 -1.2417
 7926TIP3    H247974   0.813   6.851   1.877 -1.5617  0.2572  1.0476
 7927TIP3   OH247975   1.385   5.825   2.204 -0.4964  0.3118  0.1177
 7927TIP3    H147976   1.420   5.736   2.205  1.8462  1.0847  3.1710
 7927TIP3    H247977   1.337   5.832   2.122  0.1588 -3.3861 -0.7263
 7928TIP3   OH247978   3.905   1.730   5.350 -0.0570  0.0252 -0.4207
 7928TIP3    H147979   3.966   1.735   5.277  1.3133 -0.3728  0.6492
 7928TIP3    H247980   3.843   1.801   5.335  2.1038  2.0429 -0.2868
 7929TIP3   OH247981   3.520   4.827   3.120  0.6005  0.5330  0.1311
 7929TIP3    H147982   3.511   4.827   3.025  0.9426  1.0336  0.0929
 7929TIP3    H247983   3.531   4.735   3.144 -0.2168  0.3237 -0.2382
 7930TIP3   OH247984   5.171   6.519   4.856  0.1553 -0.2539  0.4576
 7930TIP3    H147985   5.132   6.584   4.914  0.0965  0.1185  0.0057
 7930TIP3    H247986   5.212   6.571   4.787  1.7538 -0.6124  1.0995
 7931TIP3   OH247987   1.147   4.618   2.559  0.5763  0.1054 -0.2336
 7931TIP3    H147988   1.119   4.690   2.616  0.5550  1.0566 -1.4041
 7931TIP3    H247989   1.066   4.581   2.525  0.6242  1.4464 -1.9116
 7932TIP3   OH247990   4.262   4.508   3.602  0.1172  0.0288 -0.3262
 7932TIP3    H147991   4.291   4.550   3.683  0.5051 -0.3269 -0.2757
 7932TIP3    H247992   4.186   4.558   3.575  0.3830  0.5621 -0.0949
 7933TIP3   OH247993   5.140   3.146   2.568  0.0539 -0.0174 -0.2073
 7933TIP3    H147994   5.209   3.208   2.594 -0.9360  1.6829 -1.4597
 7933TIP3    H247995   5.182   3.060   2.575  2.6699  1.0027 -1.8800
 7934TIP3   OH247996   3.753   0.147   5.053  0.0429 -0.1768  0.2094
 7934TIP3    H147997   3.706   0.169   4.973 -1.1834 -2.4410  0.2317
 7934TIP3    H247998   3.713   0.066   5.083  0.4876  0.5870  3.1349
 7935TIP3   OH247999   3.542   6.308   3.639 -0.2184 -0.0107 -0.0237
 7935TIP3    H148000   3.587   6.350   3.711  0.5728  0.0740 -0.5561
 7935TIP3    H248001   3.558   6.365   3.564 -1.6747  0.3129 -0.1182
 7936TIP3   OH248002   3.003   5.890   2.906  0.0452 -0.7460 -0.0812
 7936TIP3    H148003   2.927   5.834   2.919 -0.9210  0.4783 -0.1782
 7936TIP3    H248004   3.074   5.846   2.953 -1.1807 -0.9808  1.6701
 7937TIP3   OH248005   6.064   2.826   2.278  0.1846  0.9914 -0.2530
 7937TIP3    H148006   6.054   2.738   2.314  1.5320  0.7319 -0.4655
 7937TIP3    H248007   6.139   2.863   2.325 -1.4069  2.6887  1.0630
 7938TIP3   OH248008   3.802   0.136   4.296 -0.0147 -0.9751 -0.5854
 7938TIP3    H148009   3.854   0.202   4.251  0.7462 -1.3683 -0.2952
 7938TIP3    H248010   3.855   0.110   4.371  0.3188 -2.8523 -1.4093
 7939TIP3   OH248011   3.898   0.586   2.088 -0.0056 -0.0983  0.6374
 7939TIP3    H148012   3.910   0.525   2.161 -0.7986  2.0503  2.7143
 7939TIP3    H248013   3.807   0.577   2.063 -0.6037  1.3529  2.1245
 7940TIP3   OH248014   5.705   3.809   3.106  0.2392 -0.5205  0.4710
 7940TIP3    H148015   5.718   3.760   3.187  1.2885 -0.7237  0.1953
 7940TIP3    H248016   5.739   3.751   3.038 -0.5096 -0.2953 -0.1064
 7941TIP3   OH248017   2.319   0.111   3.333 -0.1637 -0.8205  0.1046
 7941TIP3    H148018   2.391   0.151   3.383 -0.7907 -0.7465  0.9571
 7941TIP3    H248019   2.290   0.181   3.275  0.1101 -0.6871  0.1223
 7942TIP3   OH248020   2.627   4.032   4.113  0.0537 -0.4491 -0.2567
 7942TIP3    H148021   2.541   4.043   4.153  0.0113 -0.3774 -0.3700
 7942TIP3    H248022   2.681   4.101   4.152  0.2041 -0.8277  0.2207
 7943TIP3   OH248023   1.876   3.305   5.720 -0.3793  0.4988 -0.5558
 7943TIP3    H148024   1.960   3.273   5.688  1.0124  0.6884  2.5984
 7943TIP3    H248025   1.814   3.236   5.697  1.3107 -1.3481  0.1541
 7944TIP3   OH248026   3.944   5.141   4.130  0.2062 -0.0938 -0.8968
 7944TIP3    H148027   3.969   5.117   4.040 -0.3908 -3.0173 -0.3840
 7944TIP3    H248028   3.868   5.085   4.149 -0.5828  1.5053  0.9731
 7945TIP3   OH248029   0.835   1.978   2.926 -0.1135 -0.3291  0.7386
 7945TIP3    H148030   0.869   1.928   2.851 -0.6221  0.1079  0.2007
 7945TIP3    H248031   0.826   1.914   2.996  1.9121 -0.4372  0.9387
 7946TIP3   OH248032   3.840   0.168   3.911  0.1245  0.3892  0.0893
 7946TIP3    H148033   3.798   0.092   3.871 -0.7031  0.1250  1.3968
 7946TIP3    H248034   3.908   0.194   3.849 -1.1937  0.0962 -1.5323
 7947TIP3   OH248035   4.694   0.505   2.932  0.1520  0.3060  0.2576
 7947TIP3    H148036   4.643   0.566   2.879  0.9060 -0.2335 -1.1357
 7947TIP3    H248037   4.770   0.555   2.961 -0.4247  0.6963  1.1349
 7948TIP3   OH248038   2.408   5.663   4.543 -0.3921  0.0939 -0.4192
 7948TIP3    H148039   2.406   5.736   4.605  0.1762  0.3190 -0.6572
 7948TIP3    H248040   2.499   5.635   4.543 -0.5424 -0.3955 -0.5865
 7949TIP3   OH248041   1.046   6.827   2.187  0.0364 -0.5103  0.1429
 7949TIP3    H148042   1.036   6.861   2.098 -0.2036  0.0279  0.3679
 7949TIP3    H248043   0.977   6.761   2.196  0.7668 -1.3705 -0.4363
 7950TIP3   OH248044   0.409   3.968   3.816 -0.1307 -0.3453  0.5611
 7950TIP3    H148045   0.375   3.981   3.904 -0.8869  1.2306  0.0587
 7950TIP3    H248046   0.374   4.040   3.765  1.1580 -0.6282 -0.8022
 7951TIP3   OH248047   5.392   4.171   2.768 -0.7295 -0.1512  0.4842
 7951TIP3    H148048   5.467   4.118   2.797 -0.6965  0.7259  2.1299
 7951TIP3    H248049   5.423   4.218   2.691  0.1554 -0.3974  0.6804
 7952TIP3   OH248050   1.613   3.874   5.139 -0.0717 -0.3379  0.1035
 7952TIP3    H148051   1.699   3.916   5.133 -1.1142  1.7666 -2.0249
 7952TIP3    H248052   1.561   3.932   5.195 -0.5841 -0.6496 -0.0406
 7953TIP3   OH248053   0.858   3.641   3.081  0.2656  0.0707  0.1119
 7953TIP3    H148054   0.923   3.711   3.093 -0.3633  0.4074  1.7960
 7953TIP3    H248055   0.787   3.683   3.032 -0.2546  0.7537  1.3916
 7954TIP3   OH248056   2.010   5.362   3.694 -0.2371 -0.0860  0.1051
 7954TIP3    H148057   1.971   5.423   3.632  2.5367 -0.5709 -2.3444
 7954TIP3    H248058   2.014   5.411   3.776 -0.3675  2.1118 -1.1191
 7955TIP3   OH248059   4.371   2.069   2.324  0.5665 -0.4487  0.0408
 7955TIP3    H148060   4.322   2.093   2.402 -0.5343 -0.8110 -0.5173
 7955TIP3    H248061   4.318   2.000   2.283  0.1866  0.9395 -1.9468
 7956TIP3   OH248062   1.030   3.099   3.676 -0.3970  0.2310  0.1079
 7956TIP3    H148063   1.080   3.045   3.736 -1.7949  0.7888  1.8713
 7956TIP3    H248064   1.076   3.183   3.674  0.0937 -0.0403 -0.2604
 7957TIP3   OH248065   3.586   1.666   3.697  0.3088  0.3078  0.1926
 7957TIP3    H148066   3.544   1.752   3.695  1.5520  0.9335  0.2513
 7957TIP3    H248067   3.647   1.670   3.770 -0.7052 -1.1839  1.1928
 7958TIP3   OH248068   1.372   3.037   4.588  0.3707  0.2457  0.1529
 7958TIP3    H148069   1.347   3.128   4.600  0.1217  0.0544  1.2045
 7958TIP3    H248070   1.415   3.013   4.670 -0.2464 -0.7946  0.1919
 7959TIP3   OH248071   5.879   3.948   3.699 -0.1445 -0.0230  0.1385
 7959TIP3    H148072   5.876   3.951   3.604 -1.7430 -3.7209 -0.0783
 7959TIP3    H248073   5.947   3.883   3.719 -0.8682 -0.4110  1.4378
 7960TIP3   OH248074   5.909   6.557   4.905  0.4334 -0.2167 -0.9859
 7960TIP3    H148075   5.922   6.651   4.891  0.5070 -0.1349 -0.3895
 7960TIP3    H248076   5.991   6.527   4.944 -0.0399 -0.2854 -0.0231
 7961TIP3   OH248077   0.714   5.005   2.386  0.2023 -0.5426  0.1072
 7961TIP3    H148078   0.630   4.991   2.342  0.6193 -3.4749  0.0397
 7961TIP3    H248079   0.692   5.015   2.479 -0.3005 -0.1421 -0.0568
 7962TIP3   OH248080   5.785   0.410   5.520 -0.1422  0.5188 -0.3512
 7962TIP3    H148081   5.824   0.488   5.482  2.0381  0.3243  1.2699
 7962TIP3    H248082   5.722   0.443   5.584 -0.1560  0.8991 -0.5573
 7963TIP3   OH248083   1.504   3.864   2.277  0.2096 -0.1175  0.1071
 7963TIP3    H148084   1.531   3.841   2.366  0.1538 -0.5931  0.0047
 7963TIP3    H248085   1.424   3.914   2.288  0.2612 -0.0830  0.3305
 7964TIP3   OH248086   0.674   3.570   2.787  0.0344  0.1498 -0.2856
 7964TIP3    H148087   0.587   3.565   2.826  0.0789 -0.8450 -0.2935
 7964TIP3    H248088   0.666   3.520   2.705  0.8534 -0.7936  0.1895
 7965TIP3   OH248089   3.637   6.375   4.613  0.3745  0.1339 -0.5723
 7965TIP3    H148090   3.582   6.439   4.659  1.2347  0.5120 -0.0502
 7965TIP3    H248091   3.601   6.290   4.640 -0.1456  0.3787 -0.4771
 7966TIP3   OH248092   2.924   0.454   4.778 -1.0188 -0.0866  0.4566
 7966TIP3    H148093   2.989   0.507   4.824 -0.6034 -0.8506  0.7589
 7966TIP3    H248094   2.892   0.393   4.844 -4.0617  1.9822  1.1396
 7967TIP3   OH248095   5.300   2.001   3.464  0.5555 -0.0643  0.4282
 7967TIP3    H148096   5.241   1.940   3.422  1.7792 -0.7459 -0.3604
 7967TIP3    H248097   5.328   1.957   3.544  1.8716 -0.8424 -0.4120
 7968TIP3   OH248098   2.641   2.703   2.995  0.1124 -0.1417 -0.3875
 7968TIP3    H148099   2.696   2.779   2.976  2.1383 -1.6626 -0.9291
 7968TIP3    H248100   2.673   2.669   3.078  0.9852 -1.8348 -1.3627
 7969TIP3   OH248101   3.526   4.739   4.046 -0.1275  0.1099 -0.1812
 7969TIP3    H148102   3.545   4.819   4.093 -1.8379  0.0638  0.6549
 7969TIP3    H248103   3.451   4.761   3.991 -0.3605 -0.8034 -0.2432
 7970TIP3   OH248104   0.348   0.347   2.581  0.6086 -0.2036 -0.1705
 7970TIP3    H148105   0.438   0.375   2.595  0.9407  0.2461 -2.7928
 7970TIP3    H248106   0.322   0.307   2.664  3.0001  0.1838  0.8328
 7971TIP3   OH248107   2.927   3.217   2.080 -0.9001 -0.6401  0.4338
 7971TIP3    H148108   2.877   3.294   2.107 -2.1536 -1.8183  1.6137
 7971TIP3    H248109   3.017   3.250   2.068 -1.4909  1.0822  0.4241
 7972TIP3   OH248110   5.591   3.281   4.032 -0.2654  0.3323 -0.1038
 7972TIP3    H148111   5.521   3.341   4.059  1.3471  1.0611  2.8957
 7972TIP3    H248112   5.671   3.322   4.065  1.4741 -1.1336 -2.2301
 7973TIP3   OH248113   4.821   4.972   4.362 -0.4434  0.4225  0.0893
 7973TIP3    H148114   4.752   4.920   4.402 -2.0368  3.8133  2.3102
 7973TIP3    H248115   4.901   4.946   4.408 -0.6077 -1.9023 -0.8499
 7974TIP3   OH248116   5.235   0.612   5.593 -0.0999 -0.2321  0.0873
 7974TIP3    H148117   5.247   0.695   5.548 -0.8324 -0.5615 -0.7522
 7974TIP3    H248118   5.173   0.564   5.538  1.9077 -2.1960 -0.5696
 7975TIP3   OH248119   2.295   5.731   2.127  0.4777  0.1673 -0.3001
 7975TIP3    H148120   2.293   5.640   2.155  1.4555  0.3871  0.4979
 7975TIP3    H248121   2.371   5.737   2.070  1.4811  0.8714  1.0654
 7976TIP3   OH248122   5.094   4.026   3.687 -0.1633  0.0413 -0.4281
 7976TIP3    H148123   5.038   3.961   3.645  1.0349 -0.4992 -1.2460
 7976TIP3    H248124   5.162   4.045   3.622 -1.0602  2.9705 -0.6793
 7977TIP3   OH248125   2.767   3.640   5.774  0.3168 -0.3423  0.4378
 7977TIP3    H148126   2.811   3.724   5.761  0.6003 -0.6515 -0.7189
 7977TIP3    H248127   2.687   3.662   5.822  0.2860  0.6187 -0.0279
 7978TIP3   OH248128   0.464   3.003   4.706 -0.2324 -0.1936 -0.3900
 7978TIP3    H148129   0.431   3.055   4.780  2.9049  1.0211  0.3153
 7978TIP3    H248130   0.447   3.058   4.629  1.0462  0.9495  0.0959
 7979TIP3   OH248131   4.796   4.635   2.477  0.2852 -0.2251 -0.2225
 7979TIP3    H148132   4.739   4.711   2.487  1.2609  0.4774  0.0905
 7979TIP3    H248133   4.861   4.644   2.546  1.1624 -0.6728 -0.9761
 7980TIP3   OH248134   1.910   2.546   2.856  0.4447  0.5940  0.2132
 7980TIP3    H148135   1.950   2.553   2.769 -0.8584 -1.3141 -0.6030
 7980TIP3    H248136   1.955   2.473   2.898  0.3994  0.8858  0.7851
 7981TIP3   OH248137   3.836   4.474   2.606  0.2794  0.0481  0.5929
 7981TIP3    H148138   3.836   4.570   2.606 -1.3914  0.0787  0.7958
 7981TIP3    H248139   3.846   4.450   2.697 -3.4103  0.1838  1.2172
 7982TIP3   OH248140   2.132   4.763   2.055 -0.4880 -0.7401 -0.3716
 7982TIP3    H148141   2.125   4.736   2.147 -0.1097 -0.9164 -0.3938
 7982TIP3    H248142   2.046   4.744   2.018 -0.1249 -2.2734 -0.4806
 7983TIP3   OH248143   2.041   6.713   3.367 -0.0774  0.4519 -0.2239
 7983TIP3    H148144   2.013   6.771   3.438  1.8660  0.9023  0.2352
 7983TIP3    H248145   2.111   6.761   3.323 -0.2289 -0.4536 -1.5241
 7984TIP3   OH248146   4.720   1.104   3.081 -0.6515  0.4354  0.4543
 7984TIP3    H148147   4.694   1.032   3.138 -0.2667  0.4072  0.5952
 7984TIP3    H248148   4.730   1.179   3.139 -0.8001  0.5420  0.3435
 7985TIP3   OH248149   2.465   4.892   5.437  0.5439  0.0065 -0.2196
 7985TIP3    H148150   2.396   4.958   5.436  0.6332  0.1013 -0.1611
 7985TIP3    H248151   2.546   4.942   5.423  0.7361  0.0588  0.9751
 7986TIP3   OH248152   0.702   1.313   4.769  0.7647 -0.6418  0.0271
 7986TIP3    H148153   0.699   1.228   4.813  0.6808  0.2150  1.7571
 7986TIP3    H248154   0.742   1.372   4.833  1.7749  0.4224 -1.5269
 7987TIP3   OH248155   1.452   4.194   4.936  0.5007 -0.1508  0.2828
 7987TIP3    H148156   1.376   4.194   4.994  0.5932 -0.2878  0.4060
 7987TIP3    H248157   1.481   4.103   4.936 -0.5899 -0.5343 -1.4244
 7988TIP3   OH248158   6.794   1.065   2.293  0.5302 -0.0302 -0.4331
 7988TIP3    H148159   6.849   1.143   2.302  1.4819 -0.7047 -0.2158
 7988TIP3    H248160   6.743   1.080   2.213  1.2177  0.4987 -0.7797
 7989TIP3   OH248161   1.311   4.635   4.450  0.2416  0.4167 -0.2778
 7989TIP3    H148162   1.354   4.700   4.506  0.5182 -0.1434  0.1788
 7989TIP3    H248163   1.283   4.684   4.373  1.3427  0.8747 -0.4012
 7990TIP3   OH248164   3.926   2.875   1.854  0.0981  0.0493  0.0819
 7990TIP3    H148165   4.013   2.893   1.891 -0.4195 -0.2843  1.5436
 7990TIP3    H248166   3.894   2.960   1.824  0.9677  0.1576 -0.5760
 7991TIP3   OH248167   5.420   5.249   2.108  0.0811 -0.5415  0.0822
 7991TIP3    H148168   5.353   5.257   2.175  1.0217 -0.7402  1.0763
 7991TIP3    H248169   5.471   5.330   2.115 -0.2727 -0.2121 -0.9312
 7992TIP3   OH248170   1.167   0.009   2.824  0.1120 -0.3504 -0.3245
 7992TIP3    H148171   1.228  -0.056   2.791 -0.5697 -0.8766 -0.5746
 7992TIP3    H248172   1.089  -0.002   2.769 -0.2021  0.3120 -0.0171
 7993TIP3   OH248173   0.485   2.855   5.022 -0.4051 -0.2107 -0.3193
 7993TIP3    H148174   0.577   2.847   4.994 -0.3451  1.6714 -0.8106
 7993TIP3    H248175   0.488   2.841   5.116  0.1748 -1.4525 -0.4906
 7994TIP3   OH248176   0.027   4.374   2.488  0.3248  0.0036 -0.6611
 7994TIP3    H148177  -0.008   4.443   2.432  1.6074  0.6512 -0.6991
 7994TIP3    H248178  -0.048   4.346   2.541 -0.0590  2.0501 -0.0169
 7995TIP3   OH248179   5.327   5.015   2.026  0.6479  0.2380 -0.0973
 7995TIP3    H148180   5.370   5.100   2.020  0.7820  0.1047 -1.1382
 7995TIP3    H248181   5.240   5.035   2.061  0.5308  0.8580 -0.7282
 7996TIP3   OH248182   2.196   6.021   3.474 -0.2495  0.0096 -0.1501
 7996TIP3    H148183   2.214   6.072   3.553 -0.5506  1.4568 -0.9768
 7996TIP3    H248184   2.278   5.974   3.457  0.7274  1.7096 -0.3982
 7997TIP3   OH248185   5.588   3.825   1.809 -0.2198 -0.5417  0.0382
 7997TIP3    H148186   5.503   3.854   1.843 -0.0236 -0.3927  0.4056
 7997TIP3    H248187   5.650   3.891   1.840  0.3298 -1.6377  1.4202
 7998TIP3   OH248188   6.557   2.824   4.173  0.2878 -0.1652 -0.0745
 7998TIP3    H148189   6.564   2.894   4.239 -1.8242 -1.3377  1.5194
 7998TIP3    H248190   6.525   2.868   4.095 -0.1667  0.8066  0.6377
 7999TIP3   OH248191   2.895   4.174   2.793  0.1727  0.0808 -0.1970
 7999TIP3    H148192   2.959   4.104   2.806  2.4964  1.6363 -2.2925
 7999TIP3    H248193   2.838   4.169   2.870  2.2859 -1.9350  1.3776
 8000TIP3   OH248194   3.082   0.743   2.193  0.2454 -0.2950  0.3326
 8000TIP3    H148195   3.082   0.681   2.265 -1.0663 -1.5190 -0.6797
 8000TIP3    H248196   3.002   0.794   2.204  0.6784  0.3804  0.4419
 8001TIP3   OH248197   0.670   1.045   2.799  0.3631 -0.3151  0.3324
 8001TIP3    H148198   0.625   1.021   2.718  0.7028  0.3501 -0.0598
 8001TIP3    H248199   0.678   0.962   2.847 -4.5466 -0.0719  2.1706
 8002TIP3   OH248200   0.827   3.863   4.750  0.1123  0.6884  0.0723
 8002TIP3    H148201   0.809   3.798   4.682  0.9521 -0.1902  0.6766
 8002TIP3    H248202   0.809   3.818   4.833 -0.1906  1.5154  0.4737
 8003TIP3   OH248203   2.983   5.449   3.572 -0.0098 -0.4384 -0.1457
 8003TIP3    H148204   3.009   5.369   3.526  1.6622 -1.2055  1.9947
 8003TIP3    H248205   3.059   5.507   3.566 -0.9323  0.7479 -1.0209
 8004TIP3   OH248206   3.365   0.484   3.683  0.4178  0.3242 -0.7004
 8004TIP3    H148207   3.382   0.400   3.724  0.7194  0.6033 -0.2374
 8004TIP3    H248208   3.418   0.483   3.603 -0.6678 -0.4764 -1.4255
 8005TIP3   OH248209   3.866   1.816   5.040 -0.1180  0.1790  0.1042
 8005TIP3    H148210   3.906   1.898   5.011 -0.3973  1.1495  2.2762
 8005TIP3    H248211   3.776   1.841   5.064 -0.5145 -0.9767 -0.1387
 8006TIP3   OH248212   3.548   5.860   5.155  0.1882 -0.0561 -0.0878
 8006TIP3    H148213   3.624   5.906   5.118 -0.0769 -0.9402 -1.8070
 8006TIP3    H248214   3.474   5.917   5.136  0.0553 -0.4986 -0.9108
 8007TIP3   OH248215   0.383   3.962   2.871  0.4329 -0.6730  0.1251
 8007TIP3    H148216   0.310   3.902   2.888 -0.3206 -0.0586 -0.8386
 8007TIP3    H248217   0.355   4.045   2.910  0.8677 -0.5763  0.2402
 8008TIP3   OH248218   6.484   3.555   3.416 -0.6718  0.2887  0.3706
 8008TIP3    H148219   6.494   3.637   3.368 -0.8714 -0.5867 -1.2546
 8008TIP3    H248220   6.572   3.518   3.417 -0.6819  0.2716  0.6230
 8009TIP3   OH248221   2.067   6.639   4.351 -0.7853  0.1143  0.2385
 8009TIP3    H148222   2.038   6.560   4.397 -0.8095  0.0084  0.0449
 8009TIP3    H248223   2.133   6.608   4.290 -0.3618  0.3368  0.5797
 8010TIP3   OH248224   0.812   4.780   5.471  0.2665 -0.4258 -0.5554
 8010TIP3    H148225   0.810   4.858   5.526 -1.1315 -0.2008 -0.8876
 8010TIP3    H248226   0.751   4.720   5.513  0.8435 -1.0907 -0.6650
 8011TIP3   OH248227   2.415   4.998   3.560  0.8083  0.1318 -1.0844
 8011TIP3    H148228   2.413   5.084   3.601 -0.5503  0.1356 -1.1177
 8011TIP3    H248229   2.466   5.011   3.480  1.1195  0.7633 -0.7862
 8012TIP3   OH248230   2.954   6.329   2.141  0.6949 -0.4214 -0.0621
 8012TIP3    H148231   2.935   6.421   2.161 -0.6626 -0.3349 -1.5051
 8012TIP3    H248232   2.966   6.288   2.226  2.0082  1.2038  0.6057
 8013TIP3   OH248233   2.499   6.544   2.474 -0.2707 -0.1400  0.2201
 8013TIP3    H148234   2.586   6.506   2.472 -0.3896 -0.4956  1.3929
 8013TIP3    H248235   2.514   6.639   2.480  0.0268 -0.1651 -0.1119
 8014TIP3   OH248236   2.237   4.519   4.847  0.4329 -0.2644  0.1869
 8014TIP3    H148237   2.175   4.571   4.796  0.4691  0.0163  0.4291
 8014TIP3    H248238   2.248   4.567   4.929  2.5447  0.7898 -0.6425
 8015TIP3   OH248239   1.335   4.487   5.031 -0.4225  0.5143 -0.0251
 8015TIP3    H148240   1.249   4.529   5.029 -1.5525 -1.6776 -0.3410
 8015TIP3    H248241   1.342   4.442   4.947  0.6512 -0.1035  0.3677
 8016TIP3   OH248242   4.694   3.264   3.325  0.1457 -0.0917 -0.1090
 8016TIP3    H148243   4.657   3.294   3.241  0.0277  0.9594  0.3023
 8016TIP3    H248244   4.759   3.198   3.300  1.0830  1.1515 -1.1481
 8017TIP3   OH248245   5.955   6.289   3.327  0.0958 -0.0134 -0.3568
 8017TIP3    H148246   6.027   6.337   3.286 -0.9812  0.9463 -1.1916
 8017TIP3    H248247   5.953   6.204   3.283  1.8077 -0.7643  0.9007
 8018TIP3   OH248248   3.223   3.740   2.243 -0.3450  0.0811 -0.3366
 8018TIP3    H148249   3.228   3.827   2.202 -1.8165  0.9950  1.2766
 8018TIP3    H248250   3.313   3.708   2.242  0.0589  1.1300 -1.9497
 8019TIP3   OH248251   0.576   4.441   3.767 -0.2124  0.1681 -0.1796
 8019TIP3    H148252   0.501   4.403   3.720  0.3069 -1.4467  0.2431
 8019TIP3    H248253   0.634   4.367   3.783  1.2309  1.2978 -0.0037
 8020TIP3   OH248254   5.568   0.726   4.591 -0.2278 -0.2187 -0.4848
 8020TIP3    H148255   5.631   0.751   4.659 -1.9622  1.1350  0.7017
 8020TIP3    H248256   5.577   0.630   4.585  1.6446 -0.1064 -0.0859
 8021TIP3   OH248257   5.805   1.303   2.372 -0.1858  0.2606 -0.0435
 8021TIP3    H148258   5.838   1.373   2.316 -0.6890 -0.8975 -1.8869
 8021TIP3    H248259   5.734   1.343   2.421 -0.8877  0.9157 -1.5248
 8022TIP3   OH248260   1.023   5.484   3.835  0.6779 -0.1044  0.3810
 8022TIP3    H148261   0.967   5.511   3.908 -0.0061  0.6194 -0.3850
 8022TIP3    H248262   0.987   5.530   3.759  2.3461  0.4270 -0.1383
 8023TIP3   OH248263   0.128   5.280   3.229 -0.2146  0.0561 -0.1268
 8023TIP3    H148264   0.037   5.257   3.213 -0.1877  0.0153 -0.2154
 8023TIP3    H248265   0.148   5.240   3.314 -0.2638  0.0255 -0.1298
 8024TIP3   OH248266   2.661   3.725   2.410  0.6756  0.4290 -0.4821
 8024TIP3    H148267   2.610   3.740   2.490  0.1414  2.3331 -1.1235
 8024TIP3    H248268   2.752   3.729   2.439  0.4846  0.8215  0.0948
 8025TIP3   OH248269   3.315   2.602   5.191 -0.2516 -0.3037 -0.1234
 8025TIP3    H148270   3.372   2.645   5.254 -1.0858 -0.6472  0.8927
 8025TIP3    H248271   3.246   2.562   5.244 -1.3969  0.0256 -1.3062
 8026TIP3   OH248272   1.743   4.741   3.790  0.0139 -0.0164  0.4170
 8026TIP3    H148273   1.735   4.832   3.760  1.2738  0.3340  1.0892
 8026TIP3    H248274   1.836   4.721   3.778 -0.3702 -1.4541 -0.3430
 8027TIP3   OH248275   3.982   6.022   3.813  0.1813 -0.9798  0.2270
 8027TIP3    H148276   3.978   5.941   3.863 -2.5457 -0.4036  1.1062
 8027TIP3    H248277   3.972   6.091   3.879  2.4254  0.1555 -0.4953
 8028TIP3   OH248278   3.748   1.060   5.317 -0.0268  0.4351  0.0610
 8028TIP3    H148279   3.840   1.055   5.342 -0.4772  1.5970  2.1531
 8028TIP3    H248280   3.724   1.152   5.327 -1.4569  0.1352 -0.2831
 8029TIP3   OH248281   5.398   4.654   2.700  0.1484  0.4570 -0.2267
 8029TIP3    H148282   5.306   4.675   2.711  0.0462 -0.9985  2.2397
 8029TIP3    H248283   5.445   4.718   2.754  0.3071 -0.9242  1.3372
 8030TIP3   OH248284   5.440   4.834   3.160 -0.2145 -0.6024 -0.0741
 8030TIP3    H148285   5.374   4.775   3.122 -0.4426 -0.6697  0.4248
 8030TIP3    H248286   5.392   4.915   3.178  0.1795 -0.1183 -1.1004
 8031TIP3   OH248287   0.491   5.267   2.805  0.0567 -0.3586 -0.2010
 8031TIP3    H148288   0.528   5.307   2.726 -1.1509  1.2767  0.0161
 8031TIP3    H248289   0.404   5.305   2.813 -0.2094 -1.2134  1.4100
 8032TIP3   OH248290   0.059   4.807   2.755  0.0481  0.2106 -0.0699
 8032TIP3    H148291   0.047   4.895   2.718  0.1809  0.7216  1.0347
 8032TIP3    H248292  -0.015   4.797   2.815 -0.6097 -0.9145 -1.0483
 8033TIP3   OH248293   5.401   0.659   3.932 -0.2492 -0.1246 -0.4300
 8033TIP3    H148294   5.426   0.588   3.872 -0.1290  1.0764 -1.8550
 8033TIP3    H248295   5.483   0.705   3.950 -0.6500  0.9457 -1.2685
 8034TIP3   OH248296   1.183   6.325   4.581  0.5478 -0.3736  0.4326
 8034TIP3    H148297   1.116   6.268   4.543  0.4349 -0.1767  0.3321
 8034TIP3    H248298   1.266   6.285   4.557  0.4682 -1.4017  1.7434
 8035TIP3   OH248299   4.482   3.120   4.643  0.1927 -0.6699 -0.1192
 8035TIP3    H148300   4.447   3.032   4.656 -1.0383 -0.2561 -0.4707
 8035TIP3    H248301   4.418   3.178   4.686  1.2442  0.0202  0.5471
 8036TIP3   OH248302   4.163   1.875   2.303 -0.8487 -0.1234  0.6557
 8036TIP3    H148303   4.122   1.927   2.235  0.6292  0.0298 -0.1681
 8036TIP3    H248304   4.115   1.792   2.303 -0.1159 -0.6161 -1.4604
 8037TIP3   OH248305   5.379   3.695   4.182 -0.6537 -0.3117 -0.2513
 8037TIP3    H148306   5.298   3.689   4.232 -1.8289  0.5889 -1.9734
 8037TIP3    H248307   5.424   3.772   4.219 -0.5111 -0.8717  0.7712
 8038TIP3   OH248308   3.100   4.212   4.972  0.0971 -0.1142  0.2357
 8038TIP3    H148309   3.164   4.241   4.907  0.0454 -0.9635 -0.2062
 8038TIP3    H248310   3.108   4.276   5.043  2.5917 -1.0666  0.9369
 8039TIP3   OH248311   4.536   3.629   4.924  0.0219 -0.1189 -0.2579
 8039TIP3    H148312   4.442   3.645   4.918  0.2433  0.9837 -1.1062
 8039TIP3    H248313   4.543   3.542   4.963 -1.3439 -0.2389 -0.2262
 8040TIP3   OH248314   3.295   0.985   3.639 -0.0662  0.3558 -0.0268
 8040TIP3    H148315   3.360   0.986   3.569  2.0229 -0.3425  1.8270
 8040TIP3    H248316   3.271   0.893   3.649  2.8840 -0.2384  2.9256
 8041TIP3   OH248317   1.259   0.556   4.601 -0.2166  0.2051 -0.1101
 8041TIP3    H148318   1.195   0.545   4.530 -0.8898 -1.7416  0.7538
 8041TIP3    H248319   1.212   0.604   4.669 -0.5929 -0.6695  0.2645
 8042TIP3   OH248320   3.433   0.392   3.393  0.1334 -0.1310  0.6676
 8042TIP3    H148321   3.391   0.310   3.419 -0.2860  0.1820  0.9875
 8042TIP3    H248322   3.402   0.408   3.304 -0.8824  0.3846  1.0997
 8043TIP3   OH248323   0.045   2.690   3.758  0.5363 -0.0496  0.0946
 8043TIP3    H148324  -0.045   2.663   3.741 -0.0511  1.7481  0.0711
 8043TIP3    H248325   0.088   2.612   3.794 -1.4344 -0.5400  1.5388
 8044TIP3   OH248326   4.331   0.408   2.267  0.0329  0.1473  0.3011
 8044TIP3    H148327   4.241   0.406   2.298  0.2271 -1.1491  0.8491
 8044TIP3    H248328   4.354   0.316   2.253  1.7268  0.3283  1.5917
 8045TIP3   OH248329   5.129   2.162   5.196  0.3862 -0.0459 -0.1882
 8045TIP3    H148330   5.206   2.200   5.153 -0.2028  0.1650 -1.0777
 8045TIP3    H248331   5.161   2.135   5.282  0.7063  3.1324  0.8402
 8046TIP3   OH248332   4.147   6.178   4.773 -0.7747  0.2434 -0.1509
 8046TIP3    H148333   4.227   6.230   4.761 -1.2366  1.6785  2.4430
 8046TIP3    H248334   4.178   6.088   4.778  0.3859  0.5206 -1.6400
 8047TIP3   OH248335   6.217   6.349   4.332 -0.3375 -0.6783 -0.2416
 8047TIP3    H148336   6.202   6.410   4.403  1.7483  0.0493 -0.3645
 8047TIP3    H248337   6.285   6.290   4.364 -2.7107 -3.4787  0.1382
 8048TIP3   OH248338   1.911   2.299   3.772 -0.2001 -0.2818 -0.2757
 8048TIP3    H148339   1.890   2.287   3.680 -0.9871 -0.2604 -0.1073
 8048TIP3    H248340   1.829   2.284   3.818  0.0168  0.3895  0.3686
 8049TIP3   OH248341   4.824   6.592   2.244 -0.3117 -0.6113  0.1159
 8049TIP3    H148342   4.826   6.664   2.181 -0.8416 -0.9550 -0.3016
 8049TIP3    H248343   4.765   6.622   2.314 -2.1918 -1.4138 -1.0442
 8050TIP3   OH248344   6.186   5.595   3.183  0.4631  0.2078  0.0512
 8050TIP3    H148345   6.164   5.680   3.219  0.6710  0.6358 -0.8120
 8050TIP3    H248346   6.281   5.595   3.175  0.4628 -0.0852  0.0025
 8051TIP3   OH248347   4.597   0.168   3.364 -0.3399 -0.4272  0.2739
 8051TIP3    H148348   4.600   0.126   3.278 -3.3101 -1.7263  0.6707
 8051TIP3    H248349   4.610   0.261   3.345 -0.1364 -0.7676 -1.4708
 8052TIP3   OH248350   6.786   4.290   3.201  0.0591 -0.1797  0.3792
 8052TIP3    H148351   6.815   4.334   3.121 -0.9215  1.7973  1.0449
 8052TIP3    H248352   6.732   4.217   3.170  1.5493 -0.8379 -0.7649
 8053TIP3   OH248353   4.533   5.712   3.480  0.0212 -0.2464  0.2345
 8053TIP3    H148354   4.554   5.774   3.549  1.1952 -0.7654  0.3619
 8053TIP3    H248355   4.465   5.656   3.518  0.3881 -0.2913  0.8300
 8054TIP3   OH248356   6.420   4.846   3.216  0.0661 -0.2005 -0.0042
 8054TIP3    H148357   6.437   4.776   3.153 -1.6916  0.0861 -0.8491
 8054TIP3    H248358   6.454   4.811   3.299 -1.8103 -2.6443 -0.1255
 8055TIP3   OH248359   5.830   4.823   3.149 -0.3089  0.0055 -0.1634
 8055TIP3    H148360   5.867   4.896   3.100 -0.4985  0.0594 -0.2255
 8055TIP3    H248361   5.861   4.745   3.103  0.3265  0.0290  0.2071
 8056TIP3   OH248362   2.231   0.240   2.546 -0.1485  0.7053  0.0702
 8056TIP3    H148363   2.153   0.271   2.592 -0.1815 -0.8460  1.1379
 8056TIP3    H248364   2.197   0.191   2.471 -0.2566 -0.3756  0.7982
 8057TIP3   OH248365   3.714   5.417   4.630  0.0949  0.0832  0.2214
 8057TIP3    H148366   3.699   5.484   4.696  1.4049 -0.0061  0.6262
 8057TIP3    H248367   3.627   5.400   4.593 -0.2915  1.8380  0.2528
 8058TIP3   OH248368   6.328   3.262   3.966 -0.1950 -0.3587 -0.6740
 8058TIP3    H148369   6.410   3.297   4.000  0.0450  0.3010 -1.9011
 8058TIP3    H248370   6.266   3.271   4.039  0.5288  0.1720 -0.1165
 8059TIP3   OH248371   2.641   4.018   6.039  0.5764  0.2625  0.1918
 8059TIP3    H148372   2.611   3.961   6.110 -0.2702  0.3271 -0.1008
 8059TIP3    H248373   2.580   4.000   5.967 -0.7049  2.6378  0.5785
 8060TIP3   OH248374   2.573   0.138   3.461 -0.0347 -0.2028 -0.2663
 8060TIP3    H148375   2.579   0.111   3.552  2.5304 -2.0975 -0.8796
 8060TIP3    H248376   2.649   0.097   3.418 -0.6392  1.3196 -3.0802
 8061TIP3   OH248377   0.052   3.164   4.221 -0.3505 -0.5023  0.2005
 8061TIP3    H148378  -0.014   3.218   4.264 -0.1675  0.3077 -0.4978
 8061TIP3    H248379   0.106   3.130   4.292 -1.1023 -0.6112  0.7239
 8062TIP3   OH248380   0.313   0.084   3.543  0.3352 -0.5806  0.4131
 8062TIP3    H148381   0.354   0.016   3.490  0.5689 -0.0214 -0.1471
 8062TIP3    H248382   0.282   0.039   3.622 -0.3854 -1.5160 -0.3755
 8063TIP3   OH248383   3.389   6.618   4.154  0.1765  0.6202 -0.5018
 8063TIP3    H148384   3.425   6.557   4.090 -1.0901  0.2628 -0.9123
 8063TIP3    H248385   3.457   6.684   4.166  1.4268 -0.6467 -0.3384
 8064TIP3   OH248386   0.548   5.711   3.118 -0.2860  0.1165 -0.7551
 8064TIP3    H148387   0.626   5.655   3.116 -0.6060 -0.6416  2.4228
 8064TIP3    H248388   0.481   5.657   3.161 -1.4822  1.9733 -0.1904
 8065TIP3   OH248389   6.139   0.984   2.339  0.4627  0.6082  0.0032
 8065TIP3    H148390   6.122   1.061   2.285 -1.3722  0.1643 -0.1229
 8065TIP3    H248391   6.071   0.988   2.407 -0.9629 -1.8956 -1.1334
 8066TIP3   OH248392   6.162   5.340   4.722 -0.7319 -0.2559 -0.4586
 8066TIP3    H148393   6.232   5.325   4.785 -0.9374  0.9189  0.0614
 8066TIP3    H248394   6.179   5.275   4.653  1.3271  0.4757 -0.7314
 8067TIP3   OH248395   5.117   0.643   3.722  0.4570 -0.0757 -0.5943
 8067TIP3    H148396   5.169   0.567   3.749 -0.6752 -0.1712  1.5179
 8067TIP3    H248397   5.180   0.715   3.722  0.8519 -0.3667  0.9536
 8068TIP3   OH248398   1.592   2.916   0.383  0.0280  0.4584  0.2117
 8068TIP3    H148399   1.519   2.857   0.361 -0.8574  1.1572  1.1533
 8068TIP3    H248400   1.631   2.876   0.461  1.4686 -0.5789 -0.9908
 8069TIP3   OH248401   0.600   6.587   3.646 -0.0023  0.2433  0.1694
 8069TIP3    H148402   0.606   6.493   3.630 -1.4297  0.0933  0.4046
 8069TIP3    H248403   0.595   6.595   3.741  0.5468  0.5953  0.1745
 8070TIP3   OH248404   3.170   0.152   2.835 -0.3749  0.5124 -0.2485
 8070TIP3    H148405   3.178   0.176   2.928  2.5540 -2.2079  0.3819
 8070TIP3    H248406   3.126   0.066   2.836  3.5244 -1.7176 -0.7791
 8071TIP3   OH248407   3.629   0.563   2.043 -0.0568 -0.5621  0.1840
 8071TIP3    H148408   3.534   0.559   2.032  0.0853 -0.5315 -1.2430
 8071TIP3    H248409   3.658   0.472   2.036  0.1472 -0.4282 -0.8278
 8072TIP3   OH248410   0.021   0.823   3.307 -0.1745 -0.1413 -0.2635
 8072TIP3    H148411   0.030   0.820   3.212 -1.1770  1.0810 -0.4103
 8072TIP3    H248412   0.105   0.857   3.338  0.2449 -0.7792 -0.6823
 8073TIP3   OH248413   4.073   0.336   4.708  0.3820 -0.2563 -0.0428
 8073TIP3    H148414   4.047   0.251   4.744  2.6565 -1.5640 -1.2658
 8073TIP3    H248415   4.148   0.317   4.653  0.3193  2.4360 -1.2245
 8074TIP3   OH248416   1.160   1.849   2.568  0.4627  0.1846 -0.1499
 8074TIP3    H148417   1.231   1.884   2.514 -0.5442  0.4210 -1.3531
 8074TIP3    H248418   1.166   1.754   2.556  0.4561  0.2153 -0.3906
 8075TIP3   OH248419   3.971   1.662   4.690  0.0108 -0.5534 -0.3241
 8075TIP3    H148420   4.049   1.678   4.743  0.9357 -0.3601 -1.6859
 8075TIP3    H248421   4.004   1.660   4.600 -1.7538  1.0453 -1.0740
 8076TIP3   OH248422   0.891   5.624   3.641  0.4167  0.2015 -0.0469
 8076TIP3    H148423   0.812   5.594   3.596  0.8154  0.9596 -1.2966
 8076TIP3    H248424   0.876   5.717   3.656  0.5813  0.0989  0.7837
 8077TIP3   OH248425   5.569   1.148   4.485  0.1974  0.1948  0.3900
 8077TIP3    H148426   5.654   1.135   4.442 -0.0283 -1.1663  0.3084
 8077TIP3    H248427   5.555   1.243   4.483  1.8994  0.4909  0.7519
 8078TIP3   OH248428   5.959   6.666   2.005  0.4103  0.1016 -0.2394
 8078TIP3    H148429   6.020   6.739   1.997  0.5220  0.0720  0.3172
 8078TIP3    H248430   6.009   6.590   1.976  0.7952  0.0005  0.6861
 8079TIP3   OH248431   4.167   0.851   4.922  0.7215  0.3755 -0.1305
 8079TIP3    H148432   4.182   0.945   4.923 -1.4640  0.7845  0.0221
 8079TIP3    H248433   4.099   0.837   4.988 -0.2586 -1.0217 -1.3638
 8080TIP3   OH248434   5.976   1.550   3.638  0.0693 -0.3639 -0.2105
 8080TIP3    H148435   5.960   1.466   3.593  0.6575 -1.2446  1.1636
 8080TIP3    H248436   6.071   1.555   3.647  0.0304  0.4108 -0.1694
 8081TIP3   OH248437   1.414   4.349   2.319  0.0322  0.0170  0.1579
 8081TIP3    H148438   1.446   4.264   2.350  0.4626 -0.1648 -0.7566
 8081TIP3    H248439   1.403   4.401   2.399 -0.9286 -1.1194  0.8053
 8082TIP3   OH248440   6.628   4.101   3.352  0.2888  0.4042 -0.3429
 8082TIP3    H148441   6.639   4.143   3.438 -1.9245 -0.1697  0.2945
 8082TIP3    H248442   6.616   4.009   3.372  2.5506 -0.2187 -1.5461
 8083TIP3   OH248443   6.483   2.620   2.106 -0.3071  0.1444  0.5587
 8083TIP3    H148444   6.431   2.546   2.138  2.3564 -1.5293  1.3241
 8083TIP3    H248445   6.420   2.691   2.096 -3.3360 -2.5621 -1.6433
 8084TIP3   OH248446   4.545   1.346   3.269 -0.4132  0.4217 -0.1725
 8084TIP3    H148447   4.536   1.441   3.271 -2.8591  0.2596  0.6886
 8084TIP3    H248448   4.491   1.318   3.195 -1.2143 -0.3600  0.6707
 8085TIP3   OH248449   4.739   2.242   2.533  0.2416 -0.1161  0.5951
 8085TIP3    H148450   4.660   2.269   2.580 -0.7203 -0.4997 -0.7265
 8085TIP3    H248451   4.785   2.185   2.595 -0.8018 -0.3338  1.1997
 8086TIP3   OH248452   5.050   6.758   2.921 -0.2399 -0.2198 -0.1052
 8086TIP3    H148453   5.126   6.786   2.870  0.3247 -0.4290  0.6010
 8086TIP3    H248454   4.975   6.785   2.869  0.3083  0.7512 -0.4187
 8087TIP3   OH248455   3.623   0.738   2.330  0.2434  0.7403 -0.0783
 8087TIP3    H148456   3.572   0.765   2.407  0.5368  1.4489 -0.1227
 8087TIP3    H248457   3.569   0.762   2.255 -1.2037 -2.2298 -0.1324
 8088TIP3   OH248458   2.419   6.320   2.813  0.3293  0.2981  0.6767
 8088TIP3    H148459   2.485   6.389   2.819  0.5410  0.1033  0.5731
 8088TIP3    H248460   2.468   6.239   2.822  0.3405  0.0718 -0.9894
 8089TIP3   OH248461   2.914   6.293   4.078 -0.3740 -0.7444 -0.4961
 8089TIP3    H148462   2.923   6.336   4.164 -0.7949  0.3349 -0.9662
 8089TIP3    H248463   3.003   6.264   4.057 -0.5923 -2.7952  1.1606
 8090TIP3   OH248464   6.030   5.071   5.373  0.6167  0.9406 -0.4311
 8090TIP3    H148465   6.109   5.087   5.425  0.0589  2.7359 -0.0952
 8090TIP3    H248466   5.997   5.158   5.352 -1.3658  0.2257 -0.4419
 8091TIP3   OH248467   3.074   3.975   2.837 -0.0154  0.0267  0.1885
 8091TIP3    H148468   3.103   3.907   2.777  2.4566  1.4367 -0.3655
 8091TIP3    H248469   3.127   3.962   2.916 -3.0815 -1.6878  2.1665
 8092TIP3   OH248470   1.568   4.492   4.424  0.3556  0.1674  0.8984
 8092TIP3    H148471   1.490   4.538   4.394  0.3322  0.1012  0.8563
 8092TIP3    H248472   1.582   4.524   4.513  1.2901  1.4555  0.3090
 8093TIP3   OH248473   6.342   5.842   4.492  0.3518  0.1315  0.5034
 8093TIP3    H148474   6.254   5.872   4.512 -0.0246 -0.0442 -0.8152
 8093TIP3    H248475   6.374   5.903   4.425  1.0757 -0.0483  0.6696
 8094TIP3   OH248476   2.958   4.703   2.168 -0.5155 -0.2322 -0.1821
 8094TIP3    H148477   2.883   4.761   2.176  0.6492  1.0370  3.1246
 8094TIP3    H248478   2.927   4.618   2.201 -0.2423  0.6725  2.6588
 8095TIP3   OH248479   5.205   2.044   3.789  0.2573 -0.3493  0.0970
 8095TIP3    H148480   5.164   2.013   3.871  2.2656  0.1938  1.3715
 8095TIP3    H248481   5.269   1.976   3.768 -0.0684 -0.3563 -0.9148
 8096TIP3   OH248482   4.015   4.006   2.106 -0.6144  0.2436  0.1493
 8096TIP3    H148483   4.000   3.935   2.044 -0.9945 -0.5706  1.1439
 8096TIP3    H248484   4.087   3.975   2.161 -0.7586  0.6453  0.5720
 8097TIP3   OH248485   6.129   2.850   3.519  0.0620 -0.0146 -0.5740
 8097TIP3    H148486   6.196   2.831   3.453  0.3183  0.3514 -0.4259
 8097TIP3    H248487   6.065   2.780   3.510  0.4446 -0.3430 -0.7497
 8098TIP3   OH248488   3.082   0.874   3.066  0.1029 -0.1139 -0.5536
 8098TIP3    H148489   3.018   0.932   3.025  0.9658  1.0578 -0.2970
 8098TIP3    H248490   3.041   0.787   3.065 -0.6977  0.2538 -2.0924
 8099TIP3   OH248491   0.983   2.956   3.451 -0.3565  0.8535  0.1789
 8099TIP3    H148492   0.905   2.951   3.507 -0.1561 -0.1424  0.3869
 8099TIP3    H248493   1.046   3.007   3.502  0.5068 -1.6418  1.7367
 8100TIP3   OH248494   3.535   1.659   3.374  0.3077  0.1910  0.3170
 8100TIP3    H148495   3.537   1.597   3.446 -0.5490 -0.5323 -0.2716
 8100TIP3    H248496   3.584   1.616   3.304 -0.2059  0.2209 -0.0620
 8101TIP3   OH248497   2.068   0.670   3.774 -0.0160 -0.2244  0.3595
 8101TIP3    H148498   2.058   0.587   3.727 -0.7310  0.5020 -0.8266
 8101TIP3    H248499   1.978   0.700   3.787  0.2316  0.2812  0.9385
 8102TIP3   OH248500   3.203   5.975   4.099  0.5105 -0.0314  0.6949
 8102TIP3    H148501   3.124   5.943   4.143 -0.3600  2.5863  1.2287
 8102TIP3    H248502   3.274   5.947   4.156 -0.0349 -1.9953  0.4779
 8103TIP3   OH248503   1.700   3.258   4.285  0.1955  0.0839 -0.1593
 8103TIP3    H148504   1.681   3.321   4.216  1.3008  1.5540  0.8180
 8103TIP3    H248505   1.787   3.224   4.263 -0.9699 -2.3181 -1.4948
 8104TIP3   OH248506   4.358   1.374   5.522 -0.0418  0.0506  0.2060
 8104TIP3    H148507   4.342   1.299   5.580  0.9202 -0.1684  0.2139
 8104TIP3    H248508   4.279   1.382   5.470 -0.7131 -0.0949  1.1711
 8105TIP3   OH248509   5.564   2.502   4.758 -0.2669 -0.2816  0.3363
 8105TIP3    H148510   5.588   2.418   4.797  3.2389  1.2040  1.7718
 8105TIP3    H248511   5.547   2.560   4.832  0.3916  1.0513 -0.5136
 8106TIP3   OH248512   2.248   2.774   3.867 -0.0332  0.0992  0.2402
 8106TIP3    H148513   2.294   2.728   3.938  0.0728 -0.6124 -0.2833
 8106TIP3    H248514   2.318   2.804   3.809  0.1350  2.9988  1.7066
 8107TIP3   OH248515   2.466   3.643   3.323 -0.4236  0.2538 -0.1808
 8107TIP3    H148516   2.429   3.706   3.262 -2.8417 -0.3425  0.5762
 8107TIP3    H248517   2.430   3.667   3.409  0.8889 -0.4467  0.6070
 8108TIP3   OH248518   5.067   0.433   2.928  0.0064  0.6094  0.0553
 8108TIP3    H148519   5.044   0.398   2.842 -0.5792 -1.9751  1.1719
 8108TIP3    H248520   5.119   0.511   2.909  1.8302 -1.0865 -2.6716
 8109TIP3   OH248521   2.996   2.756   5.098  0.6433  0.5053  0.0474
 8109TIP3    H148522   2.970   2.690   5.162  1.0504 -0.2774 -0.5859
 8109TIP3    H248523   2.919   2.767   5.042  0.6624  0.3754 -0.0049
 8110TIP3   OH248524   2.759   0.038   2.041  0.3549  0.0981 -0.7872
 8110TIP3    H148525   2.837   0.044   1.986  0.6534 -1.4529 -0.5736
 8110TIP3    H248526   2.771   0.107   2.107  1.2433  0.2743 -1.1196
 8111TIP3   OH248527   6.217   0.778   3.705 -0.3854 -0.0174 -0.1816
 8111TIP3    H148528   6.302   0.787   3.662  0.9590 -2.7609  1.5341
 8111TIP3    H248529   6.160   0.738   3.639  0.0533  0.5811 -0.9328
 8112TIP3   OH248530   6.011   3.808   4.163  0.1021  0.1860  0.2657
 8112TIP3    H148531   6.099   3.817   4.127  1.0367 -1.3617  1.9594
 8112TIP3    H248532   6.022   3.819   4.257 -1.2524 -1.4807  0.6757
 8113TIP3   OH248533   5.625   3.148   3.078 -0.6639  0.1876  0.0676
 8113TIP3    H148534   5.534   3.160   3.051 -0.3280  2.6016 -0.2515
 8113TIP3    H248535   5.632   3.197   3.160  0.4245  0.3549 -0.1115
 8114TIP3   OH248536   1.023   2.983   4.108 -0.2341 -0.5188 -0.2212
 8114TIP3    H148537   1.078   2.976   4.030  1.2603 -2.3841  0.9147
 8114TIP3    H248538   0.987   2.895   4.120  1.2103 -0.8688  2.2744
 8115TIP3   OH248539   5.946   2.136   3.866  0.1943 -0.4644 -0.0457
 8115TIP3    H148540   5.997   2.158   3.788  0.9981  0.0684  0.6138
 8115TIP3    H248541   5.904   2.052   3.844  0.5556 -0.4149 -0.9723
 8116TIP3   OH248542   1.133   5.812   3.160 -0.0608  0.1260  0.4169
 8116TIP3    H148543   1.090   5.792   3.244  1.5690  0.6802  1.4234
 8116TIP3    H248544   1.079   5.881   3.122 -1.0586 -0.4194  0.7832
 8117TIP3   OH248545   6.818   0.182   3.632  0.5094  0.2966 -0.2007
 8117TIP3    H148546   6.834   0.099   3.678  2.0045  0.9027  0.4135
 8117TIP3    H248547   6.856   0.169   3.545  1.8620  0.7335  0.3014
 8118TIP3   OH248548   5.426   6.137   3.325 -0.4493  0.2726  0.3436
 8118TIP3    H148549   5.505   6.086   3.313 -1.6416 -1.2977 -1.2809
 8118TIP3    H248550   5.449   6.203   3.391  2.2671  0.0839 -0.3356
 8119TIP3   OH248551   4.339   5.173   3.377  0.4515 -0.1760  0.4722
 8119TIP3    H148552   4.419   5.131   3.347  0.9379  0.4209  0.8969
 8119TIP3    H248553   4.355   5.192   3.469 -0.3922 -0.5322  0.6983
 8120TIP3   OH248554   4.498   4.169   3.275 -0.0099 -0.3238 -0.1095
 8120TIP3    H148555   4.591   4.170   3.250 -0.0233 -2.1289 -0.3186
 8120TIP3    H248556   4.495   4.222   3.355  1.0508  0.4036 -0.5194
 8121TIP3   OH248557   1.888   5.826   4.606  0.2369  0.2208  0.2802
 8121TIP3    H148558   1.975   5.806   4.572  0.2443 -2.3879  1.6123
 8121TIP3    H248559   1.892   5.799   4.698 -1.8409  0.5503  0.5055
 8122TIP3   OH248560   3.266   5.691  11.605  0.2260  0.1523  0.1273
 8122TIP3    H148561   3.176   5.668  11.586 -0.2045  1.7615  0.0196
 8122TIP3    H248562   3.304   5.612  11.643 -0.9570 -0.8295 -0.6647
 8123TIP3   OH248563   3.457   1.113   2.871 -0.2732  0.0325  0.4680
 8123TIP3    H148564   3.390   1.079   2.813  0.1570 -1.7336  0.9310
 8123TIP3    H248565   3.467   1.205   2.846  1.1637 -1.0028 -3.4915
 8124TIP3   OH248566   1.399   5.463   4.802  0.3427  0.0440 -1.0581
 8124TIP3    H148567   1.465   5.448   4.870  0.1661  2.5958 -0.2081
 8124TIP3    H248568   1.398   5.382   4.751  2.6708 -0.8266  0.1305
 8125TIP3   OH248569   0.677   2.923   3.834 -0.2266  0.1860  0.1060
 8125TIP3    H148570   0.702   2.957   3.749 -0.7792 -0.3386 -0.2700
 8125TIP3    H248571   0.682   2.828   3.825  1.3359  0.1361  1.1572
 8126TIP3   OH248572   4.211   3.941   1.737  0.2509  0.0345 -0.3758
 8126TIP3    H148573   4.236   4.020   1.689  0.1246  0.3540  0.0698
 8126TIP3    H248574   4.278   3.931   1.804 -0.2133  0.2834  0.1384
 8127TIP3   OH248575   6.235   6.663   2.645 -0.0359  0.5375 -0.0358
 8127TIP3    H148576   6.202   6.597   2.584  0.7085 -0.3681  0.5100
 8127TIP3    H248577   6.274   6.730   2.589  1.9228 -0.9674 -0.5889
 8128TIP3   OH248578   5.268   4.634   3.009  0.3247 -0.0301 -0.0830
 8128TIP3    H148579   5.211   4.664   2.938 -2.5114 -1.0100  1.6059
 8128TIP3    H248580   5.262   4.538   3.006  0.5133 -0.1012  1.2000
 8129TIP3   OH248581   1.022   4.024   4.664 -0.2270  0.4477  0.4141
 8129TIP3    H148582   0.975   3.950   4.704 -0.1259  0.2260  0.1222
 8129TIP3    H248583   0.954   4.075   4.621 -0.0196 -0.8038 -1.5007
 8130TIP3   OH248584   0.429   1.660   4.427 -0.4322 -0.4099 -0.3571
 8130TIP3    H148585   0.356   1.698   4.378 -1.0713  0.5213  1.2592
 8130TIP3    H248586   0.389   1.626   4.507  0.8203 -0.4352  0.2818
 8131TIP3   OH248587   5.313   3.097   3.253  0.2199 -0.1981  0.3217
 8131TIP3    H148588   5.388   3.040   3.270 -0.6272 -1.5823 -0.3877
 8131TIP3    H248589   5.274   3.062   3.172 -1.8102 -0.2029  1.2395
 8132TIP3   OH248590   6.529   2.918   4.783  0.4887  0.7358  0.2516
 8132TIP3    H148591   6.595   2.864   4.826 -1.5708  0.2756  3.2077
 8132TIP3    H248592   6.553   3.008   4.806  1.0356  0.7036 -0.1841
 8133TIP3   OH248593   6.529   1.670   3.403 -0.2921 -0.6115  0.1843
 8133TIP3    H148594   6.518   1.625   3.319 -1.9166  0.0075  0.0270
 8133TIP3    H248595   6.592   1.739   3.385 -0.5772 -0.5264 -0.5170
 8134TIP3   OH248596   1.529   4.952  10.601 -0.2563  0.3460  0.2196
 8134TIP3    H148597   1.602   5.012  10.590  1.7807 -2.3201 -2.7854
 8134TIP3    H248598   1.517   4.945  10.696  4.1625  0.2155  0.9762
 8135TIP3   OH248599   2.996   0.739   3.482 -0.0607 -0.1721  0.0973
 8135TIP3    H148600   2.946   0.818   3.501  1.6678  1.2271 -0.9312
 8135TIP3    H248601   3.061   0.734   3.552  0.2301 -0.3327 -0.1820
 8136TIP3   OH248602   6.504   5.147   2.750 -0.0235  0.3258 -0.0798
 8136TIP3    H148603   6.594   5.132   2.721  0.2705  0.5573  0.7066
 8136TIP3    H248604   6.512   5.177   2.840 -0.9672 -0.8726  0.4157
 8137TIP3   OH248605   2.911   5.573   4.115 -0.1532  0.1003  0.7537
 8137TIP3    H148606   2.820   5.553   4.139  0.2259 -3.3789 -0.1030
 8137TIP3    H248607   2.918   5.546   4.023  1.0362  3.3368 -0.2435
 8138TIP3   OH248608   2.522   4.128   2.416  0.2530 -0.0571 -0.1231
 8138TIP3    H148609   2.590   4.114   2.482 -0.7974  0.9172  1.2146
 8138TIP3    H248610   2.514   4.223   2.410 -1.0937 -0.1543 -0.1108
 8139TIP3   OH248611   2.342   5.025   2.572 -0.4651  0.1203  0.5625
 8139TIP3    H148612   2.413   5.082   2.602 -1.5625  1.1072  1.3940
 8139TIP3    H248613   2.265   5.055   2.621 -1.6490 -0.3575 -0.9187
 8140TIP3   OH248614   5.851   4.425   3.888  0.6860  0.3642  0.6372
 8140TIP3    H148615   5.880   4.392   3.973 -0.5498 -0.3339  0.8165
 8140TIP3    H248616   5.812   4.510   3.908  1.8833  0.9560  0.5079
 8141TIP3   OH248617   1.349   6.430   2.491 -0.1210  0.3549  0.0270
 8141TIP3    H148618   1.432   6.455   2.533 -0.1498  1.4912 -0.5660
 8141TIP3    H248619   1.360   6.337   2.472  2.4649  1.0876 -3.0654
 8142TIP3   OH248620   3.516   0.366   4.590 -0.5040  0.5026  0.5277
 8142TIP3    H148621   3.550   0.424   4.521  1.3916 -2.1951 -1.0276
 8142TIP3    H248622   3.591   0.352   4.648 -0.8930 -0.4470  0.8153
 8143TIP3   OH248623   6.415   5.351   3.141 -0.4597 -0.7026  0.4262
 8143TIP3    H148624   6.470   5.274   3.130  0.9838  0.3578 -0.0460
 8143TIP3    H248625   6.334   5.329   3.094  0.4227 -1.4374 -0.8046
 8144TIP3   OH248626   5.122   6.367   4.194 -0.1510 -0.4532 -0.0900
 8144TIP3    H148627   5.176   6.291   4.215 -1.2786 -1.0674  0.6743
 8144TIP3    H248628   5.170   6.441   4.231 -0.0943 -1.0632  1.1181
 8145TIP3   OH248629   3.313   4.056   4.472  1.0236 -0.2543  0.0738
 8145TIP3    H148630   3.314   4.011   4.556  0.4220 -1.3391 -0.4862
 8145TIP3    H248631   3.349   4.143   4.491 -0.8070  0.1882  1.8098
 8146TIP3   OH248632   1.857   2.705   4.523  0.1169 -0.3512  0.0993
 8146TIP3    H148633   1.839   2.613   4.500  0.3965 -0.3762 -0.0222
 8146TIP3    H248634   1.810   2.718   4.605  0.4344 -0.7328  0.3467
 8147TIP3   OH248635   1.727   6.419   5.395  0.2058 -0.5275 -0.2952
 8147TIP3    H148636   1.645   6.374   5.376  0.2864 -0.1035 -1.7570
 8147TIP3    H248637   1.792   6.350   5.403 -0.1672 -0.8240  0.2467
 8148TIP3   OH248638   1.203   3.834   5.316  0.8032  0.2971  0.0432
 8148TIP3    H148639   1.206   3.779   5.395  1.2110  2.2502  1.4653
 8148TIP3    H248640   1.152   3.911   5.343  1.0006  1.0404 -1.6047
 8149TIP3   OH248641   0.493   0.424   4.254 -0.7262  0.2114 -0.2587
 8149TIP3    H148642   0.415   0.422   4.199 -0.2179  0.1720 -0.9930
 8149TIP3    H248643   0.498   0.337   4.292 -1.2711  0.3451  0.1263
 8150TIP3   OH248644   5.948   2.120   2.224  0.3762 -0.5794  0.2443
 8150TIP3    H148645   5.916   2.210   2.234  1.5787 -0.2713  1.5446
 8150TIP3    H248646   5.932   2.079   2.308  1.5923 -0.9990  0.2861
 8151TIP3   OH248647   3.972   3.005   2.950  0.1607  0.3990 -0.3165
 8151TIP3    H148648   4.005   2.948   3.020 -0.0875 -0.7313 -1.1030
 8151TIP3    H248649   3.913   2.950   2.900  0.3218  1.2055 -1.4214
 8152TIP3   OH248650   4.387   2.573   2.132  0.1815  0.0241  0.1067
 8152TIP3    H148651   4.324   2.602   2.066  1.0787  0.3678 -0.6357
 8152TIP3    H248652   4.350   2.492   2.167 -0.4872  0.0141 -0.5920
 8153TIP3   OH248653   2.791   3.640   2.055  0.6650  0.3864  0.0175
 8153TIP3    H148654   2.718   3.640   1.992  1.3982  1.0684 -0.8541
 8153TIP3    H248655   2.839   3.721   2.036  0.3071  1.1857  2.1737
 8154TIP3   OH248656   2.869   1.457   3.468  0.2845 -0.4705 -0.0469
 8154TIP3    H148657   2.808   1.474   3.541  0.5894 -0.3683  0.1880
 8154TIP3    H248658   2.929   1.390   3.502  0.8711  0.0973  0.0523
 8155TIP3   OH248659   0.021   6.715   3.667 -0.2620  0.6127 -0.1301
 8155TIP3    H148660   0.098   6.710   3.724 -0.6036  2.2983  0.5304
 8155TIP3    H248661   0.056   6.743   3.582 -0.1320  1.4446  0.1855
 8156TIP3   OH248662   2.559   1.571   2.561 -0.4399  0.3666  0.1557
 8156TIP3    H148663   2.467   1.595   2.568 -0.4547 -0.0664  1.8015
 8156TIP3    H248664   2.606   1.654   2.554 -0.7857  0.7163  1.7604
 8157TIP3   OH248665   1.792   6.571   5.176 -0.3439  0.7243  0.4414
 8157TIP3    H148666   1.716   6.556   5.119  0.1807  1.9910 -0.6604
 8157TIP3    H248667   1.783   6.506   5.246 -0.7161 -1.3418 -1.3925
 8158TIP3   OH248668   5.916   5.926   1.997  0.3453  0.5610 -0.4802
 8158TIP3    H148669   5.945   5.841   1.964  1.1884  1.6251 -2.7165
 8158TIP3    H248670   5.988   5.958   2.051  0.5430  0.3777 -0.6403
 8159TIP3   OH248671   4.745   4.408   3.861  0.0780  0.0507  0.1135
 8159TIP3    H148672   4.807   4.340   3.836  0.1464 -0.3698  1.3678
 8159TIP3    H248673   4.661   4.378   3.826  0.4839  0.4629 -1.3084
 8160TIP3   OH248674   6.102   6.016   4.223 -0.6119 -0.1192  0.3379
 8160TIP3    H148675   6.184   6.031   4.270 -0.7482  0.7330  0.3368
 8160TIP3    H248676   6.037   6.065   4.274 -0.6455  1.4452 -1.1079
 8161TIP3   OH248677   4.794   5.164   4.900 -0.3347 -0.3840  0.2316
 8161TIP3    H148678   4.709   5.189   4.936  0.6419  1.5612  1.3277
 8161TIP3    H248679   4.829   5.099   4.961 -0.7170 -0.6474  0.1719
 8162TIP3   OH248680   0.443   5.793   3.786  0.4345 -0.4528 -0.7886
 8162TIP3    H148681   0.365   5.745   3.760  0.5718 -0.6193 -0.8967
 8162TIP3    H248682   0.416   5.845   3.862 -0.7208  2.1054 -2.7930
 8163TIP3   OH248683   0.023   0.010   2.072 -0.0425  0.0190 -0.0731
 8163TIP3    H148684   0.044  -0.066   2.018  0.0589  1.0158 -1.4949
 8163TIP3    H248685  -0.038  -0.023   2.137  0.2239 -1.3385 -0.4858
 8164TIP3   OH248686   3.261   1.695   2.399  0.2796  0.2513  0.1468
 8164TIP3    H148687   3.286   1.703   2.492  0.7133 -1.4178  0.2025
 8164TIP3    H248688   3.313   1.621   2.367  2.3380  2.5446 -2.2115
 8165TIP3   OH248689   2.863   4.055   4.935  0.3194  0.3877  0.5289
 8165TIP3    H148690   2.787   4.106   4.962  0.5447  0.0402  1.9331
 8165TIP3    H248691   2.938   4.114   4.950  0.4141  0.3673  0.1473
 8166TIP3   OH248692   1.384   5.916   3.206 -0.6144 -0.5568  0.1834
 8166TIP3    H148693   1.294   5.895   3.180 -1.1570  0.5046  1.0774
 8166TIP3    H248694   1.410   5.987   3.148 -0.6992 -0.2405  0.5302
 8167TIP3   OH248695   0.682   2.258   2.203  0.3918 -0.5211  0.0825
 8167TIP3    H148696   0.622   2.320   2.162 -0.7098 -1.6507 -0.0865
 8167TIP3    H248697   0.703   2.297   2.288  1.7700  1.2762 -1.0135
 8168TIP3   OH248698   6.605   5.808   4.157 -0.0030  0.3349  0.0772
 8168TIP3    H148699   6.674   5.874   4.163  0.1782  0.2274 -0.7526
 8168TIP3    H248700   6.628   5.755   4.081  0.1027 -0.9858  0.9841
 8169TIP3   OH248701   1.588   4.454   4.815  0.2019  0.2047  0.2368
 8169TIP3    H148702   1.606   4.487   4.903  0.5993 -1.7867  0.9396
 8169TIP3    H248703   1.546   4.369   4.829  1.3026 -0.6766 -1.4846
 8170TIP3   OH248704   2.705   4.829   2.249  0.0334  0.1204  0.0900
 8170TIP3    H148705   2.649   4.751   2.241 -1.0121  0.7021  1.2909
 8170TIP3    H248706   2.644   4.899   2.272  1.3159  0.6625  2.0241
 8171TIP3   OH248707   6.529   5.620   3.010  0.2108  0.2027 -0.3380
 8171TIP3    H148708   6.582   5.697   3.029  0.5743 -0.5351  1.9014
 8171TIP3    H248709   6.583   5.567   2.953  0.6834  0.7920 -0.4482
 8172TIP3   OH248710   1.948   6.201   5.407 -0.3100  0.1630  0.2487
 8172TIP3    H148711   2.012   6.273   5.405 -0.4966  0.4818 -4.1626
 8172TIP3    H248712   1.997   6.127   5.444  1.5206  1.2603  0.1652
 8173TIP3   OH248713   1.690   1.128   3.589 -0.2046  0.0520  0.0912
 8173TIP3    H148714   1.705   1.122   3.683  3.3894 -1.3149 -0.4316
 8173TIP3    H248715   1.721   1.215   3.565 -0.0344 -0.0378 -0.0103
 8174TIP3   OH248716   2.306   5.168   4.769 -0.3304  0.5180  0.4975
 8174TIP3    H148717   2.303   5.227   4.693  1.2645  0.9168  0.7187
 8174TIP3    H248718   2.282   5.082   4.733  0.3915  0.7002 -0.4547
 8175TIP3   OH248719   2.710   5.852   3.804  0.3136  0.2557  0.0754
 8175TIP3    H148720   2.782   5.895   3.848  0.3743  1.4521 -1.1302
 8175TIP3    H248721   2.750   5.781   3.753  0.8052  1.4870 -1.3202
 8176TIP3   OH248722   0.038   2.778   2.886 -0.1705 -0.1657 -0.9596
 8176TIP3    H148723  -0.009   2.860   2.903  0.0364 -0.1858 -0.2762
 8176TIP3    H248724   0.130   2.800   2.897 -0.1917 -0.9046  1.1621
 8177TIP3   OH248725   6.597   5.531   3.497  0.4031 -0.1452  0.4084
 8177TIP3    H148726   6.648   5.517   3.417 -1.6887 -2.0464 -0.6878
 8177TIP3    H248727   6.585   5.626   3.501  2.2800  0.1635 -0.3686
 8178TIP3   OH248728   3.153   4.600   2.809 -0.0144 -0.3182 -0.2652
 8178TIP3    H148729   3.072   4.571   2.768  0.1340 -0.3313 -0.5511
 8178TIP3    H248730   3.221   4.582   2.744  0.0425  0.9710 -0.5828
 8179TIP3   OH248731   1.396   3.555   3.114  0.0820 -0.0596  0.0835
 8179TIP3    H148732   1.332   3.553   3.042  1.2115 -0.7992 -0.9431
 8179TIP3    H248733   1.343   3.551   3.193 -1.2263  1.0595 -0.6754
 8180TIP3   OH248734   2.331   4.983   3.102 -0.5421  0.1646  0.3791
 8180TIP3    H148735   2.264   5.017   3.161 -0.5025  0.4575  0.2540
 8180TIP3    H248736   2.377   5.060   3.070  1.1142 -0.1058  1.9387
 8181TIP3   OH248737   0.566   5.709   4.144 -0.1736 -0.4485 -0.4490
 8181TIP3    H148738   0.508   5.637   4.118  0.9195 -1.3473 -0.5179
 8181TIP3    H248739   0.644   5.697   4.090  0.5704 -0.0333  0.5046
 8182TIP3   OH248740   3.904   6.499   4.514  0.3045  0.1151  0.3755
 8182TIP3    H148741   3.818   6.459   4.527  0.7466 -0.6730  0.9569
 8182TIP3    H248742   3.891   6.562   4.443 -0.3194 -1.3507 -0.8532
 8183TIP3   OH248743   1.175   6.368   4.145 -0.0262 -0.0256 -0.5653
 8183TIP3    H148744   1.153   6.451   4.188 -0.6707 -0.9309  0.9608
 8183TIP3    H248745   1.120   6.365   4.067 -0.3948  0.7436 -0.3440
 8184TIP3   OH248746   3.840   2.732   2.603 -0.0164 -0.4191 -0.3775
 8184TIP3    H148747   3.817   2.749   2.695  1.4696  0.5751 -0.1710
 8184TIP3    H248748   3.758   2.745   2.556 -1.0126 -1.7656  0.8758
 8185TIP3   OH248749   6.219   4.296   2.066 -0.0425 -0.5144  0.1398
 8185TIP3    H148750   6.214   4.203   2.088  0.0162 -0.2555  1.2948
 8185TIP3    H248751   6.136   4.315   2.024 -1.7913 -0.2233  3.4248
 8186TIP3   OH248752   5.881   2.436   3.548  0.0889  0.5089 -0.4714
 8186TIP3    H148753   5.797   2.456   3.589  0.6948  0.1751  1.0219
 8186TIP3    H248754   5.867   2.354   3.502 -0.0319 -0.4013  1.1097
 8187TIP3   OH248755   0.125   1.061   3.911 -0.2961  0.5211  0.0491
 8187TIP3    H148756   0.034   1.053   3.884 -0.5725 -0.6942  1.2494
 8187TIP3    H248757   0.141   0.984   3.966  1.5805  0.4800 -0.4919
 8188TIP3   OH248758   5.723   0.073   5.112 -0.2627 -0.4603 -0.3657
 8188TIP3    H148759   5.777   0.085   5.190 -1.6257 -1.5969  0.8096
 8188TIP3    H248760   5.636   0.104   5.138 -1.2080 -2.5705 -0.7622
 8189TIP3   OH248761   1.379   0.243   2.423 -0.5596 -0.3360  0.3372
 8189TIP3    H148762   1.294   0.286   2.434  0.0152  1.5096 -1.8231
 8189TIP3    H248763   1.358   0.151   2.406 -2.1475  0.1324 -0.3719
 8190TIP3   OH248764   3.929   3.189   2.543 -0.0356 -0.0098  0.1308
 8190TIP3    H148765   3.908   3.149   2.458 -0.1356 -0.7055  0.4771
 8190TIP3    H248766   3.970   3.118   2.593  0.4623  0.5283  0.4978
 8191TIP3   OH248767   2.258   6.812   3.039 -0.0883 -0.7609 -0.5505
 8191TIP3    H148768   2.234   6.900   3.067 -2.7518 -1.8232  0.7654
 8191TIP3    H248769   2.354   6.813   3.039 -0.0241  2.1457 -0.7287
 8192TIP3   OH248770   6.477   0.030   2.607  0.3772  0.2656  0.0522
 8192TIP3    H148771   6.502  -0.051   2.562 -0.0413 -0.1329  0.5295
 8192TIP3    H248772   6.540   0.039   2.678 -1.0162 -0.9667  1.5205
 8193TIP3   OH248773   3.549   6.669   2.268 -0.5204 -0.4669 -0.0246
 8193TIP3    H148774   3.502   6.636   2.345  0.2492 -1.3895  0.0805
 8193TIP3    H248775   3.638   6.685   2.300 -0.1892 -0.8788 -0.7154
 8194TIP3   OH248776   5.477   4.403   2.568  0.3705  0.4384 -0.3381
 8194TIP3    H148777   5.493   4.487   2.610  1.1512  0.4127 -0.5690
 8194TIP3    H248778   5.457   4.425   2.477  0.9626  0.3577 -0.4926
 8195TIP3   OH248779   5.272   4.987   2.563  0.1219 -0.2148  0.0907
 8195TIP3    H148780   5.294   4.964   2.653  3.5032  0.0172 -0.5568
 8195TIP3    H248781   5.228   5.072   2.570 -0.0732 -0.4144  1.5416
 8196TIP3   OH248782   6.557   5.604   4.351  0.0222  0.2406  0.0760
 8196TIP3    H148783   6.470   5.599   4.392 -0.1951 -0.9706 -0.4719
 8196TIP3    H248784   6.573   5.697   4.339 -1.4475  0.4680 -0.2885
 8197TIP3   OH248785   4.825   6.410   3.189  0.4132  0.8848 -0.1407
 8197TIP3    H148786   4.831   6.363   3.106  2.6813 -1.2496  1.0951
 8197TIP3    H248787   4.891   6.479   3.183 -0.7749  2.0035 -0.7873
 8198TIP3   OH248788   4.196   0.475   3.194 -0.1298 -0.3771  0.3604
 8198TIP3    H148789   4.216   0.383   3.176 -1.5180 -0.6944  0.3700
 8198TIP3    H248790   4.114   0.473   3.243 -0.1770  0.8709  0.3598
 8199TIP3   OH248791   1.728   6.335   3.584  0.0764 -0.4258 -0.0776
 8199TIP3    H148792   1.654   6.350   3.525 -0.0588  0.2898  0.2692
 8199TIP3    H248793   1.698   6.364   3.669  1.0574  0.7390 -0.1083
 8200TIP3   OH248794   5.614   1.877   3.919 -0.3049  0.0965 -0.0454
 8200TIP3    H148795   5.619   1.822   3.841 -2.1807  0.5895 -0.5602
 8200TIP3    H248796   5.542   1.841   3.970  0.0427  0.5944  0.8242
 8201TIP3   OH248797   6.267   2.861   4.681  0.4175 -0.0833 -0.0374
 8201TIP3    H148798   6.271   2.873   4.586 -0.8492 -3.0105 -0.5817
 8201TIP3    H248799   6.356   2.879   4.712  0.8422  0.9507 -1.7494
 8202TIP3   OH248800   2.897   5.235   3.046 -0.3973 -0.2229 -0.2068
 8202TIP3    H148801   2.918   5.145   3.071 -0.2861 -0.5378 -1.3537
 8202TIP3    H248802   2.952   5.252   2.969 -0.5485  0.7671 -0.1166
 8203TIP3   OH248803   6.118   6.490   2.484  0.4464  0.1148 -0.3070
 8203TIP3    H148804   6.071   6.513   2.403 -0.3326  0.2100  0.1572
 8203TIP3    H248805   6.099   6.397   2.497 -0.4879  0.3950  0.4320
 8204TIP3   OH248806   1.196   6.749   3.072  0.2838  0.0102 -0.2803
 8204TIP3    H148807   1.169   6.794   2.992 -0.0494 -0.9257 -0.7089
 8204TIP3    H248808   1.263   6.686   3.043 -0.5851 -1.0748 -0.0155
 8205TIP3   OH248809   0.341   5.417   3.123  0.6051 -0.0364  0.4869
 8205TIP3    H148810   0.299   5.464   3.051  1.4683  0.9028  0.5787
 8205TIP3    H248811   0.270   5.371   3.166 -0.5703  2.4629  1.3804
 8206TIP3   OH248812   1.674   5.063   4.749 -0.1609 -0.3587 -0.4189
 8206TIP3    H148813   1.760   5.038   4.716 -0.1708 -1.1359  0.0903
 8206TIP3    H248814   1.644   4.985   4.797  0.5814  1.2073  2.8947
 8207TIP3   OH248815   2.093   0.045   5.025 -0.0354 -0.1336  0.0861
 8207TIP3    H148816   2.176   0.038   5.072  0.8032  3.0908 -0.6964
 8207TIP3    H248817   2.029   0.006   5.085  1.6915 -0.5969  1.7334
 8208TIP3   OH248818   3.366   2.468   4.241 -0.8809  0.9997 -0.0952
 8208TIP3    H148819   3.358   2.380   4.203 -0.4081  0.9473 -0.0863
 8208TIP3    H248820   3.279   2.506   4.234 -0.9813  0.6966 -0.5248
 8209TIP3   OH248821   2.920   5.454   3.843 -0.1851 -0.0222  0.3701
 8209TIP3    H148822   2.913   5.364   3.875  0.7125  0.1260  1.0345
 8209TIP3    H248823   2.962   5.446   3.758 -0.6982 -0.2718  0.1345
 8210TIP3   OH248824   2.571   1.805   3.841 -0.1072 -0.6814  0.1124
 8210TIP3    H148825   2.615   1.816   3.757 -0.3740 -0.5384 -0.0082
 8210TIP3    H248826   2.635   1.832   3.906 -1.2941  3.4692 -0.1966
 8211TIP3   OH248827   4.496   4.890   3.520  0.1381 -0.1887  0.1453
 8211TIP3    H148828   4.431   4.868   3.587  0.4161 -1.5852 -0.0279
 8211TIP3    H248829   4.575   4.909   3.570  0.4625 -1.6464  0.2189
 8212TIP3   OH248830   5.933   4.321   4.151  0.2689  0.2070  0.7701
 8212TIP3    H148831   6.013   4.306   4.100 -0.9330 -0.0313 -1.1426
 8212TIP3    H248832   5.885   4.238   4.145 -1.0781  1.0046  0.0777
 8213TIP3   OH248833   5.200   5.525   2.973  1.0751  0.5079 -0.5099
 8213TIP3    H148834   5.240   5.573   3.045  1.2840 -1.0670  0.4561
 8213TIP3    H248835   5.119   5.572   2.955 -0.4115 -0.6153  2.6515
 8214TIP3   OH248836   3.619   6.395   4.148 -0.0905 -1.0038 -0.9135
 8214TIP3    H148837   3.560   6.420   4.077  0.8383 -3.1529 -2.5563
 8214TIP3    H248838   3.590   6.308   4.174 -0.9571  0.0578  2.0570
 8215TIP3   OH248839   6.621   0.899   3.121 -0.4321 -0.1530 -0.5184
 8215TIP3    H148840   6.644   0.992   3.128 -1.1599  0.0069 -0.0848
 8215TIP3    H248841   6.569   0.882   3.200 -2.2722 -0.3403 -1.7275
 8216TIP3   OH248842   6.853   0.587   3.962 -0.9053 -0.0998  0.3118
 8216TIP3    H148843   6.938   0.573   3.921 -0.2674  1.6531  0.9479
 8216TIP3    H248844   6.801   0.510   3.937  0.8269 -1.1633 -0.1404
 8217TIP3   OH248845   4.972   3.335   3.226  0.2032  0.2306 -0.7602
 8217TIP3    H148846   4.905   3.273   3.199 -0.1545  1.1248 -2.0199
 8217TIP3    H248847   5.017   3.292   3.298 -3.7389  0.8726  2.4248
 8218TIP3   OH248848   0.981   5.095   2.557 -0.0872  0.0170  0.3169
 8218TIP3    H148849   0.911   5.129   2.502 -2.4799 -1.0266  2.4936
 8218TIP3    H248850   0.982   5.001   2.538  0.2850 -0.0783  0.7981
 8219TIP3   OH248851   1.995   2.751   3.519 -0.3617  0.3670  0.2712
 8219TIP3    H148852   2.068   2.689   3.532 -1.8497 -1.2849  1.1927
 8219TIP3    H248853   1.951   2.719   3.440 -0.6848  0.7403  0.2997
 8220TIP3   OH248854   1.241   5.521   2.132  0.6522 -0.0461 -0.1707
 8220TIP3    H148855   1.199   5.460   2.194  1.5115  0.5064  0.9996
 8220TIP3    H248856   1.277   5.464   2.064  0.3756 -0.7423  0.2477
 8221TIP3   OH248857   4.302   0.080   3.712  0.4132 -0.1139 -0.0995
 8221TIP3    H148858   4.300   0.005   3.653 -1.5808  0.5663 -0.9685
 8221TIP3    H248859   4.347   0.148   3.662 -0.5699  0.2181 -0.5452
 8222TIP3   OH248860   1.692   2.061   4.447 -0.5977 -0.1088 -0.4023
 8222TIP3    H148861   1.692   2.130   4.380  1.7500 -0.8814 -1.3133
 8222TIP3    H248862   1.783   2.056   4.476 -0.9634 -1.9525  0.5662
 8223TIP3   OH248863   2.255   4.323   5.191 -0.2951  0.3925 -0.7598
 8223TIP3    H148864   2.325   4.338   5.127  0.0284  0.9561 -0.2836
 8223TIP3    H248865   2.218   4.410   5.206  0.3143  0.4424  0.5917
 8224TIP3   OH248866   0.698   4.015   4.402  0.5094 -0.0113  0.0373
 8224TIP3    H148867   0.742   4.097   4.423  1.2432  0.0838 -1.7002
 8224TIP3    H248868   0.751   3.948   4.445  1.0333  0.2897 -0.1215
 8225TIP3   OH248869   2.576   3.694   2.945 -0.2950 -0.6528  0.4476
 8225TIP3    H148870   2.618   3.779   2.951  0.4109 -0.9883  0.4629
 8225TIP3    H248871   2.493   3.710   2.899 -0.5782  0.1647  1.2385
 8226TIP3   OH248872   1.848   2.846   2.685  0.0867  0.2873  0.6987
 8226TIP3    H148873   1.862   2.937   2.712 -0.6590  0.0012  2.1344
 8226TIP3    H248874   1.810   2.804   2.762 -0.3598 -1.0449 -0.2219
 8227TIP3   OH248875   0.876   5.361   3.387 -0.3971 -0.2730 -0.3246
 8227TIP3    H148876   0.938   5.378   3.458  0.9972 -0.7878 -1.3613
 8227TIP3    H248877   0.793   5.398   3.417  0.5703  1.0550  0.8350
 8228TIP3   OH248878   5.603   2.109   4.060  0.4289 -0.2378 -0.7226
 8228TIP3    H148879   5.606   2.181   3.997 -1.4140  0.1844 -0.4022
 8228TIP3    H248880   5.604   2.030   4.006  0.2829  0.0902 -1.2140
 8229TIP3   OH248881   0.106   4.032   2.174  0.1256 -0.5321 -0.0578
 8229TIP3    H148882   0.190   4.012   2.215  0.4493 -1.0428 -0.9349
 8229TIP3    H248883   0.114   4.123   2.146  0.9654 -0.9793 -1.4100
 8230TIP3   OH248884   3.272   1.081   5.562 -0.3884 -0.1362 -0.1965
 8230TIP3    H148885   3.243   0.993   5.539 -1.4242  0.3923 -0.9741
 8230TIP3    H248886   3.192   1.133   5.564  0.4201  1.2263 -1.7419
 8231TIP3   OH248887   3.671   5.329   3.148 -0.1540 -0.0885 -0.0258
 8231TIP3    H148888   3.628   5.252   3.110 -1.1389  0.3848  0.1008
 8231TIP3    H248889   3.755   5.296   3.179 -1.8345 -1.9391  3.1005
 8232TIP3   OH248890   1.647   1.665   3.767 -0.2041 -0.3392 -0.3219
 8232TIP3    H148891   1.556   1.642   3.746 -0.3481 -0.8656  0.7754
 8232TIP3    H248892   1.640   1.748   3.815 -0.0042  0.1310 -1.0828
 8233TIP3   OH248893   3.386   5.450   5.118 -0.0631 -0.0136  0.0350
 8233TIP3    H148894   3.394   5.425   5.026  1.0106  0.6795 -0.0834
 8233TIP3    H248895   3.353   5.372   5.161  0.2589 -0.6373 -0.8085
 8234TIP3   OH248896   3.706   1.350   4.517  0.0940 -0.4425 -0.1646
 8234TIP3    H148897   3.643   1.317   4.581 -1.1529 -1.3913 -1.7950
 8234TIP3    H248898   3.713   1.443   4.537 -1.9667 -0.2744  0.0120
 8235TIP3   OH248899   1.891   5.239   2.528  0.0187 -0.5560 -0.6113
 8235TIP3    H148900   1.894   5.248   2.623  0.3280 -1.7767 -0.4900
 8235TIP3    H248901   1.837   5.162   2.512  0.3830 -0.6636 -1.3983
 8236TIP3   OH248902   6.736   4.065   2.897 -0.0038 -0.1422  0.0121
 8236TIP3    H148903   6.719   4.043   2.805 -0.0344  2.0214 -0.5407
 8236TIP3    H248904   6.824   4.100   2.897 -0.5388  1.2548  0.5276
 8237TIP3   OH248905   4.333   4.197   4.114  0.1597  0.8008 -0.1612
 8237TIP3    H148906   4.312   4.289   4.098  3.5395  1.4474 -1.7761
 8237TIP3    H248907   4.361   4.194   4.206 -1.2932  1.0287  0.3157
 8238TIP3   OH248908   5.862   5.041   2.953  0.1370 -0.2125 -0.4216
 8238TIP3    H148909   5.898   5.072   2.871  1.1096  0.7986  0.3613
 8238TIP3    H248910   5.773   5.076   2.955  1.1994  2.7485  0.4504
 8239TIP3   OH248911   1.510   0.391   3.132 -0.5125  0.5872  0.0595
 8239TIP3    H148912   1.422   0.388   3.094 -1.2605  2.2214  1.4974
 8239TIP3    H248913   1.496   0.430   3.219  1.6935  1.3119  0.1332
 8240TIP3   OH248914   4.829   0.141   4.206  0.3264  0.7909 -0.4747
 8240TIP3    H148915   4.740   0.126   4.174  0.1714 -2.7995  1.2074
 8240TIP3    H248916   4.885   0.096   4.143  0.8212  1.4619 -0.5255
 8241TIP3   OH248917   6.264   1.544   4.831  0.1766 -0.5408  0.8549
 8241TIP3    H148918   6.253   1.633   4.867 -0.4064 -0.3073  0.1218
 8241TIP3    H248919   6.356   1.540   4.805 -0.0876  0.3339 -0.3198
 8242TIP3   OH248920   0.310   2.737   2.911 -0.0190  0.4643  0.3514
 8242TIP3    H148921   0.278   2.676   2.844  0.7498 -1.9591  2.0292
 8242TIP3    H248922   0.397   2.763   2.880 -0.1476  0.3065 -0.1604
 8243TIP3   OH248923   4.345   2.619   3.810  0.0667  0.0695  0.5711
 8243TIP3    H148924   4.312   2.530   3.799  0.1369 -0.1799  2.1229
 8243TIP3    H248925   4.437   2.607   3.836  0.4993  0.6552 -0.6325
 8244TIP3   OH248926   0.655   6.591   2.659  0.1239 -0.4280  0.2621
 8244TIP3    H148927   0.708   6.638   2.595 -1.8182  0.2373 -0.9238
 8244TIP3    H248928   0.565   6.616   2.639 -0.6419 -1.1944  2.4645
 8245TIP3   OH248929   2.142   5.230   5.620 -0.7802 -0.2400  0.1296
 8245TIP3    H148930   2.062   5.220   5.570 -0.1999  1.1315 -1.1521
 8245TIP3    H248931   2.114   5.274   5.701 -1.1318  2.2151 -1.2107
 8246TIP3   OH248932   4.955   4.841   4.570 -0.6383 -0.2101 -0.3008
 8246TIP3    H148933   5.027   4.900   4.591 -1.6254  0.6858  0.6658
 8246TIP3    H248934   4.959   4.774   4.638 -1.3178  0.4089  0.3697
 8247TIP3   OH248935   3.937   1.065   3.684  0.1129 -0.5751 -0.2374
 8247TIP3    H148936   3.921   1.105   3.599  0.5262 -0.3290 -0.2013
 8247TIP3    H248937   4.032   1.051   3.687 -0.0646 -2.0403 -0.4649
 8248TIP3   OH248938   6.709   6.755   3.353  0.0782  0.6143 -0.4841
 8248TIP3    H148939   6.735   6.834   3.399 -1.4218  2.3679 -2.4736
 8248TIP3    H248940   6.784   6.733   3.299  0.3711  0.8766 -0.1864
 8249TIP3   OH248941   3.737   6.614   4.310  0.0359  0.3535 -0.4846
 8249TIP3    H148942   3.687   6.556   4.251 -0.5151 -0.4554  0.7325
 8249TIP3    H248943   3.805   6.651   4.254  1.0669 -2.2633 -1.1250
 8250TIP3   OH248944   0.311   5.495   2.127  0.4722  0.1258  0.4269
 8250TIP3    H148945   0.376   5.559   2.099  0.7926  0.0169  0.9072
 8250TIP3    H248946   0.267   5.468   2.047  0.5375  0.7257  0.1837
 8251TIP3   OH248947   4.057   5.172   3.566  0.3568 -1.0990  0.4563
 8251TIP3    H148948   4.141   5.216   3.560 -0.7724  1.3416  1.1372
 8251TIP3    H248949   4.014   5.213   3.641 -0.8381 -3.4099  1.1249
 8252TIP3   OH248950   3.612   1.876   1.865  0.4179 -0.3538 -0.1511
 8252TIP3    H148951   3.577   1.965   1.865  1.1786  0.0141 -2.2643
 8252TIP3    H248952   3.707   1.887   1.876  0.4123 -0.9981  0.6518
 8253TIP3   OH248953   1.520   4.159   4.328 -0.0409  0.4109 -0.2312
 8253TIP3    H148954   1.519   4.255   4.336 -3.7186  0.4559  0.5129
 8253TIP3    H248955   1.610   4.135   4.348  0.6535  3.6312  1.2566
 8254TIP3   OH248956   5.044   6.287   4.974  0.1647 -0.0940 -0.9113
 8254TIP3    H148957   4.960   6.284   4.929 -0.8381  0.4525  0.8227
 8254TIP3    H248958   5.088   6.363   4.936 -0.1656 -0.3185 -1.7624
 8255TIP3   OH248959   6.779   3.522   4.068  0.0439 -0.0190  0.1851
 8255TIP3    H148960   6.801   3.517   3.975  1.4430  0.1857  0.4914
 8255TIP3    H248961   6.856   3.560   4.109 -0.1580 -1.0352  1.5729
 8256TIP3   OH248962   3.486   5.003   4.847  0.1062 -0.0588  0.2460
 8256TIP3    H148963   3.504   5.020   4.755 -0.0754 -2.2473 -0.2683
 8256TIP3    H248964   3.395   5.029   4.859 -0.4025 -1.3089 -0.6764
 8257TIP3   OH248965   6.470   6.478   2.636 -0.0057 -0.2133 -0.1270
 8257TIP3    H148966   6.448   6.539   2.566 -0.5764  0.8744  0.9692
 8257TIP3    H248967   6.531   6.526   2.692  1.3966 -1.4884 -0.4825
 8258TIP3   OH248968   0.785   0.368   4.046 -0.2322  0.1857  0.4697
 8258TIP3    H148969   0.748   0.280   4.036  2.1641 -0.6705 -2.2106
 8258TIP3    H248970   0.852   0.358   4.114  2.0532 -0.9554 -1.7733
 8259TIP3   OH248971   5.604   0.088   4.569  0.4735 -0.0872  0.2365
 8259TIP3    H148972   5.595   0.082   4.664 -0.1998  1.0869  0.2680
 8259TIP3    H248973   5.519   0.120   4.539  0.6410 -0.5608 -0.7766
 8260TIP3   OH248974   3.454   0.121   4.464  0.2732 -0.8083  0.3681
 8260TIP3    H148975   3.484   0.196   4.517 -2.4919  0.5210  0.2260
 8260TIP3    H248976   3.482   0.142   4.375 -1.2212  0.5944  0.1728
 8261TIP3   OH248977   5.975   0.738   4.270  0.0937  0.3693 -0.4197
 8261TIP3    H148978   5.896   0.780   4.302  0.5232  0.0407  1.1176
 8261TIP3    H248979   6.008   0.797   4.202 -0.4624  1.4351  0.2141
 8262TIP3   OH248980   1.847   0.551   2.473  0.3681  0.0149  0.3112
 8262TIP3    H148981   1.760   0.511   2.465  0.4238 -0.0446  0.0263
 8262TIP3    H248982   1.883   0.550   2.385  0.6309  0.1084  0.4165
 8263TIP3   OH248983   4.975   3.566   3.511  0.4672  0.4226 -0.5233
 8263TIP3    H148984   4.972   3.661   3.523 -0.0833  0.3811 -0.2686
 8263TIP3    H248985   4.897   3.546   3.460 -0.3382 -0.0662  0.8305
 8264TIP3   OH248986   4.734   1.692   4.657 -0.9697 -0.1759  0.2090
 8264TIP3    H148987   4.716   1.701   4.564  0.2785  1.9765  0.1104
 8264TIP3    H248988   4.677   1.758   4.699 -1.9593 -1.5182  1.0645
 8265TIP3   OH248989   2.695   2.349   4.814 -0.4656  0.2067  0.3121
 8265TIP3    H148990   2.729   2.422   4.763  1.1723  1.0874  2.4938
 8265TIP3    H248991   2.690   2.382   4.904 -2.7781 -1.3966  0.8565
 8266TIP3   OH248992   3.985   3.456   1.968  0.4086 -0.5595 -0.4326
 8266TIP3    H148993   4.055   3.518   1.984 -0.6465  0.1546  1.7238
 8266TIP3    H248994   3.990   3.394   2.040 -0.8735 -0.7702 -0.4986
 8267TIP3   OH248995   2.838   2.712   3.711  0.1325  0.3247  0.0875
 8267TIP3    H148996   2.890   2.685   3.787  0.5204  0.7421 -0.0264
 8267TIP3    H248997   2.894   2.774   3.664 -0.5749  1.0029  0.1151
 8268TIP3   OH248998   0.212   3.729   3.854 -0.3975  0.1670  0.5178
 8268TIP3    H148999   0.280   3.790   3.828  0.0522 -0.8743 -0.8287
 8268TIP3    H249000   0.144   3.738   3.788 -0.1571 -1.0425  0.0778
 8269TIP3   OH249001   3.480   3.236   2.198 -0.3376 -0.0582 -0.4810
 8269TIP3    H149002   3.458   3.310   2.142 -2.0164 -1.0404 -1.1937
 8269TIP3    H249003   3.567   3.257   2.233  0.1418  1.2421 -2.3114
 8270TIP3   OH249004   1.072   0.260   2.808 -0.5202  0.1791 -0.4425
 8270TIP3    H149005   1.105   0.173   2.831  0.3632  0.5797 -0.1096
 8270TIP3    H249006   1.102   0.274   2.718 -0.6600  0.1371 -0.4951
 8271TIP3   OH249007   0.540   6.808   4.430  0.1236  0.3356  0.0483
 8271TIP3    H149008   0.623   6.766   4.405 -0.3007 -1.9314  2.0805
 8271TIP3    H249009   0.532   6.792   4.524 -2.2291  1.2668  0.0732
 8272TIP3   OH249010   5.984   3.036   5.514  0.0059  0.5806 -0.3546
 8272TIP3    H149011   6.003   2.949   5.550 -1.6784  0.2654 -0.1697
 8272TIP3    H249012   6.059   3.089   5.542  0.5962 -0.5623  0.3627
 8273TIP3   OH249013   5.445   6.317   3.049  0.3683 -0.0828 -0.0256
 8273TIP3    H149014   5.481   6.369   3.121  1.3503 -0.1119 -0.4823
 8273TIP3    H249015   5.350   6.328   3.058  0.4927  0.3881  0.9160
 8274TIP3   OH249016   5.326   6.829   3.640 -0.0256 -0.2749 -0.0923
 8274TIP3    H149017   5.243   6.839   3.687 -0.1009  1.7786 -0.5735
 8274TIP3    H249018   5.385   6.892   3.682  0.8108 -0.5751 -0.7887
 8275TIP3   OH249019   3.744   0.460   2.420  0.0723  0.1047  0.1090
 8275TIP3    H149020   3.835   0.439   2.441 -0.1772  0.1591  1.3230
 8275TIP3    H249021   3.750   0.515   2.342  0.9801 -1.0663 -0.6783
 8276TIP3   OH249022   3.776   1.344   2.936  0.1300 -0.7996 -0.4481
 8276TIP3    H149023   3.689   1.339   2.897 -0.6063  0.3567  0.9490
 8276TIP3    H249024   3.761   1.335   3.030  1.2178  1.6118  0.0463
 8277TIP3   OH249025   6.464   0.507   3.649 -0.4349  0.4065  0.0937
 8277TIP3    H149026   6.484   0.445   3.579  2.1286 -0.0976  1.1652
 8277TIP3    H249027   6.453   0.591   3.605 -0.9162 -0.2558 -1.0814
 8278TIP3   OH249028   3.932   4.143   4.139  0.3594  0.6280  0.0667
 8278TIP3    H149029   3.844   4.117   4.166  0.0924  1.0180 -0.4114
 8278TIP3    H249030   3.922   4.232   4.106  0.8602  0.5238 -0.3794
 8279TIP3   OH249031   6.345   1.161   4.517  0.0425 -0.3645  0.0620
 8279TIP3    H149032   6.389   1.084   4.481 -1.3249 -1.0788 -0.1529
 8279TIP3    H249033   6.318   1.134   4.605 -2.3757 -0.9738 -0.7864
 8280TIP3   OH249034   4.075   5.911   6.379 -0.5550 -0.3961  0.6599
 8280TIP3    H149035   3.985   5.905   6.348 -0.2838 -1.3279 -0.0135
 8280TIP3    H249036   4.126   5.863   6.313  1.0641  3.6808 -1.4144
 8281TIP3   OH249037   0.515   5.052   3.314  0.1615 -0.3385  0.1470
 8281TIP3    H149038   0.485   5.067   3.225  0.2617  0.4328  0.2352
 8281TIP3    H249039   0.609   5.074   3.313  0.3349 -1.0642  0.2655
 8282TIP3   OH249040   0.917   1.487   2.404 -0.5738 -0.1010 -0.1654
 8282TIP3    H149041   0.923   1.391   2.405 -2.8224 -0.2889  0.7818
 8282TIP3    H249042   0.920   1.513   2.496  0.1566  0.7601 -0.4221
 8283TIP3   OH249043   0.325   0.520   3.273 -0.0468  0.4029  0.2100
 8283TIP3    H149044   0.317   0.493   3.182 -0.1425 -0.8159  0.5685
 8283TIP3    H249045   0.419   0.518   3.291  0.0900  1.8711 -0.2020
 8284TIP3   OH249046   3.197   1.350   4.324 -0.3322 -0.1619  0.2394
 8284TIP3    H149047   3.120   1.400   4.297 -0.2630 -1.3730 -2.5818
 8284TIP3    H249048   3.244   1.408   4.383 -2.2431  1.4939  0.2387
 8285TIP3   OH249049   4.116   1.740   1.990  0.4332 -0.4474  0.0352
 8285TIP3    H149050   4.072   1.680   1.930  0.8814 -0.3680 -0.3824
 8285TIP3    H249051   4.196   1.695   2.016  0.2715 -0.4546  0.5313
 8286TIP3   OH249052   2.984   1.517   4.291  0.0791  0.0091  0.2270
 8286TIP3    H149053   2.911   1.478   4.339  0.6701 -1.8851 -0.3035
 8286TIP3    H249054   2.977   1.610   4.308 -2.6576 -0.0555 -0.0691
 8287TIP3   OH249055   6.713   2.928   4.448 -0.1013  0.3077 -0.0638
 8287TIP3    H149056   6.663   3.004   4.479 -0.7791 -0.3839  0.5876
 8287TIP3    H249057   6.770   2.963   4.380 -0.0317  1.4937  0.5782
 8288TIP3   OH249058   1.171   3.608   4.925 -0.4501 -0.0775  0.6315
 8288TIP3    H149059   1.249   3.614   4.870 -1.0595 -0.1869 -0.2685
 8288TIP3    H249060   1.143   3.699   4.937 -0.2571 -0.0458  0.8702
 8289TIP3   OH249061   1.220   4.892   1.976  0.6430  0.0561  0.0328
 8289TIP3    H149062   1.291   4.856   1.923 -0.1185 -0.1034 -0.9065
 8289TIP3    H249063   1.251   4.979   2.001  1.6715 -0.4774  0.6707
 8290TIP3   OH249064   0.697   3.922   5.130  0.6176 -0.2063  0.0451
 8290TIP3    H149065   0.724   3.976   5.205 -0.3156 -0.2651  0.4344
 8290TIP3    H249066   0.603   3.912   5.140  0.8966 -2.8911  0.6074
 8291TIP3   OH249067   4.212   5.092   3.877  0.4282  0.1965  0.2250
 8291TIP3    H149068   4.307   5.092   3.862  0.2726 -0.2517 -0.8667
 8291TIP3    H249069   4.198   5.022   3.941  0.6568 -1.0079 -0.9995
 8292TIP3   OH249070   3.457   3.617   3.907  0.0110  0.2107  0.0226
 8292TIP3    H149071   3.415   3.692   3.949 -0.4795 -0.9153  1.6238
 8292TIP3    H249072   3.548   3.645   3.893 -0.9790  2.4926 -3.0111
 8293TIP3   OH249073   4.820   1.139   2.177 -0.4104  0.0097 -0.6339
 8293TIP3    H149074   4.725   1.131   2.171 -0.6394  0.0079  2.0123
 8293TIP3    H249075   4.840   1.219   2.129 -1.8522  0.4202 -0.6023
 8294TIP3   OH249076   1.805   3.803   3.631  0.3757 -0.4177  0.5433
 8294TIP3    H149077   1.760   3.723   3.603 -1.9513 -0.0993  2.9514
 8294TIP3    H249078   1.853   3.777   3.710  2.4078 -0.1422 -0.5586
 8295TIP3   OH249079   5.763   0.751   2.392  0.3941 -0.6126 -0.3326
 8295TIP3    H149080   5.720   0.725   2.473  0.3066 -0.1323 -0.2265
 8295TIP3    H249081   5.762   0.846   2.393  1.7607 -0.5767 -0.1673
 8296TIP3   OH249082   4.105   4.145   4.471 -0.2463  0.1148 -0.0521
 8296TIP3    H149083   4.134   4.114   4.385  1.3986  0.3726  0.3691
 8296TIP3    H249084   4.010   4.137   4.469 -0.1005 -2.0807 -1.0585
 8297TIP3   OH249085   0.307   4.964   2.840 -0.4844  0.0488  0.5111
 8297TIP3    H149086   0.351   4.965   2.755 -0.8811  0.3885  0.3078
 8297TIP3    H249087   0.226   4.915   2.824  0.3733 -1.6957  1.1752
 8298TIP3   OH249088   5.304   2.671   4.101  0.2554 -0.0574  0.0276
 8298TIP3    H149089   5.269   2.709   4.181 -0.7550 -0.8814 -0.0046
 8298TIP3    H249090   5.227   2.645   4.051  0.8917 -1.3837 -0.3066
 8299TIP3   OH249091   0.779   5.947   3.814 -0.2751  0.1770 -0.1160
 8299TIP3    H149092   0.842   6.004   3.770  0.3778 -1.0951 -0.8759
 8299TIP3    H249093   0.711   5.930   3.749 -0.0239 -0.5925 -0.1865
 8300TIP3   OH249094   0.360   5.502   3.688  0.1087 -0.3499 -0.1207
 8300TIP3    H149095   0.363   5.464   3.600  0.2545 -0.0910 -0.2298
 8300TIP3    H249096   0.438   5.468   3.732 -0.6859 -1.5881  0.3770
 8301TIP3   OH249097   2.760   3.403   4.233 -0.0904  0.6464  0.1319
 8301TIP3    H149098   2.702   3.338   4.272 -0.9030 -0.6447 -2.9057
 8301TIP3    H249099   2.847   3.382   4.266 -0.5056 -1.3168  0.0538
 8302TIP3   OH249100   4.325   1.546   2.671  0.2828  0.0201  0.2191
 8302TIP3    H149101   4.402   1.540   2.614  0.8019 -0.6742  0.9599
 8302TIP3    H249102   4.252   1.516   2.616  1.1987 -3.5205  0.6812
 8303TIP3   OH249103   5.036   0.627   6.006  0.1487 -0.1225  0.3799
 8303TIP3    H149104   5.100   0.566   5.969  0.0052 -0.3440  0.4945
 8303TIP3    H249105   4.975   0.644   5.935  1.7902  2.1796 -0.6143
 8304TIP3   OH249106   0.190   3.216   5.432 -0.4191 -0.4010  0.3552
 8304TIP3    H149107   0.217   3.307   5.444  0.5729 -0.5821 -0.3879
 8304TIP3    H249108   0.097   3.221   5.412 -0.9170  0.2778  2.5480
 8305TIP3   OH249109   3.624   4.633   3.494 -0.1226  0.2068 -0.1835
 8305TIP3    H149110   3.632   4.600   3.584  0.3664  0.5957 -0.0835
 8305TIP3    H249111   3.664   4.720   3.496 -1.9939  1.1202 -0.2861
 8306TIP3   OH249112   1.476   0.445   4.744  0.4389 -0.0563 -0.2159
 8306TIP3    H149113   1.490   0.350   4.746 -0.8976 -0.2746  1.1514
 8306TIP3    H249114   1.399   0.456   4.688  1.3630  0.3705 -1.4353
 8307TIP3   OH249115   0.070   6.737   3.133 -0.0777  0.3966 -0.2342
 8307TIP3    H149116   0.145   6.782   3.171 -0.3409  0.1328  0.6253
 8307TIP3    H249117   0.037   6.798   3.067 -0.0662  1.2199  0.4967
 8308TIP3   OH249118   2.794   4.445   2.158 -0.2893 -0.3479  0.4169
 8308TIP3    H149119   2.782   4.473   2.068  0.2879 -0.1220  0.4045
 8308TIP3    H249120   2.713   4.469   2.203  0.8430  3.1518  0.8725
 8309TIP3   OH249121   3.036   0.228   3.760  0.5848  0.9806 -0.7123
 8309TIP3    H149122   3.112   0.277   3.726  0.7898  1.1606 -0.0027
 8309TIP3    H249123   2.970   0.295   3.777  1.2980  1.1953  1.4409
 8310TIP3   OH249124   5.904   4.431   3.371  0.3230 -0.2428 -0.0471
 8310TIP3    H149125   5.902   4.511   3.424 -0.0751  0.2504 -0.7914
 8310TIP3    H249126   5.889   4.361   3.434 -0.4759  0.3606  0.4536
 8311TIP3   OH249127   4.077   2.250   2.886  0.0486 -0.0056 -0.4143
 8311TIP3    H149128   4.150   2.230   2.945  0.4809  2.2654 -0.1000
 8311TIP3    H249129   4.094   2.339   2.856 -2.0572  0.1833 -1.1939
 8312TIP3   OH249130   4.897   0.220   3.582 -0.2742  0.3273 -0.0377
 8312TIP3    H149131   4.815   0.192   3.541  0.0579  0.0101 -0.4995
 8312TIP3    H249132   4.882   0.311   3.607 -0.8163  0.2251  0.0062
 8313TIP3   OH249133   2.366   4.057   5.145 -0.0644  0.2174  0.1022
 8313TIP3    H149134   2.404   4.140   5.116  2.1146 -0.8291 -0.2392
 8313TIP3    H249135   2.424   4.027   5.215 -1.5136 -0.4614  1.0577
 8314TIP3   OH249136   2.411   6.854   3.687 -0.1395  0.1639 -0.1462
 8314TIP3    H149137   2.330   6.869   3.638 -1.4209 -0.8827  1.5227
 8314TIP3    H249138   2.431   6.762   3.674  1.4212  0.6261 -1.3683
 8315TIP3   OH249139   0.969   2.170   2.210 -0.2284  0.2787 -0.4316
 8315TIP3    H149140   0.987   2.083   2.174  0.5655  0.8064 -1.3706
 8315TIP3    H249141   0.932   2.219   2.137 -0.1245  0.9007 -0.0740
 8316TIP3   OH249142   3.044   3.091   3.191  0.2030 -1.1889  0.2460
 8316TIP3    H149143   2.976   3.071   3.254 -0.7554 -0.7277 -0.6217
 8316TIP3    H249144   3.081   3.006   3.168 -2.1398 -1.8453 -1.5191
 8317TIP3   OH249145   2.905   0.620   4.155  0.2543 -0.1148  0.0548
 8317TIP3    H149146   2.960   0.698   4.150  0.1721 -0.1287 -1.8672
 8317TIP3    H249147   2.952   0.554   4.105 -0.0091 -1.1164  1.0849
 8318TIP3   OH249148   3.711   3.573   3.286  0.1570 -0.1646 -0.1397
 8318TIP3    H149149   3.712   3.480   3.311  0.7901 -0.0418  0.3026
 8318TIP3    H249150   3.785   3.611   3.333  0.8365  0.2602 -1.5177
 8319TIP3   OH249151   1.627   6.658   3.490 -0.3767  0.4745  0.0543
 8319TIP3    H149152   1.662   6.747   3.484  0.5878  0.0561 -0.7626
 8319TIP3    H249153   1.656   6.628   3.577  1.7382 -0.0110 -0.7606
 8320TIP3   OH249154   0.897   0.766   2.413 -0.0984 -0.2264  0.7618
 8320TIP3    H149155   0.950   0.689   2.390  0.8234  0.9635 -1.4489
 8320TIP3    H249156   0.960   0.827   2.451 -0.5617 -0.0573  1.2618
 8321TIP3   OH249157   1.367   4.458   2.571  0.0533 -0.5440 -0.3378
 8321TIP3    H149158   1.444   4.481   2.622  0.4106 -0.7442 -0.7769
 8321TIP3    H249159   1.303   4.525   2.594 -0.0987 -1.1212  1.0123
 8322TIP3   OH249160   5.699   1.714   4.697  0.1851 -0.4776 -0.3953
 8322TIP3    H149161   5.678   1.727   4.789  0.0464  0.9273 -0.5947
 8322TIP3    H249162   5.791   1.689   4.696  0.1539 -0.6069  0.1390
 8323TIP3   OH249163   5.818   1.050   2.468 -0.2863  0.3472  0.6891
 8323TIP3    H149164   5.908   1.054   2.502 -0.8373  0.9608  2.1509
 8323TIP3    H249165   5.811   1.126   2.411 -0.6563  1.9326  2.7118
 8324TIP3   OH249166   3.654   2.628   3.059 -0.3013  0.2777 -0.2350
 8324TIP3    H149167   3.604   2.654   3.137  0.3488  0.4683  0.1286
 8324TIP3    H249168   3.589   2.621   2.990 -1.1411 -1.4670  0.6783
 8325TIP3   OH249169   6.849   3.782   2.070  0.2050 -0.1932 -0.5346
 8325TIP3    H149170   6.854   3.789   1.975  0.5642  0.8207 -0.4562
 8325TIP3    H249171   6.884   3.866   2.102 -0.5446 -0.2501  0.4728
 8326TIP3   OH249172   2.777   4.481   3.094  0.0525 -0.1019 -0.2792
 8326TIP3    H149173   2.845   4.546   3.081 -2.4253  2.6854 -0.5028
 8326TIP3    H249174   2.775   4.465   3.188  0.8544 -0.0578 -0.2542
 8327TIP3   OH249175   5.052   3.619   3.205 -0.6425 -0.2407  0.2967
 8327TIP3    H149176   5.011   3.545   3.249 -0.1270 -1.0156 -0.4838
 8327TIP3    H249177   5.042   3.692   3.266  1.3402 -1.5870  2.4117
 8328TIP3   OH249178   1.220   5.289   3.874  0.0233 -0.7894 -0.0462
 8328TIP3    H149179   1.203   5.283   3.968 -0.2477  2.1163  0.1825
 8328TIP3    H249180   1.192   5.378   3.850  1.2744 -0.9862 -2.6146
 8329TIP3   OH249181   5.885   2.520   2.971  0.8085 -0.5595 -0.1059
 8329TIP3    H149182   5.885   2.424   2.970 -2.0926 -0.6650  0.9445
 8329TIP3    H249183   5.847   2.545   2.887  3.1158 -0.1801 -1.1218
 8330TIP3   OH249184   1.596   4.518   3.113 -0.3886  0.2150  0.0893
 8330TIP3    H149185   1.515   4.470   3.102 -1.1337  1.3591  0.3884
 8330TIP3    H249186   1.570   4.600   3.155  0.9054  0.6431  0.1053
 8331TIP3   OH249187   2.539   1.180   4.510  0.1221  0.2118 -0.5148
 8331TIP3    H149188   2.493   1.193   4.592 -0.7690  0.6114 -1.0635
 8331TIP3    H249189   2.502   1.099   4.475  0.3094  0.1841 -0.6515
 8332TIP3   OH249190   2.135   3.203   3.031  0.1315 -0.2890  0.4751
 8332TIP3    H149191   2.189   3.280   3.012 -0.5114  0.3524  1.2073
 8332TIP3    H249192   2.190   3.129   3.007  0.1112  0.4073 -1.9785
 8333TIP3   OH249193   2.730   5.641   3.118  0.3457  0.4292  0.6270
 8333TIP3    H149194   2.697   5.725   3.148  0.2404  0.4163  0.5516
 8333TIP3    H249195   2.747   5.654   3.024  0.2348  0.3393  0.5938
 8334TIP3   OH249196   2.801   5.003   4.170 -0.0157 -0.2227  0.5228
 8334TIP3    H149197   2.737   4.977   4.104 -0.7933 -1.0517  1.5591
 8334TIP3    H249198   2.755   4.994   4.254  0.9267  0.8220  1.1919
 8335TIP3   OH249199   2.102   5.002   4.504  0.0354  0.2208  0.1601
 8335TIP3    H149200   2.055   4.973   4.426 -1.5161 -0.0513  1.1409
 8335TIP3    H249201   2.173   4.938   4.514 -0.4278 -0.4057 -0.4049
 8336TIP3   OH249202   3.854   2.456  13.140 -0.7613 -0.2407 -0.6686
 8336TIP3    H149203   3.787   2.399  13.101 -0.8699  0.4790 -1.5758
 8336TIP3    H249204   3.813   2.492  13.218 -0.5209 -1.7626  0.1988
 8337TIP3   OH249205   6.783   2.383   4.145  0.0923  0.3388 -0.0416
 8337TIP3    H149206   6.871   2.394   4.181  0.8194 -0.7745 -1.3538
 8337TIP3    H249207   6.756   2.296   4.176 -1.1100  1.1782  1.4012
 8338TIP3   OH249208   3.544   6.383   3.088 -0.0778  0.5636 -0.1526
 8338TIP3    H149209   3.548   6.314   3.021  0.1405 -0.3232  0.7492
 8338TIP3    H249210   3.527   6.336   3.169 -3.0221  1.8408  0.0901
 8339TIP3   OH249211   2.859   0.905   2.157  0.1563 -0.3209 -0.2440
 8339TIP3    H149212   2.864   0.983   2.212  1.7066 -0.2839 -0.3809
 8339TIP3    H249213   2.780   0.917   2.105  0.1654  0.9748  0.0097
 8340TIP3   OH249214   2.675   5.667   5.046 -0.5569 -0.2118 -0.6168
 8340TIP3    H149215   2.670   5.575   5.021  2.1674 -0.9219  1.0089
 8340TIP3    H249216   2.742   5.704   4.989 -1.3584  0.6901 -0.9915
 8341TIP3   OH249217   5.198   3.501   3.723 -0.6156  1.0196  0.1422
 8341TIP3    H149218   5.194   3.543   3.638  1.3961  0.4799 -0.2771
 8341TIP3    H249219   5.107   3.500   3.754 -1.5308  0.5169 -2.3170
 8342TIP3   OH249220   5.066   5.924   2.722 -0.6095 -1.0059  0.0875
 8342TIP3    H149221   5.157   5.905   2.698 -0.7765 -2.1086  0.2876
 8342TIP3    H249222   5.066   6.018   2.741  0.2279 -0.7507 -1.0322
 8343TIP3   OH249223   1.508   4.128   2.424  0.5244 -0.0950 -0.3280
 8343TIP3    H149224   1.436   4.071   2.450 -0.2137  0.3687 -1.3007
 8343TIP3    H249225   1.549   4.155   2.507  1.1757 -2.3556  0.1521
 8344TIP3   OH249226   0.108   2.392   2.369  0.5150  0.1511  0.1724
 8344TIP3    H149227   0.141   2.413   2.456  0.4574 -2.1896  0.8433
 8344TIP3    H249228   0.166   2.322   2.338 -0.6116 -0.3796 -0.8375
 8345TIP3   OH249229   1.036   3.826   3.090  0.1738  0.7871 -0.1744
 8345TIP3    H149230   1.040   3.857   2.999 -0.6474  1.8106  0.1284
 8345TIP3    H249231   1.109   3.869   3.133 -1.3479  2.9255  0.4041
 8346TIP3   OH249232   1.758   4.301   4.383 -0.3416  0.3444  0.2921
 8346TIP3    H149233   1.758   4.274   4.475 -1.4453 -0.9540 -0.0474
 8346TIP3    H249234   1.710   4.383   4.382 -2.6720 -0.9235  0.6023
 8347TIP3   OH249235   4.464   2.786   4.172  0.1607 -0.6925 -0.0564
 8347TIP3    H149236   4.406   2.800   4.098  0.8139  1.1935 -0.2674
 8347TIP3    H249237   4.441   2.854   4.235  0.1280 -1.7890  1.1893
 8348TIP3   OH249238   4.531   2.965  11.212  0.6424  0.2639 -0.0632
 8348TIP3    H149239   4.510   2.934  11.123  2.1293  1.2885 -0.8058
 8348TIP3    H249240   4.524   2.886  11.266 -0.9673 -0.2450 -0.9520
 8349TIP3   OH249241   0.998   1.667   3.788  0.1634  0.1308 -0.4236
 8349TIP3    H149242   0.911   1.657   3.749 -0.7748 -0.9334  1.7547
 8349TIP3    H249243   1.037   1.741   3.741 -2.5368  1.6651 -0.4771
 8350TIP3   OH249244   2.878   5.962   3.142 -0.3048  0.3298 -0.3233
 8350TIP3    H149245   2.859   6.044   3.097 -1.5896  0.1998 -0.0494
 8350TIP3    H249246   2.793   5.919   3.151  0.4743 -1.5905 -1.5132
 8351TIP3   OH249247   0.347   0.838   4.224 -0.2377  0.0581 -0.0806
 8351TIP3    H149248   0.265   0.788   4.231 -1.1689  1.4726 -0.4564
 8351TIP3    H249249   0.353   0.860   4.131 -0.5931  1.8096  0.2888
 8352TIP3   OH249250   2.730   0.710   3.696  0.0401  0.1612  0.7141
 8352TIP3    H149251   2.721   0.790   3.644  1.9756 -0.1461 -0.2019
 8352TIP3    H249252   2.699   0.641   3.637 -0.9096  0.1185  1.2317
 8353TIP3   OH249253   3.844   3.333   3.727 -0.0577  0.1358 -0.0945
 8353TIP3    H149254   3.808   3.409   3.683  0.1741  0.6070  0.5085
 8353TIP3    H249255   3.900   3.369   3.796 -0.2670 -0.5736  0.4625
 8354TIP3   OH249256   3.605   4.047   3.640 -0.0907  0.0843  0.1825
 8354TIP3    H149257   3.511   4.052   3.658 -0.0446 -0.5310  0.6309
 8354TIP3    H249258   3.642   4.121   3.687 -0.6182  1.8477 -2.0249
 8355TIP3   OH249259   3.563   1.068   4.063  0.0436 -0.0040  0.1694
 8355TIP3    H149260   3.484   1.055   4.115 -0.3364 -0.9591 -0.6147
 8355TIP3    H249261   3.631   1.090   4.128 -0.4821 -0.8741  1.0476
 8356TIP3   OH249262   5.591   3.432   3.194 -0.1844 -0.7508 -0.2959
 8356TIP3    H149263   5.568   3.425   3.287 -1.1407  2.6780 -0.1097
 8356TIP3    H249264   5.672   3.483   3.194 -0.4029 -0.3812 -1.3287
 8357TIP3   OH249265   1.913   0.714   5.088 -0.4032 -0.1305 -0.0853
 8357TIP3    H149266   1.830   0.672   5.108  0.3187 -1.3473  0.4354
 8357TIP3    H249267   1.976   0.643   5.084  1.3409  1.0181  3.1208
 8358TIP3   OH249268   6.316   4.552   2.035 -0.3806  0.0307  0.1342
 8358TIP3    H149269   6.262   4.611   1.983 -0.2920 -1.3192 -1.5425
 8358TIP3    H249270   6.262   4.474   2.047  1.6313 -2.0928 -3.0756
 8359TIP3   OH249271   2.957   6.189   2.864 -0.0715  0.2665  0.6666
 8359TIP3    H149272   2.922   6.101   2.854 -1.5063  0.7749  0.9075
 8359TIP3    H249273   3.048   6.176   2.890  0.7220 -1.1165 -2.3004
 8360TIP3   OH249274   5.286   6.429   3.476  0.5470 -0.8509 -0.4139
 8360TIP3    H149275   5.322   6.462   3.393 -0.4478  0.2746 -0.4291
 8360TIP3    H249276   5.362   6.401   3.526  1.4482  1.0590 -0.6140
 8361TIP3   OH249277   2.452   5.938   2.698 -0.3350 -0.2041 -0.4791
 8361TIP3    H149278   2.418   5.885   2.770 -0.6436  1.3020  0.5284
 8361TIP3    H249279   2.526   5.986   2.737 -1.2052  1.4795 -0.8023
 8362TIP3   OH249280   6.778   4.624   2.364  0.0428 -0.1023  0.7992
 8362TIP3    H149281   6.720   4.619   2.440 -0.1615 -1.6043  0.5907
 8362TIP3    H249282   6.722   4.600   2.290  0.3609  0.8602  0.2309
 8363TIP3   OH249283   5.737   5.800   2.541  0.1416  0.4849  0.5546
 8363TIP3    H149284   5.677   5.801   2.466  1.4500  1.2746 -0.5278
 8363TIP3    H249285   5.741   5.891   2.570 -0.2385  0.2079  1.5228
 8364TIP3   OH249286   5.893   2.070   4.473  0.4149 -0.3130 -0.2739
 8364TIP3    H149287   5.844   2.142   4.434  1.8301  0.6820 -0.2863
 8364TIP3    H249288   5.884   2.083   4.567 -0.1746 -0.7242 -0.2701
 8365TIP3   OH249289   2.736   3.931   5.148 -0.6524 -0.0101  0.1578
 8365TIP3    H149290   2.748   3.837   5.132 -0.2385 -0.0716  0.7653
 8365TIP3    H249291   2.785   3.974   5.078  1.7086 -0.2699  1.5279
 8366TIP3   OH249292   5.712   5.439   2.630 -0.4229  0.2790  0.0488
 8366TIP3    H149293   5.726   5.359   2.580  0.6014  0.5276 -0.0874
 8366TIP3    H249294   5.675   5.501   2.566 -1.7343 -0.2252  0.2836
 8367TIP3   OH249295   6.271   2.466   4.197 -0.2590 -0.6331 -0.1524
 8367TIP3    H149296   6.318   2.394   4.156  0.2771 -0.0388 -0.5954
 8367TIP3    H249297   6.280   2.539   4.136  1.7178  0.6841  1.5883
 8368TIP3   OH249298   5.242   0.860   3.981 -0.0231  0.3055 -0.0270
 8368TIP3    H149299   5.313   0.798   3.967  0.0720  0.4737 -0.2870
 8368TIP3    H249300   5.169   0.806   4.014 -0.2397 -0.0921 -1.1206
 8369TIP3   OH249301   2.159   1.237   2.714 -0.4128  0.3025 -0.2872
 8369TIP3    H149302   2.066   1.220   2.726 -0.3367 -0.4618 -0.7363
 8369TIP3    H249303   2.201   1.197   2.791 -0.5169  1.4070  0.3681
 8370TIP3   OH249304   6.726   2.883   2.284  0.0012 -0.2059 -0.1620
 8370TIP3    H149305   6.785   2.900   2.358  0.5430 -1.6474 -0.2262
 8370TIP3    H249306   6.746   2.793   2.258 -1.1311 -0.1782 -1.2122
 8371TIP3   OH249307   6.460   6.072   2.402  0.3829  0.8653  0.2534
 8371TIP3    H149308   6.422   5.989   2.430  0.8639 -0.2619 -2.1967
 8371TIP3    H249309   6.425   6.136   2.464 -1.5137 -0.8649  1.0868
 8372TIP3   OH249310   1.658   6.515   3.267  0.8881  0.5191  0.1237
 8372TIP3    H149311   1.584   6.465   3.301  1.2442 -1.2234 -1.5132
 8372TIP3    H249312   1.669   6.587   3.330  0.5627 -1.6177  2.8294
 8373TIP3   OH249313   1.982   4.799   2.868  0.4743  0.0336 -0.0895
 8373TIP3    H149314   2.060   4.854   2.873  0.6349 -0.2254  0.3550
 8373TIP3    H249315   1.927   4.828   2.941 -0.7426  1.5373 -1.5340
 8374TIP3   OH249316   0.219   3.451   4.126 -1.1464 -0.3328  0.3091
 8374TIP3    H149317   0.263   3.445   4.041 -1.4644  0.3362  0.0879
 8374TIP3    H249318   0.189   3.362   4.145  0.0899 -0.7641  0.3576
 8375TIP3   OH249319   3.902   0.720   2.342  0.5727 -0.0092 -0.3360
 8375TIP3    H149320   3.908   0.750   2.251  0.1227 -3.1688 -1.5221
 8375TIP3    H249321   3.810   0.732   2.366  0.8168  1.4180 -0.0127
 8376TIP3   OH249322   1.287   4.311   2.040  0.0503  0.4481  0.0334
 8376TIP3    H149323   1.259   4.355   2.120 -0.1401  0.3603  0.0159
 8376TIP3    H249324   1.296   4.381   1.976  0.7185  0.5834  0.2747
 8377TIP3   OH249325   5.186   4.951   3.209 -0.3885  0.0771 -0.2432
 8377TIP3    H149326   5.154   4.996   3.288  0.5971  0.1276  0.1494
 8377TIP3    H249327   5.146   4.998   3.137  0.4748  1.5215  0.1686
 8378TIP3   OH249328   4.570   0.389   5.541 -0.5192  0.3320  0.0239
 8378TIP3    H149329   4.553   0.480   5.564 -2.0484 -0.4040  2.1424
 8378TIP3    H249330   4.623   0.356   5.614  0.9231 -0.2643 -1.2225
 8379TIP3   OH249331   3.741   3.949   1.641  0.2863  0.4442  0.1852
 8379TIP3    H149332   3.760   3.941   1.547  0.7626 -0.8051  0.3728
 8379TIP3    H249333   3.647   3.966   1.645 -0.1215 -1.4059 -0.4769
 8380TIP3   OH249334   1.727   6.183   4.346 -0.3483  0.0157 -0.3955
 8380TIP3    H149335   1.691   6.130   4.274  0.3112  0.4734 -1.0861
 8380TIP3    H249336   1.678   6.156   4.423  0.3622 -2.0690 -0.5974
 8381TIP3   OH249337   0.382   2.494   4.531 -0.5670  0.6922  0.4047
 8381TIP3    H149338   0.459   2.461   4.576  0.0168  0.9891 -0.3653
 8381TIP3    H249339   0.352   2.567   4.585 -0.0378  0.8705  0.4576
 8382TIP3   OH249340   1.932   4.571   4.501 -0.0904  0.2874  0.4423
 8382TIP3    H149341   1.838   4.582   4.516 -0.4935 -1.5014 -0.4906
 8382TIP3    H249342   1.947   4.478   4.515  1.0477  0.0535 -1.8593
 8383TIP3   OH249343   0.080   3.054   5.029  0.0892 -0.0693  0.4991
 8383TIP3    H149344  -0.004   3.095   5.046  0.1393  0.5411 -0.6460
 8383TIP3    H249345   0.091   2.991   5.100 -2.2047 -1.5404 -0.3493
 8384TIP3   OH249346   2.907   2.870   2.111  0.1059 -0.1796  0.8136
 8384TIP3    H149347   2.934   2.792   2.064  2.4947 -0.6119  2.6968
 8384TIP3    H249348   2.811   2.868   2.109  0.1210 -1.6821 -1.4403
 8385TIP3   OH249349   5.389   5.396   2.849  0.3242 -0.2628  0.0761
 8385TIP3    H149350   5.456   5.383   2.916 -0.1330 -2.0062  0.2538
 8385TIP3    H249351   5.315   5.436   2.895  0.5675 -0.0726  0.2947
 8386TIP3   OH249352   0.536   5.871   5.320 -0.5918  0.0477  0.8250
 8386TIP3    H149353   0.478   5.797   5.340 -0.9540 -1.0702 -3.2849
 8386TIP3    H249354   0.479   5.948   5.327 -2.2791 -0.8629 -1.4261
 8387TIP3   OH249355   5.547   4.310   3.994 -0.3020  0.6158 -0.0697
 8387TIP3    H149356   5.588   4.256   4.061 -1.1607  1.0571  0.8369
 8387TIP3    H249357   5.612   4.316   3.924  0.4593 -0.1642  0.5578
 8388TIP3   OH249358   4.488   5.141   3.810  0.1542  0.1109 -0.2999
 8388TIP3    H149359   4.491   5.052   3.777 -0.2138  0.3732 -1.0651
 8388TIP3    H249360   4.553   5.143   3.881 -0.2763 -0.9239  0.1466
 8389TIP3   OH249361   1.510   5.339   2.431  0.3487 -0.2402  0.3217
 8389TIP3    H149362   1.600   5.310   2.446  0.2878  0.1266  1.6009
 8389TIP3    H249363   1.469   5.333   2.518 -0.2967  1.4588  0.1717
 8390TIP3   OH249364   2.579   1.031   3.175 -0.2774  0.3441 -0.7871
 8390TIP3    H149365   2.522   0.955   3.182 -0.3570  0.1738 -2.6946
 8390TIP3    H249366   2.659   1.006   3.221 -0.4305 -0.7725 -1.1085
 8391TIP3   OH249367   5.105   4.703   3.569 -0.4773 -0.1836 -0.0581
 8391TIP3    H149368   5.199   4.694   3.554 -0.3894  0.1135  0.3139
 8391TIP3    H249369   5.068   4.716   3.482 -0.2843 -1.2633 -0.3124
 8392TIP3   OH249370   4.429   5.866   2.629  0.1748 -0.3638  0.0845
 8392TIP3    H149371   4.382   5.950   2.627 -2.7756 -1.9116  0.0876
 8392TIP3    H249372   4.405   5.823   2.547  1.3796 -1.3896  0.2331
 8393TIP3   OH249373   5.073   3.782   2.423  0.0279 -0.4692 -0.0407
 8393TIP3    H149374   5.016   3.785   2.500 -2.0155  1.5495 -1.5151
 8393TIP3    H249375   5.131   3.857   2.432  0.4862 -0.8225  0.0061
 8394TIP3   OH249376   1.500   2.460   4.403  0.0586 -0.3133  0.1586
 8394TIP3    H149377   1.551   2.447   4.483 -2.7826 -0.2805  2.1238
 8394TIP3    H249378   1.457   2.376   4.388  0.1045 -0.1441 -1.0636
 8395TIP3   OH249379   5.488   6.541   4.129  0.0704  0.2335  0.2080
 8395TIP3    H149380   5.459   6.504   4.045  0.5037 -1.2674  0.6963
 8395TIP3    H249381   5.567   6.492   4.151  1.6175  2.5205  0.1588
 8396TIP3   OH249382   2.853   3.765   4.398  0.1551  0.2734 -0.3214
 8396TIP3    H149383   2.833   3.780   4.306  1.4527 -0.9747 -0.8534
 8396TIP3    H249384   2.941   3.726   4.397  0.6091  1.1670  1.5166
 8397TIP3   OH249385   1.562   5.601   5.555 -0.0702 -0.0288  0.0802
 8397TIP3    H149386   1.657   5.587   5.554 -0.1974 -1.0026  0.1756
 8397TIP3    H249387   1.550   5.686   5.597  0.8854  1.3391 -2.2234
 8398TIP3   OH249388   3.663   6.739   4.538 -0.5818 -0.1537  0.0337
 8398TIP3    H149389   3.692   6.655   4.575 -2.0417 -0.4638  0.5686
 8398TIP3    H249390   3.669   6.727   4.443  0.2082 -0.4893  0.1210
 8399TIP3   OH249391   5.750   4.042   1.908  0.2135 -0.6929  0.4206
 8399TIP3    H149392   5.772   4.026   1.999  1.5003  1.8511  0.6483
 8399TIP3    H249393   5.671   4.096   1.912 -0.9001 -2.1979 -0.1070
 8400TIP3   OH249394   3.544   6.196   2.596 -0.1516 -0.1534 -0.1007
 8400TIP3    H149395   3.459   6.210   2.639  0.6141  1.0448  1.0905
 8400TIP3    H249396   3.544   6.103   2.574 -2.1944  0.0295 -1.0800
 8401TIP3   OH249397   1.539   6.396   4.634 -0.5082  0.1304  0.1457
 8401TIP3    H149398   1.569   6.443   4.712 -2.6445  0.1981  0.9686
 8401TIP3    H249399   1.499   6.464   4.579 -1.4208 -0.3221  0.2312
 8402TIP3   OH249400   6.138   4.464   3.777 -0.2682  0.4447 -0.3284
 8402TIP3    H149401   6.195   4.435   3.705  1.0841  0.5177  0.6705
 8402TIP3    H249402   6.071   4.396   3.783  1.5383 -1.3752  0.4796
 8403TIP3   OH249403   1.451   6.567   3.916  0.5057 -0.1303  0.0177
 8403TIP3    H149404   1.511   6.625   3.962 -0.1371 -1.0859  2.2375
 8403TIP3    H249405   1.364   6.597   3.942 -0.0098  0.6932 -2.4516
 8404TIP3   OH249406   2.210   3.635   3.454 -0.5076 -0.2946 -0.5129
 8404TIP3    H149407   2.210   3.718   3.501 -0.9742 -0.7741  0.3576
 8404TIP3    H249408   2.223   3.568   3.522  0.3601 -0.9110 -1.2556
 8405TIP3   OH249409   2.364   6.565   2.055 -0.1386 -0.0204 -0.0633
 8405TIP3    H149410   2.412   6.645   2.077  0.6945 -0.7961  1.0647
 8405TIP3    H249411   2.377   6.553   1.961  0.7453  0.5155 -0.0152
 8406TIP3   OH249412   2.900   5.688   4.659  0.0643  0.3329  0.6643
 8406TIP3    H149413   2.912   5.718   4.749  2.0672 -1.4748  1.0809
 8406TIP3    H249414   2.821   5.634   4.662 -1.5098  2.5164  0.6609
 8407TIP3   OH249415   1.097   4.897   3.450 -0.6594 -0.4125  0.0238
 8407TIP3    H149416   1.146   4.817   3.436 -0.0468 -0.0259 -0.0866
 8407TIP3    H249417   1.044   4.880   3.528  0.8731 -0.2864  1.1467
 8408TIP3   OH249418   0.812   6.773   4.367 -0.0775  0.0647 -0.0054
 8408TIP3    H149419   0.882   6.723   4.327 -0.4154 -1.1313  0.8356
 8408TIP3    H249420   0.855   6.831   4.430  0.3698  1.3136 -1.4116
 8409TIP3   OH249421   1.294   5.708   4.814  0.3892  0.1325 -0.3779
 8409TIP3    H149422   1.323   5.616   4.820  0.2628  0.0383 -1.1432
 8409TIP3    H249423   1.368   5.758   4.849 -0.6758 -0.3713  3.0549
 8410TIP3   OH249424   2.318   6.539   3.102  0.2130 -0.2872  0.0444
 8410TIP3    H149425   2.260   6.600   3.058  0.5387 -1.4253 -2.0877
 8410TIP3    H249426   2.267   6.459   3.111  0.9119 -0.7947 -0.3891
 8411TIP3   OH249427   1.643   6.133   4.593 -0.5239 -0.2467 -0.0000
 8411TIP3    H149428   1.683   6.099   4.673 -0.6572  0.7903  0.5176
 8411TIP3    H249429   1.617   6.222   4.615  1.8446  1.0746 -1.9622
 8412TIP3   OH249430   4.163   1.399   1.838  0.5070 -0.7293 -0.2619
 8412TIP3    H149431   4.166   1.418   1.745 -0.5464 -1.3206 -0.4433
 8412TIP3    H249432   4.075   1.425   1.865  0.6749 -0.9019  0.4850
 8413TIP3   OH249433   5.817   3.456   2.328  0.2898 -0.2855 -0.1630
 8413TIP3    H149434   5.828   3.536   2.276  1.2268  0.5650  1.2429
 8413TIP3    H249435   5.847   3.385   2.271  1.2812  0.6043 -0.7978
 8414TIP3   OH249436   1.133   2.752   2.569  0.0591 -0.1831 -0.7767
 8414TIP3    H149437   1.138   2.845   2.588  0.1169  0.0468 -1.8441
 8414TIP3    H249438   1.192   2.711   2.633 -0.8559  0.3686  0.4620
 8415TIP3   OH249439   5.203   4.210   2.189  0.3413  0.5297  0.2383
 8415TIP3    H149440   5.205   4.304   2.204  0.9069  0.3903  1.1017
 8415TIP3    H249441   5.225   4.172   2.274 -3.2705 -0.4729  0.8821
 8416TIP3   OH249442   6.589   0.106   4.262 -0.1336  0.1661 -0.2659
 8416TIP3    H149443   6.494   0.099   4.253 -0.4343  0.4057  2.1116
 8416TIP3    H249444   6.623   0.028   4.220 -1.2837  0.6205 -2.1587
 8417TIP3   OH249445   5.018   0.376   3.177 -0.1601 -0.1171  0.3105
 8417TIP3    H149446   5.060   0.425   3.107 -1.2421  0.2894 -0.0861
 8417TIP3    H249447   5.033   0.284   3.155 -2.1596 -0.0865 -1.6195
 8418TIP3   OH249448   5.241   4.550   4.700 -0.0474  0.0514 -0.3235
 8418TIP3    H149449   5.307   4.604   4.656 -0.1827  0.3537 -0.1568
 8418TIP3    H249450   5.209   4.604   4.772 -1.1992  0.3067 -1.0060
 8419TIP3   OH249451   4.105   1.167   2.691 -0.4509  0.3476  0.8338
 8419TIP3    H149452   4.079   1.233   2.756  1.5152  2.7253 -0.6129
 8419TIP3    H249453   4.093   1.210   2.607  0.4647 -1.3444 -0.2219
 8420TIP3   OH249454   2.170   5.483   4.339 -0.3132  0.3866  0.3051
 8420TIP3    H149455   2.259   5.520   4.339  0.9429 -2.3395 -0.2223
 8420TIP3    H249456   2.163   5.440   4.424 -0.4060 -0.8800 -0.3204
 8421TIP3   OH249457   1.575   1.678   3.032  0.1430 -0.6908 -0.2529
 8421TIP3    H149458   1.532   1.667   3.117  0.2907 -1.7961 -0.3081
 8421TIP3    H249459   1.505   1.708   2.974  0.1415  0.5459  0.3362
 8422TIP3   OH249460   0.716   0.190   3.528 -0.8581  0.0847  0.5698
 8422TIP3    H149461   0.783   0.254   3.551  0.3312 -1.2710  1.0091
 8422TIP3    H249462   0.634   0.231   3.554 -0.1806  1.6255  0.3778
 8423TIP3   OH249463   3.142   6.598   4.643  0.0253 -0.4779  0.1810
 8423TIP3    H149464   3.225   6.637   4.615  0.5886 -0.6101  1.5635
 8423TIP3    H249465   3.154   6.504   4.629  0.7832 -0.6793  1.8939
 8424TIP3   OH249466   5.961   4.515   4.855  0.2318  0.1462 -0.2076
 8424TIP3    H149467   5.990   4.481   4.940  2.9258  1.5684 -0.4687
 8424TIP3    H249468   5.943   4.608   4.872 -2.3567 -0.2185 -0.5597
 8425TIP3   OH249469   1.996   5.064   2.317 -0.4353 -0.0272 -0.2468
 8425TIP3    H149470   1.977   5.001   2.387  1.1960  0.1455  0.3996
 8425TIP3    H249471   2.090   5.079   2.323 -0.2923  0.2200 -2.3242
 8426TIP3   OH249472   4.157   0.136   3.332 -0.1181 -1.3582 -0.2669
 8426TIP3    H149473   4.238   0.162   3.377  0.1461  0.0150 -1.4227
 8426TIP3    H249474   4.167   0.174   3.244 -2.2086 -0.7773 -0.2971
 8427TIP3   OH249475   6.832   5.937   3.257  0.7184  0.5021  0.1726
 8427TIP3    H149476   6.846   5.850   3.221  1.5068  0.9740 -0.7253
 8427TIP3    H249477   6.908   5.987   3.228 -0.6865  2.0282 -1.0700
 8428TIP3   OH249478   3.473   0.253   2.963  0.1825 -0.0546  0.0958
 8428TIP3    H149479   3.444   0.190   3.030  1.0391 -1.3271 -0.6808
 8428TIP3    H249480   3.566   0.234   2.952  0.7489  2.1863  0.6737
 8429TIP3   OH249481   2.692   4.365   4.670  0.0156 -0.0118  0.4094
 8429TIP3    H149482   2.670   4.273   4.651 -0.9458  0.1926  0.4906
 8429TIP3    H249483   2.759   4.360   4.738 -0.9821 -0.6480  1.3757
 8430TIP3   OH249484   6.355   0.874   4.352 -0.8843  0.3068  0.1959
 8430TIP3    H149485   6.339   0.806   4.286 -0.8063 -0.0298  0.5197
 8430TIP3    H249486   6.445   0.903   4.335 -0.9510  0.3976 -0.0050
 8431TIP3   OH249487   6.110   4.695   2.794 -0.0138 -0.0813 -0.3843
 8431TIP3    H149488   6.194   4.740   2.794 -0.8646  1.5757 -0.9756
 8431TIP3    H249489   6.133   4.602   2.805  1.9510  0.1859 -1.7136
 8432TIP3   OH249490   4.567   0.853   2.938  0.6262  0.1237  0.2738
 8432TIP3    H149491   4.510   0.919   2.899  0.4850  0.7787  1.5271
 8432TIP3    H249492   4.568   0.781   2.875 -0.7867  0.5211 -0.2375
 8433TIP3   OH249493   0.998   5.881   1.841  0.1060 -0.3906 -0.0131
 8433TIP3    H149494   0.954   5.823   1.778 -0.5866  1.4774 -1.3324
 8433TIP3    H249495   0.946   5.961   1.840  1.8414  0.7890  0.6696
 8434TIP3   OH249496   4.490   0.885   4.818  0.3934 -0.2192 -0.2850
 8434TIP3    H149497   4.583   0.863   4.812  0.5708  0.4124  0.0297
 8434TIP3    H249498   4.484   0.973   4.780  0.1895  0.3946  1.0916
 8435TIP3   OH249499   2.316   4.074   3.837 -0.3090  0.0866  0.3444
 8435TIP3    H149500   2.406   4.045   3.849 -0.3136  0.0932  0.3950
 8435TIP3    H249501   2.306   4.149   3.896 -0.7339 -0.7038  1.3079
 8436TIP3   OH249502   5.458   6.484   3.248 -0.1833 -0.2667  0.0207
 8436TIP3    H149503   5.529   6.549   3.254 -0.1284 -0.4398  1.7455
 8436TIP3    H249504   5.393   6.526   3.192  0.7499  0.4114 -0.5911
 8437TIP3   OH249505   2.044   0.142   3.084  0.1063 -0.5333 -0.2586
 8437TIP3    H149506   2.002   0.057   3.090 -0.7856 -0.3112 -2.4084
 8437TIP3    H249507   2.058   0.156   2.990 -1.3096  2.3704 -0.1747
 8438TIP3   OH249508   3.909   3.786   4.493 -0.1451 -0.0863  0.3433
 8438TIP3    H149509   3.931   3.700   4.530  0.6918  0.4932  1.2352
 8438TIP3    H249510   3.913   3.772   4.398 -0.3819 -1.1212  0.4704
 8439TIP3   OH249511   4.109   2.659   5.148 -0.6086  0.6364 -0.0968
 8439TIP3    H149512   4.199   2.688   5.164 -0.6395 -0.1555  1.8375
 8439TIP3    H249513   4.056   2.737   5.159 -0.2001  1.0283 -0.8495
 8440TIP3   OH249514   5.615   2.894   2.431 -0.3499 -0.3393  0.2845
 8440TIP3    H149515   5.556   2.843   2.486 -1.5111 -0.0477 -0.6554
 8440TIP3    H249516   5.560   2.963   2.394  0.8520  0.6776  0.3233
 8441TIP3   OH249517   0.412   0.741   2.863  0.5884 -0.5090  0.4560
 8441TIP3    H149518   0.480   0.778   2.919  1.1818  0.3095 -0.7621
 8441TIP3    H249519   0.369   0.817   2.823  0.0510 -1.0572 -0.0330
 8442TIP3   OH249520   6.038   2.034   2.976 -0.0739  0.8662 -0.0636
 8442TIP3    H149521   6.091   1.985   3.040  0.0966  1.6974  0.4555
 8442TIP3    H249522   6.087   2.028   2.894 -0.2037 -0.0666 -0.0809
 8443TIP3   OH249523   5.036   4.472   2.874 -0.2428 -0.2417  0.2989
 8443TIP3    H149524   5.017   4.541   2.937 -2.9986 -2.1107  1.7171
 8443TIP3    H249525   4.957   4.465   2.821  0.8523 -0.8300 -1.3383
 8444TIP3   OH249526   5.810   4.624   5.157 -0.2977 -0.2140 -0.0335
 8444TIP3    H149527   5.893   4.576   5.165 -0.4409 -0.1228  2.6085
 8444TIP3    H249528   5.833   4.714   5.179 -0.5209  0.5526 -2.5819
 8445TIP3   OH249529   0.652   5.506   4.337 -0.2971 -0.1385  0.9155
 8445TIP3    H149530   0.600   5.440   4.292 -1.2123  0.2938  1.3172
 8445TIP3    H249531   0.665   5.576   4.273 -0.5065 -0.0970  0.9178
 8446TIP3   OH249532   5.441   4.804   4.042 -0.6701  0.2676  0.3133
 8446TIP3    H149533   5.512   4.844   4.093  0.3269  0.6252 -1.2785
 8446TIP3    H249534   5.405   4.737   4.100  0.5682  0.4896  1.3934
 8447TIP3   OH249535   3.365   6.657   2.467  0.3397 -0.1957 -0.0041
 8447TIP3    H149536   3.388   6.635   2.557  0.5331 -0.5083 -0.1298
 8447TIP3    H249537   3.302   6.590   2.441 -0.7312  0.6535  0.3371
 8448TIP3   OH249538   4.584   3.381   2.252 -0.1390 -0.4356  0.2449
 8448TIP3    H149539   4.672   3.418   2.258 -0.4356  0.4745 -0.6281
 8448TIP3    H249540   4.541   3.433   2.184 -1.5668 -0.4284  1.1067
 8449TIP3   OH249541   3.065   0.010   3.471  0.0286 -0.2082 -0.3275
 8449TIP3    H149542   3.029   0.035   3.386 -0.3596  0.9131  0.1409
 8449TIP3    H249543   2.989  -0.017   3.522  0.3040 -1.2110 -0.4420
 8450TIP3   OH249544   5.924   6.122   4.395  0.2906  0.2219 -0.2867
 8450TIP3    H149545   5.921   6.063   4.471  2.9436  0.7413  0.3321
 8450TIP3    H249546   5.899   6.208   4.430  1.6408  0.4876  0.0746
 8451TIP3   OH249547   1.536   5.031   4.112 -0.4034 -0.0138  0.6284
 8451TIP3    H149548   1.615   5.015   4.060  0.0820 -1.4557  1.7297
 8451TIP3    H249549   1.532   5.126   4.120  2.0350  0.0961  1.6699
 8452TIP3   OH249550   3.004   5.110   3.913 -0.2243  0.0519  0.0910
 8452TIP3    H149551   2.936   5.150   3.968 -1.7804 -0.3297 -1.4801
 8452TIP3    H249552   2.961   5.035   3.872  1.3888 -0.6713 -0.3612
 8453TIP3   OH249553   2.152   3.705   2.523  0.3200  0.1399 -0.8339
 8453TIP3    H149554   2.101   3.745   2.593  1.6636 -1.3754  1.1355
 8453TIP3    H249555   2.166   3.775   2.460 -2.4290  1.1052 -0.4983
 8454TIP3   OH249556   1.698   6.086   2.007 -0.6418  0.2927 -1.2978
 8454TIP3    H149557   1.677   6.019   2.073 -0.0550 -0.2091 -1.6113
 8454TIP3    H249558   1.790   6.071   1.985  0.4659  3.1296  0.8255
 8455TIP3   OH249559   3.484   5.988   3.857 -0.0053 -0.7775 -0.1108
 8455TIP3    H149560   3.549   6.050   3.889 -1.2925  0.1871  0.7424
 8455TIP3    H249561   3.487   5.915   3.920  0.3210 -0.7960 -0.1459
 8456TIP3   OH249562   6.317   5.395   2.359  0.2102 -0.1969 -0.6642
 8456TIP3    H149563   6.381   5.345   2.409 -0.2953 -1.1243 -0.9185
 8456TIP3    H249564   6.364   5.422   2.280  0.5529 -0.0813 -0.4206
 8457TIP3   OH249565   0.680   5.654   4.683 -0.6654  0.0077 -0.0263
 8457TIP3    H149566   0.612   5.627   4.745 -0.4129 -0.1515  0.1845
 8457TIP3    H249567   0.740   5.707   4.735  0.2079 -1.1336  0.1734
 8458TIP3   OH249568   1.250   2.659   3.007 -0.3145  0.2975 -0.3176
 8458TIP3    H149569   1.194   2.598   3.053  0.4730  0.8554  1.4611
 8458TIP3    H249570   1.191   2.706   2.948 -1.1810 -1.0702 -0.5924
 8459TIP3   OH249571   0.839   2.748   2.596 -0.2774  0.3439 -0.0292
 8459TIP3    H149572   0.928   2.769   2.567  0.1794 -0.0240  1.0541
 8459TIP3    H249573   0.850   2.718   2.686 -1.6025  1.1195  0.4207
 8460TIP3   OH249574   4.471   6.450   1.907 -0.6674 -0.0636 -0.5211
 8460TIP3    H149575   4.534   6.523   1.911  0.6736 -1.1152 -1.4439
 8460TIP3    H249576   4.495   6.393   1.979  0.4352 -1.2075 -1.7545
 8461TIP3   OH249577   5.242   0.057   3.209  0.0810  0.1130  0.6292
 8461TIP3    H149578   5.238  -0.007   3.280  0.2026 -0.9377 -0.2831
 8461TIP3    H249579   5.151   0.074   3.187  0.0496 -1.5362 -0.6620
 8462TIP3   OH249580   1.455   3.209   2.579 -0.0974  0.4815  0.4986
 8462TIP3    H149581   1.376   3.190   2.529  0.6651  1.5058 -1.1785
 8462TIP3    H249582   1.433   3.286   2.632  0.0370  1.3770 -0.7043
 8463TIP3   OH249583   2.266   6.633   3.835  0.2172 -0.0103  0.0693
 8463TIP3    H149584   2.206   6.570   3.877 -1.1220  0.7871 -0.5890
 8463TIP3    H249585   2.274   6.601   3.745 -2.6443  2.1140 -1.1010
 8464TIP3   OH249586   5.022   1.821   2.389 -0.3084  0.6886 -0.5819
 8464TIP3    H149587   4.946   1.779   2.429  1.2685 -1.9328 -0.0918
 8464TIP3    H249588   5.049   1.887   2.452 -0.5085 -0.3226  0.6039
 8465TIP3   OH249589   4.207   5.198   4.266 -1.0562 -0.0461  0.3496
 8465TIP3    H149590   4.292   5.186   4.224 -0.1213  1.5701  1.7008
 8465TIP3    H249591   4.147   5.146   4.212  0.1372  1.5466 -2.7496
 8466TIP3   OH249592   4.114   6.367   2.218  0.0810 -0.4803 -0.2654
 8466TIP3    H149593   4.091   6.288   2.267  1.1650 -0.9377 -0.4709
 8466TIP3    H249594   4.146   6.334   2.134 -0.1352  0.2245 -0.6308
 8467TIP3   OH249595   5.710   4.302   3.642  0.1113  0.2761 -0.0495
 8467TIP3    H149596   5.762   4.232   3.602 -0.9932 -0.9840  0.6351
 8467TIP3    H249597   5.763   4.332   3.716 -0.2457 -1.2646  0.8787
 8468TIP3   OH249598   5.146   0.267   4.300 -0.4189 -0.4639  0.0612
 8468TIP3    H149599   5.173   0.344   4.349 -1.1579 -1.1017  1.5279
 8468TIP3    H249600   5.220   0.206   4.307 -0.8524 -0.8882  1.1638
 8469TIP3   OH249601   4.467   2.373   3.537 -0.0482 -0.3681  0.5951
 8469TIP3    H149602   4.542   2.432   3.532  1.5215 -2.2762  0.7133
 8469TIP3    H249603   4.409   2.401   3.466  0.9294  0.8940  0.2645
 8470TIP3   OH249604   6.491   2.102   2.611 -0.0336  0.0075 -0.1184
 8470TIP3    H149605   6.502   2.027   2.670 -1.1035  0.3892  0.5925
 8470TIP3    H249606   6.508   2.066   2.524 -1.1584 -1.2229  0.1476
 8471TIP3   OH249607   2.015   4.231   3.276  0.7542  0.0368  0.2171
 8471TIP3    H149608   2.007   4.158   3.338  0.7859  0.7578  1.0841
 8471TIP3    H249609   2.062   4.193   3.202 -0.9331 -1.3601 -0.2291
 8472TIP3   OH249610   1.537   6.459   2.707 -0.5351 -0.0548  0.5184
 8472TIP3    H149611   1.599   6.387   2.721 -0.9133 -0.5281 -0.2284
 8472TIP3    H249612   1.576   6.533   2.754  1.1090 -0.0655 -0.7374
 8473TIP3   OH249613   6.168   5.953   3.810  0.1253 -0.2921 -0.3017
 8473TIP3    H149614   6.202   5.869   3.841 -0.7841 -0.7654 -0.5325
 8473TIP3    H249615   6.197   6.017   3.875 -0.5706 -1.0480  0.7834
 8474TIP3   OH249616   2.955   1.965   3.785  0.5250 -0.1228 -0.1460
 8474TIP3    H149617   3.039   1.926   3.760  1.3690  1.6249 -0.1697
 8474TIP3    H249618   2.895   1.938   3.715  1.3789 -0.3316 -0.8224
 8475TIP3   OH249619   3.193   5.388   4.421 -0.3479  0.5747  0.3067
 8475TIP3    H149620   3.124   5.353   4.364  0.3193  0.5823 -0.5351
 8475TIP3    H249621   3.214   5.473   4.382 -0.7910  1.1781  1.3513
 8476TIP3   OH249622   6.224   5.099   4.286  0.1570  0.5811  0.2955
 8476TIP3    H149623   6.151   5.041   4.262  1.0681 -0.8065  0.7635
 8476TIP3    H249624   6.227   5.164   4.216  0.3356 -1.0851 -1.3111
 8477TIP3   OH249625   5.054   6.697   2.530 -0.1866 -0.2264 -0.2851
 8477TIP3    H149626   5.059   6.633   2.459  3.0200 -0.4558 -0.0152
 8477TIP3    H249627   5.044   6.782   2.486 -1.7650 -0.6185 -0.7595
 8478TIP3   OH249628   5.560   6.281   4.604 -0.1011  0.1747 -0.0174
 8478TIP3    H149629   5.645   6.299   4.644 -0.4468 -0.9818  1.3306
 8478TIP3    H249630   5.526   6.366   4.580  0.6305  0.8203  1.1347
 8479TIP3   OH249631   6.371   1.097   3.434 -0.3464 -0.3215 -0.5294
 8479TIP3    H149632   6.375   1.149   3.354  4.2391  1.3315  0.4645
 8479TIP3    H249633   6.344   1.159   3.502 -1.1044 -0.9016 -0.2903
 8480TIP3   OH249634   4.255   5.540   4.257 -0.2651  0.0913 -0.1427
 8480TIP3    H149635   4.289   5.492   4.333 -1.7412  0.9174  1.1094
 8480TIP3    H249636   4.173   5.495   4.235 -0.2875  0.3934 -0.6776
 8481TIP3   OH249637   5.282   1.314   4.662 -0.3521  0.0628  0.4792
 8481TIP3    H149638   5.311   1.256   4.733  0.8426 -0.6194 -0.5119
 8481TIP3    H249639   5.356   1.316   4.601 -1.7241 -0.2516 -1.2879
 8482TIP3   OH249640   3.723   2.255   2.051 -0.0638 -0.3543 -0.2355
 8482TIP3    H149641   3.735   2.199   1.974 -0.6092 -0.4323 -0.2669
 8482TIP3    H249642   3.630   2.278   2.049 -0.0259 -0.1617  0.2692
 8483TIP3   OH249643   2.849   2.913   5.653 -0.2898 -0.2904 -0.2916
 8483TIP3    H149644   2.871   3.006   5.641 -2.2976  0.2195 -0.4238
 8483TIP3    H249645   2.892   2.869   5.580  3.8670 -0.1250  1.7745
 8484TIP3   OH249646   0.357   6.492   5.336 -0.2791 -0.0459  0.1020
 8484TIP3    H149647   0.397   6.516   5.252  0.1719 -0.4393  0.1993
 8484TIP3    H249648   0.375   6.566   5.394  0.0593 -0.0964  0.0613
 8485TIP3   OH249649   2.131   0.835   2.025 -0.2898 -0.1818  0.3009
 8485TIP3    H149650   2.099   0.825   2.115  0.3545  1.3975  0.7530
 8485TIP3    H249651   2.197   0.905   2.031  0.1190 -0.3867 -1.3218
 8486TIP3   OH249652   5.694   6.371   2.356  0.2481 -0.3768 -0.4642
 8486TIP3    H149653   5.774   6.424   2.349 -0.8402  1.6226  0.9997
 8486TIP3    H249654   5.725   6.285   2.384  1.9226  0.3011 -0.1005
 8487TIP3   OH249655   0.779   1.639   5.271 -0.3504 -0.4954  0.1276
 8487TIP3    H149656   0.746   1.729   5.277 -0.0163 -0.3044 -0.7040
 8487TIP3    H249657   0.861   1.641   5.320 -0.9903 -0.6927  1.2431
 8488TIP3   OH249658   5.074   0.344   3.838  0.3309  0.1320  0.1140
 8488TIP3    H149659   5.128   0.390   3.902  0.4647 -1.7907  1.4742
 8488TIP3    H249660   4.995   0.396   3.832  1.0284  1.2735  0.5555
 8489TIP3   OH249661   5.084   1.733   3.914 -0.1375  0.9095  0.2185
 8489TIP3    H149662   5.000   1.773   3.936 -0.5625  0.5066 -0.6161
 8489TIP3    H249663   5.092   1.745   3.819 -0.0401 -0.4968  0.0156
 8490TIP3   OH249664   4.311   6.700   3.573 -0.2499  0.5637 -0.0183
 8490TIP3    H149665   4.373   6.718   3.502 -0.3652  0.8010 -0.0591
 8490TIP3    H249666   4.321   6.606   3.590  0.2081  0.6240  0.0597
 8491TIP3   OH249667   6.743   3.389   2.259 -0.2262  0.2179  0.4914
 8491TIP3    H149668   6.715   3.310   2.213  0.5780  1.7865 -3.0177
 8491TIP3    H249669   6.838   3.389   2.251 -0.2258  1.5834  0.2283
 8492TIP3   OH249670   4.518   5.690   1.960  0.5288 -0.0814 -0.1460
 8492TIP3    H149671   4.612   5.704   1.966  0.7047 -0.5898 -1.3477
 8492TIP3    H249672   4.480   5.778   1.953  0.9229  0.1150  0.1678
 8493TIP3   OH249673   6.732   6.790   2.302 -0.2406 -0.1013  0.0503
 8493TIP3    H149674   6.673   6.865   2.297 -0.8430 -0.4879  1.1943
 8493TIP3    H249675   6.745   6.775   2.396  0.4339 -0.9980 -0.1693
 8494TIP3   OH249676   1.390   0.428   3.415  0.1997  0.5502  0.2840
 8494TIP3    H149677   1.300   0.454   3.435  0.6239  1.5791  0.9903
 8494TIP3    H249678   1.402   0.346   3.463 -0.2588  0.5921  0.4782
 8495TIP3   OH249679   6.193   5.464   1.993  0.0054 -0.4079 -0.5666
 8495TIP3    H149680   6.196   5.392   1.930 -0.2867 -0.6932 -0.2600
 8495TIP3    H249681   6.270   5.451   2.048  0.4486  0.0340 -1.0586
 8496TIP3   OH249682   1.538   4.610   4.174  0.0760 -0.3437 -0.0018
 8496TIP3    H149683   1.496   4.526   4.154  1.6947 -1.0091 -0.7800
 8496TIP3    H249684   1.631   4.589   4.179  0.3415  1.0812  1.6845
 8497TIP3   OH249685   5.281   5.413   4.075 -0.1097 -0.2178  0.5456
 8497TIP3    H149686   5.187   5.423   4.059 -0.0274 -0.2176  0.0647
 8497TIP3    H249687   5.289   5.325   4.113 -0.2995 -0.2296  0.5622
 8498TIP3   OH249688   0.563   6.430   2.106 -0.1976  0.5760  0.1735
 8498TIP3    H149689   0.558   6.523   2.083 -0.1084  0.1692 -1.6545
 8498TIP3    H249690   0.494   6.389   2.053 -1.5160 -0.1980  2.3278
 8499TIP3   OH249691   5.727   2.358   5.529  0.5524  0.0445  0.2242
 8499TIP3    H149692   5.677   2.279   5.548 -0.3922  0.0774 -1.8349
 8499TIP3    H249693   5.788   2.331   5.459  1.1335  0.8142  0.4197
 8500TIP3   OH249694   1.920   6.419   3.248 -0.1730  0.2723 -0.5053
 8500TIP3    H149695   1.945   6.498   3.295  1.0220 -0.7856  0.7137
 8500TIP3    H249696   1.829   6.434   3.223  0.1434  2.1863 -0.6663
 8501TIP3   OH249697   5.691   1.868   4.361 -0.4765  0.1679 -0.1918
 8501TIP3    H149698   5.771   1.922   4.361 -0.2219 -0.1166  2.3138
 8501TIP3    H249699   5.704   1.807   4.288  1.5903  0.1582  0.1145
 8502TIP3   OH249700   0.841   6.406   4.316 -0.1187 -0.7963 -0.0709
 8502TIP3    H149701   0.926   6.449   4.321  0.7819 -2.5602  0.7125
 8502TIP3    H249702   0.778   6.478   4.322  1.2623  0.3617  3.0977
 8503TIP3   OH249703   3.699   0.280   2.031 -0.0895 -0.4016  0.1627
 8503TIP3    H149704   3.629   0.221   2.057  0.1542 -0.8028 -0.0767
 8503TIP3    H249705   3.765   0.272   2.100  0.9648 -2.1564 -0.9767
 8504TIP3   OH249706   1.980   5.352   3.371 -0.0366 -0.0905  0.6501
 8504TIP3    H149707   2.061   5.348   3.421  0.7662  0.8685 -0.5300
 8504TIP3    H249708   1.966   5.445   3.355 -0.9583 -0.2962  0.1854
 8505TIP3   OH249709   5.592   3.480   2.684  0.0053  0.5753  0.2631
 8505TIP3    H149710   5.550   3.564   2.662  0.7848  0.6815 -0.9333
 8505TIP3    H249711   5.597   3.434   2.600 -1.7568 -1.3291  1.1189
 8506TIP3   OH249712   6.122   5.205   1.889 -0.4356  0.1115 -0.0146
 8506TIP3    H149713   6.178   5.163   1.955 -0.5488 -0.3208 -0.1917
 8506TIP3    H249714   6.042   5.227   1.936 -0.3600  0.1655  0.0902
 8507TIP3   OH249715   0.931   4.988   4.396 -0.0822 -0.0534 -0.1623
 8507TIP3    H149716   0.913   5.069   4.444  0.1918 -1.2804  2.1569
 8507TIP3    H249717   0.846   4.946   4.387  0.1451 -0.9477  1.4827
 8508TIP3   OH249718   5.422   3.020   2.271  0.6032 -0.0706  0.2655
 8508TIP3    H149719   5.481   3.093   2.251  0.1070  0.0284 -0.9039
 8508TIP3    H249720   5.361   3.017   2.197  0.0436 -1.0943  0.7457
 8509TIP3   OH249721   4.180   3.520   4.225 -0.0468  0.9750 -0.0049
 8509TIP3    H149722   4.235   3.465   4.281 -0.8372 -0.1175 -0.2784
 8509TIP3    H249723   4.233   3.534   4.147  0.2379  0.7648  0.1471
 8510TIP3   OH249724   6.824   4.832   4.031  0.1807  0.5239 -0.1254
 8510TIP3    H149725   6.816   4.813   3.938 -2.8899  2.0883 -0.2978
 8510TIP3    H249726   6.849   4.925   4.035  1.6693  0.1241  0.6561
 8511TIP3   OH249727   5.961   6.370   4.186 -0.1165  0.0936 -0.1078
 8511TIP3    H149728   6.048   6.364   4.226 -0.1959 -0.4429 -0.0003
 8511TIP3    H249729   5.955   6.460   4.154  1.1230 -0.3129 -1.5947
 8512TIP3   OH249730   6.187   1.842   4.584 -0.9444 -0.4731 -0.2405
 8512TIP3    H149731   6.182   1.920   4.639  1.0321  0.4592 -1.2928
 8512TIP3    H249732   6.257   1.860   4.522 -0.3645 -3.1387 -0.4834
 8513TIP3   OH249733   0.528   4.461   4.253 -0.1262 -0.9014 -0.3587
 8513TIP3    H149734   0.498   4.422   4.171  1.6844  0.1930 -1.6037
 8513TIP3    H249735   0.602   4.405   4.280 -0.5482 -1.1041  0.4267
 8514TIP3   OH249736   3.507   2.998   4.611 -0.0279 -0.3502  0.2188
 8514TIP3    H149737   3.426   3.002   4.560  0.0256 -0.2646  0.1391
 8514TIP3    H249738   3.575   3.025   4.549  0.2293 -1.6349 -0.0903
 8515TIP3   OH249739   1.588   5.020   2.911 -0.3257  0.2335  0.2102
 8515TIP3    H149740   1.604   5.114   2.913 -1.5493  0.5646 -2.0062
 8515TIP3    H249741   1.515   5.007   2.971  1.0298  0.3704  1.9467
 8516TIP3   OH249742   2.075   4.880   3.543  0.1413  0.0050 -0.0543
 8516TIP3    H149743   2.068   4.971   3.574 -1.8120  0.3636 -1.4031
 8516TIP3    H249744   2.142   4.841   3.599  0.4932  2.0697  1.0530
 8517TIP3   OH249745   2.430   2.094   4.392 -0.0547 -0.0756  0.3753
 8517TIP3    H149746   2.479   2.024   4.436  0.1789 -0.3984 -0.3983
 8517TIP3    H249747   2.409   2.059   4.306  0.7761  1.1100 -0.3302
 8518TIP3   OH249748   0.221   4.296   2.140 -0.3933  0.7544 -0.2856
 8518TIP3    H149749   0.241   4.362   2.074 -1.0057  1.6631  0.4117
 8518TIP3    H249750   0.305   4.273   2.178 -0.1560  0.9949 -0.6564
 8519TIP3   OH249751   0.538   2.027   3.327 -0.7840  0.6701 -0.2958
 8519TIP3    H149752   0.584   2.068   3.253 -0.5903  0.0031 -0.5512
 8519TIP3    H249753   0.456   1.995   3.289 -0.1588 -0.7425 -0.5071
 8520TIP3   OH249754   2.615   2.664   2.081 -0.3626  0.3684  0.0057
 8520TIP3    H149755   2.581   2.727   2.145  1.6448  1.0292  0.5021
 8520TIP3    H249756   2.678   2.611   2.131  0.6623  0.3845 -1.2328
 8521TIP3   OH249757   2.369   5.377   5.224  0.7554  0.0570 -0.7862
 8521TIP3    H149758   2.398   5.379   5.315  2.4741  0.4520 -1.3028
 8521TIP3    H249759   2.281   5.414   5.225 -0.1692 -1.9699  0.9916
 8522TIP3   OH249760   2.726   0.903   2.874  0.3473 -0.1208 -0.3951
 8522TIP3    H149761   2.755   0.986   2.835  1.3302 -0.4249 -0.3436
 8522TIP3    H249762   2.636   0.892   2.843 -1.3050  2.8940  2.7062
 8523TIP3   OH249763   1.732   3.682   4.034  0.1480  0.6680  0.1179
 8523TIP3    H149764   1.708   3.774   4.041 -0.5864  0.4921  0.0378
 8523TIP3    H249765   1.782   3.675   3.953  0.1236  0.9858  0.0774
 8524TIP3   OH249766   5.596   4.803   2.825  0.0880 -0.5452  0.4260
 8524TIP3    H149767   5.676   4.794   2.774  0.5711 -0.5351  1.1641
 8524TIP3    H249768   5.615   4.873   2.888 -1.0463  0.5645 -0.4058
 8525TIP3   OH249769   4.626   3.949   2.604 -0.1223  0.8032  0.3576
 8525TIP3    H149770   4.656   3.859   2.592 -2.1906  0.1327 -0.4606
 8525TIP3    H249771   4.701   4.003   2.582  1.7365 -0.6870  2.6229
 8526TIP3   OH249772   0.178   3.220   3.524 -0.6277  0.4540 -0.0957
 8526TIP3    H149773   0.091   3.182   3.509 -0.5682  0.3107 -0.0792
 8526TIP3    H249774   0.179   3.242   3.617 -0.5373  0.1804 -0.0321
 8527TIP3   OH249775   3.739   5.810   3.539 -0.2440 -0.3649  0.5725
 8527TIP3    H149776   3.662   5.772   3.497 -0.3714  0.6081 -0.1045
 8527TIP3    H249777   3.705   5.886   3.586  0.5989  1.6039 -1.8033
 8528TIP3   OH249778   4.541   5.190   4.950 -0.6302 -0.9481 -0.1260
 8528TIP3    H149779   4.455   5.172   4.913 -2.2683  1.3583  2.1909
 8528TIP3    H249780   4.524   5.248   5.024  2.9508 -0.3411  0.4243
 8529TIP3   OH249781   6.813   5.604   5.691 -0.0766 -0.0955  0.1903
 8529TIP3    H149782   6.880   5.577   5.628 -2.1604 -0.8048 -1.8160
 8529TIP3    H249783   6.787   5.522   5.734 -1.3089 -0.2378 -0.7679
 8530TIP3   OH249784   0.835   6.167   4.168  0.2327  0.1244 -0.6070
 8530TIP3    H149785   0.844   6.241   4.228  2.3205 -2.1292  2.1328
 8530TIP3    H249786   0.778   6.105   4.213 -1.0819 -0.2378 -2.6238
 8531TIP3   OH249787   3.094   6.039   1.747 -0.1943  0.1677 -0.0447
 8531TIP3    H149788   3.122   6.012   1.834 -2.2765 -2.0253  0.0550
 8531TIP3    H249789   3.133   5.974   1.688 -2.8776 -1.5255 -0.1274
 8532TIP3   OH249790   2.794   0.059   2.504 -0.2089  0.0988 -0.4315
 8532TIP3    H149791   2.824  -0.032   2.511  1.2402  0.5084 -0.8889
 8532TIP3    H249792   2.752   0.076   2.588 -0.6109 -1.0259 -0.3842
 8533TIP3   OH249793   6.735   6.717   4.573 -0.5303 -0.4285 -0.1224
 8533TIP3    H149794   6.674   6.731   4.500  0.0134 -0.7477 -0.6544
 8533TIP3    H249795   6.684   6.671   4.639 -0.9777 -0.3303 -0.3975
 8534TIP3   OH249796   5.651   4.494   5.360 -0.2183 -0.4011  0.3254
 8534TIP3    H149797   5.580   4.557   5.365  1.2912  1.2423  3.2738
 8534TIP3    H249798   5.711   4.531   5.295 -0.4834 -0.1028  0.2493
 8535TIP3   OH249799   2.162   0.755   3.293  0.0280 -0.5466  0.6117
 8535TIP3    H149800   2.255   0.736   3.293  0.2008  0.2585  0.3015
 8535TIP3    H249801   2.136   0.750   3.201 -0.4421 -1.7036  0.7910
 8536TIP3   OH249802   4.859   2.683   5.063 -0.1876  0.0905 -0.0823
 8536TIP3    H149803   4.783   2.731   5.032 -0.0130  0.3679 -0.0754
 8536TIP3    H249804   4.926   2.749   5.076 -0.7240  0.2557  2.4406
 8537TIP3   OH249805   5.522   4.452   4.279 -0.6601  0.7166 -0.0852
 8537TIP3    H149806   5.547   4.371   4.235  0.5955  1.4946 -0.8595
 8537TIP3    H249807   5.592   4.514   4.257 -1.2495  1.8181  1.0443
 8538TIP3   OH249808   2.431   6.588   3.607 -0.2294  0.1615  0.4344
 8538TIP3    H149809   2.407   6.596   3.515 -0.1403 -0.3758  0.3617
 8538TIP3    H249810   2.519   6.625   3.613 -0.7324  1.3666  0.5451
 8539TIP3   OH249811   2.935   3.474   5.641 -0.1484 -0.1183 -0.6007
 8539TIP3    H149812   2.946   3.467   5.546  0.6463 -0.9320 -0.4555
 8539TIP3    H249813   2.900   3.563   5.654  0.3859  0.2533 -1.5976
 8540TIP3   OH249814   1.698   5.063   2.478  0.6456 -0.2727  0.2000
 8540TIP3    H149815   1.686   5.008   2.556 -0.1212 -0.2534  0.1062
 8540TIP3    H249816   1.624   5.039   2.421 -0.5923  1.9198  0.7810
 8541TIP3   OH249817   6.734   5.247   4.998  0.1792  0.3319 -0.1883
 8541TIP3    H149818   6.726   5.287   4.911 -2.8573 -0.5729 -0.4571
 8541TIP3    H249819   6.699   5.313   5.058  3.7837  1.6405  0.7372
 8542TIP3   OH249820   3.170   6.230   4.028 -0.0657 -0.2653  0.2915
 8542TIP3    H149821   3.205   6.247   3.941  0.9883 -0.1432  0.7320
 8542TIP3    H249822   3.178   6.135   4.039 -0.3352 -0.2990  0.1971
 8543TIP3   OH249823   6.137   4.693   3.372  0.2739 -0.5755 -0.2912
 8543TIP3    H149824   6.152   4.630   3.301  0.5865 -3.7052  2.3164
 8543TIP3    H249825   6.094   4.767   3.329  0.7273 -2.0987 -3.7586
 8544TIP3   OH249826   3.311   2.852   2.423 -0.0782  0.0101  0.0438
 8544TIP3    H149827   3.308   2.947   2.414 -1.9501  0.0704  0.8394
 8544TIP3    H249828   3.220   2.824   2.414  0.4638 -1.7526 -0.4425
 8545TIP3   OH249829   3.756   3.622   3.888  0.4623 -0.0018 -0.3716
 8545TIP3    H149830   3.830   3.570   3.918  0.1543 -0.3344 -0.1811
 8545TIP3    H249831   3.746   3.599   3.796  0.2154 -0.4218 -0.2442
 8546TIP3   OH249832   1.510   6.274   1.950 -0.3203 -0.4269  0.4652
 8546TIP3    H149833   1.544   6.351   1.996  0.5865  0.0045 -0.8683
 8546TIP3    H249834   1.582   6.211   1.954  0.8918  0.5714 -2.5788
 8547TIP3   OH249835   2.850   5.041   2.673  0.2434 -0.4411  0.2623
 8547TIP3    H149836   2.833   4.960   2.624 -1.6761 -0.8304  1.4868
 8547TIP3    H249837   2.825   5.111   2.613 -0.6446 -0.8547  0.1329
 8548TIP3   OH249838   4.943   1.291   4.396  0.2479  0.0861 -0.5854
 8548TIP3    H149839   5.008   1.220   4.396 -1.0584 -1.1559 -0.5978
 8548TIP3    H249840   4.874   1.259   4.338 -2.5445 -0.7525  2.8651
 8549TIP3   OH249841   2.591   2.603   4.695 -0.0046 -0.1616 -0.4806
 8549TIP3    H149842   2.546   2.530   4.738  1.6263  0.0910  1.8473
 8549TIP3    H249843   2.577   2.678   4.753 -0.3084  1.0373 -2.0209
 8550TIP3   OH249844   4.371   0.682  10.724  0.7883  0.3303 -0.2292
 8550TIP3    H149845   4.375   0.649  10.814 -0.0957 -0.0727 -0.3290
 8550TIP3    H249846   4.323   0.764  10.731 -2.1242 -1.2070 -0.6947
 8551TIP3   OH249847   1.986   3.047   4.975 -0.1823  0.9442  0.1288
 8551TIP3    H149848   2.031   3.103   5.038 -0.8034  1.7496 -0.1202
 8551TIP3    H249849   1.894   3.076   4.978 -0.3913  0.3872 -0.4851
 8552TIP3   OH249850   2.792   4.687   2.801 -0.5019 -0.4130  0.0644
 8552TIP3    H149851   2.756   4.753   2.741  0.5446 -0.5545 -0.7578
 8552TIP3    H249852   2.742   4.608   2.781  1.1723 -1.0252 -2.1821
 8553TIP3   OH249853   5.043   5.724   4.068  0.0318  0.1463 -0.4832
 8553TIP3    H149854   5.125   5.747   4.025  0.3528 -1.4650 -0.7940
 8553TIP3    H249855   5.037   5.629   4.060 -2.1758  0.2742 -1.0296
 8554TIP3   OH249856   1.257   4.703   5.293  0.1704  0.2158 -0.6091
 8554TIP3    H149857   1.340   4.697   5.340 -0.5723  1.6134  0.9536
 8554TIP3    H249858   1.278   4.753   5.214  0.7027  1.2079  0.1351
 8555TIP3   OH249859   2.403   2.906   4.141 -0.2688  0.2221 -0.1594
 8555TIP3    H149860   2.450   2.959   4.076  2.0914 -1.0777  0.3649
 8555TIP3    H249861   2.385   2.823   4.096 -0.2922 -0.0047  0.2646
 8556TIP3   OH249862   0.042   1.780   4.561 -0.4180  0.0412  0.7460
 8556TIP3    H149863   0.117   1.833   4.536  0.3931 -1.7535 -0.9408
 8556TIP3    H249864   0.080   1.707   4.610 -0.9976 -0.9221 -0.1825
 8557TIP3   OH249865   3.833   6.195   3.499 -0.5162 -0.0984 -0.5830
 8557TIP3    H149866   3.788   6.152   3.572 -0.6436 -0.8045 -1.0661
 8557TIP3    H249867   3.906   6.136   3.479  0.7244  1.0863  0.2752
 8558TIP3   OH249868   5.662   1.197   2.857  0.4910 -0.1582  0.1933
 8558TIP3    H149869   5.741   1.242   2.826 -1.5126  2.2044 -1.9566
 8558TIP3    H249870   5.659   1.116   2.805  0.7071  0.5115 -0.9014
 8559TIP3   OH249871   5.549   6.052   3.592  0.0548  0.1979  0.0212
 8559TIP3    H149872   5.600   6.133   3.593 -0.8037  0.7360  0.5396
 8559TIP3    H249873   5.545   6.027   3.499  2.2480 -0.5032  0.0542
 8560TIP3   OH249874   2.902   4.745   4.017 -1.0361  0.3398 -0.0456
 8560TIP3    H149875   2.941   4.731   3.930  0.2024 -1.1201  0.6948
 8560TIP3    H249876   2.846   4.821   4.006 -0.7712  0.3010 -2.0909
 8561TIP3   OH249877   6.653   0.075   2.802 -0.0966 -0.2099  0.2157
 8561TIP3    H149878   6.597   0.055   2.877  0.5935 -3.3385  0.0214
 8561TIP3    H249879   6.741   0.048   2.830  0.1076 -1.8363 -1.7910
 8562TIP3   OH249880   5.405   2.121  10.065 -0.5518 -0.3731 -0.5202
 8562TIP3    H149881   5.332   2.108  10.005 -0.6957 -0.8043 -0.2576
 8562TIP3    H249882   5.476   2.155  10.010 -0.1971 -2.1722 -1.2193
 8563TIP3   OH249883   1.658   0.740   4.620 -0.0557  0.0893 -0.0515
 8563TIP3    H149884   1.737   0.788   4.597 -1.6021  2.0835 -1.5686
 8563TIP3    H249885   1.642   0.762   4.712  0.8429  0.0789  0.1162
 8564TIP3   OH249886   5.406   4.235   3.303 -0.0217  0.1503  0.5485
 8564TIP3    H149887   5.500   4.256   3.300 -0.1130  0.8187  1.9756
 8564TIP3    H249888   5.399   4.155   3.251  1.2519  0.3799 -0.0335
 8565TIP3   OH249889   3.297   4.986   2.530  0.0983 -0.2727 -1.0355
 8565TIP3    H149890   3.330   4.995   2.619 -0.6305  2.4044 -0.9464
 8565TIP3    H249891   3.366   5.023   2.475  0.5334 -1.8849 -1.6130
 8566TIP3   OH249892   2.195   3.991   5.418  0.2155  0.2145 -0.0661
 8566TIP3    H149893   2.149   3.987   5.334  0.7431  0.7873 -0.3895
 8566TIP3    H249894   2.150   4.058   5.468  1.9210  2.3122 -1.1715
 8567TIP3   OH249895   0.142   4.209   4.459  0.1867  0.4906 -0.0886
 8567TIP3    H149896   0.231   4.230   4.486  0.4430 -0.8634  0.2062
 8567TIP3    H249897   0.136   4.239   4.368  0.1137  2.8289  0.6220
 8568TIP3   OH249898   4.794   5.726   2.009  0.7347  0.2520 -0.0696
 8568TIP3    H149899   4.869   5.785   2.006  0.5595  0.6249  1.8930
 8568TIP3    H249900   4.830   5.640   1.984  1.1777  0.9465 -2.0018
 8569TIP3   OH249901   0.848   0.507   3.209  0.0740  0.1727 -0.3211
 8569TIP3    H149902   0.939   0.534   3.217  0.3551 -0.1037 -2.0807
 8569TIP3    H249903   0.852   0.412   3.205 -0.4503  0.0795  1.0742
 8570TIP3   OH249904   0.748   3.155   2.631  0.0935 -0.1606  0.8543
 8570TIP3    H149905   0.703   3.084   2.585 -1.0951  0.2406  1.3527
 8570TIP3    H249906   0.761   3.122   2.719 -0.8620  0.3772  1.2149
 8571TIP3   OH249907   2.227   0.397   2.262  0.1327  0.2692 -0.3621
 8571TIP3    H149908   2.241   0.451   2.340  1.8736 -0.6360  0.0047
 8571TIP3    H249909   2.237   0.457   2.189 -0.2723  0.8920  0.0864
 8572TIP3   OH249910   2.974   0.404   3.062 -0.2988  0.0994  0.1328
 8572TIP3    H149911   3.010   0.467   3.000  1.3513 -0.0614  0.8726
 8572TIP3    H249912   2.987   0.445   3.148  1.1870 -1.3516  0.6659
 8573TIP3   OH249913   2.598   2.950   3.241  0.3269 -0.5700  0.4761
 8573TIP3    H149914   2.543   2.959   3.318  0.7184 -0.0138  0.6993
 8573TIP3    H249915   2.564   3.016   3.180 -1.0138 -2.0675 -0.4765
 8574TIP3   OH249916   1.809   0.199   4.801  0.4402 -0.5654  0.1096
 8574TIP3    H149917   1.713   0.200   4.795  0.5311  0.3735 -1.6424
 8574TIP3    H249918   1.827   0.202   4.895 -1.2380 -1.5394  0.5052
 8575TIP3   OH249919   3.943   2.189   3.536  0.1828 -0.4196 -0.0620
 8575TIP3    H149920   3.980   2.244   3.604  0.9681 -0.6806 -0.2704
 8575TIP3    H249921   3.905   2.250   3.473 -1.3056 -0.1909  1.0079
 8576TIP3   OH249922   4.605   1.712   2.705  0.1551 -0.1523 -0.0543
 8576TIP3    H149923   4.562   1.739   2.786 -0.2939  0.3366 -0.4542
 8576TIP3    H249924   4.593   1.786   2.645  0.8498 -0.3332 -0.4368
 8577TIP3   OH249925   5.766   1.508   2.670  0.1411  0.3862  0.2459
 8577TIP3    H149926   5.722   1.579   2.717  0.0784  0.1236  0.5800
 8577TIP3    H249927   5.695   1.453   2.638  0.2534 -0.9699  2.2177
 8578TIP3   OH249928   1.062   6.598   3.625 -0.7370  0.1688  0.1143
 8578TIP3    H149929   0.980   6.647   3.628 -1.4801 -1.0953  0.8194
 8578TIP3    H249930   1.039   6.513   3.588  0.0125 -0.6433  1.4390
 8579TIP3   OH249931   4.360   2.062   2.772 -0.4377  0.2259 -0.2380
 8579TIP3    H149932   4.297   2.008   2.723  1.3796 -2.0603 -0.2827
 8579TIP3    H249933   4.340   2.045   2.864 -0.5283  0.2948 -0.2454
 8580TIP3   OH249934   1.395   4.950   3.511  0.3040 -0.2187 -0.4178
 8580TIP3    H149935   1.340   4.927   3.586  1.1700 -0.7634  0.0680
 8580TIP3    H249936   1.443   4.869   3.492  0.3339  0.0117 -1.3548
 8581TIP3   OH249937   4.516   2.561   4.344 -0.2098  0.3435 -0.2653
 8581TIP3    H149938   4.498   2.625   4.275  1.1173  1.8235  0.6636
 8581TIP3    H249939   4.479   2.479   4.312  0.3658  0.9603 -2.7208
 8582TIP3   OH249940   6.543   3.119   4.260  0.0531 -0.3399  0.2279
 8582TIP3    H149941   6.554   3.128   4.355 -0.5970 -2.5628  0.5738
 8582TIP3    H249942   6.450   3.102   4.248 -0.0297  0.8360 -0.9231
 8583TIP3   OH249943   1.933   4.122   2.677  0.5159  0.1423 -0.1665
 8583TIP3    H149944   2.024   4.143   2.696  0.6001  0.3886 -0.8191
 8583TIP3    H249945   1.883   4.189   2.723  0.7181  0.7108 -0.7494
 8584TIP3   OH249946   6.160   4.957   3.278 -0.2476 -0.1658 -0.1934
 8584TIP3    H149947   6.166   5.052   3.276  0.9260 -0.1602  1.3957
 8584TIP3    H249948   6.244   4.927   3.243 -0.6850 -0.6208 -0.8612
 8585TIP3   OH249949   6.359   2.054   4.835 -0.6222 -0.3748 -0.3381
 8585TIP3    H149950   6.419   2.128   4.826  0.5069 -1.1345  0.6174
 8585TIP3    H249951   6.278   2.083   4.793 -0.6257  1.8711  1.0592
 8586TIP3   OH249952   1.946   4.006   4.365 -0.2763 -0.1606 -0.5087
 8586TIP3    H149953   1.919   4.015   4.273 -0.9463 -2.0509 -0.5454
 8586TIP3    H249954   1.865   4.020   4.415 -0.3541 -1.1342 -0.3432
 8587TIP3   OH249955   6.138   0.476   5.099 -0.1319 -0.0856  0.7181
 8587TIP3    H149956   6.180   0.393   5.119  1.2528  0.4350  0.0638
 8587TIP3    H249957   6.044   0.458   5.107 -0.0954 -2.6298 -2.6391
 8588TIP3   OH249958   1.239   4.085   4.512  0.2000 -0.3552  0.3060
 8588TIP3    H149959   1.285   4.139   4.577 -1.1880  0.3712  0.7214
 8588TIP3    H249960   1.165   4.048   4.560  0.4284 -1.6514 -0.3024
 8589TIP3   OH249961   4.179   5.676   3.250  0.4413 -0.3173  0.0955
 8589TIP3    H149962   4.125   5.725   3.312  2.0494  0.3887  1.0162
 8589TIP3    H249963   4.188   5.589   3.291 -0.7455 -0.7609 -0.5389
 8590TIP3   OH249964   4.697   5.954   5.785  0.3777 -0.0029  0.0811
 8590TIP3    H149965   4.687   6.045   5.813  1.4889 -0.2937  1.5421
 8590TIP3    H249966   4.689   5.957   5.690 -1.6776  1.3174  0.2288
 8591TIP3   OH249967   5.346   3.331   2.684 -0.0486 -0.2032  0.3490
 8591TIP3    H149968   5.382   3.419   2.675  0.1113 -0.3677 -0.7359
 8591TIP3    H249969   5.422   3.274   2.694 -0.1497 -0.2414  0.9903
 8592TIP3   OH249970   4.816   0.464   4.955 -0.1701 -0.0568 -0.6084
 8592TIP3    H149971   4.795   0.372   4.940  1.2130 -0.3925 -0.6515
 8592TIP3    H249972   4.859   0.492   4.874 -1.4652  0.9292 -0.9806
 8593TIP3   OH249973   1.878   1.137   2.855  0.0142  0.1788 -0.0672
 8593TIP3    H149974   1.884   1.215   2.909 -1.1352  0.1795  0.0749
 8593TIP3    H249975   1.904   1.065   2.912  1.7756  0.5125 -0.3983
 8594TIP3   OH249976   1.925   0.799   4.236 -0.3385  0.2431  0.8330
 8594TIP3    H149977   1.867   0.848   4.294  0.2989  1.6272  0.3572
 8594TIP3    H249978   1.876   0.792   4.154  0.3665  2.0121  0.2072
 8595TIP3   OH249979   0.767   3.662   4.097  0.7583  0.5880 -0.3437
 8595TIP3    H149980   0.830   3.642   4.167 -0.0650  1.5923  0.7173
 8595TIP3    H249981   0.797   3.609   4.023 -0.7970 -3.9962  1.9269
 8596TIP3   OH249982   1.079   3.613   4.511  0.2029 -0.2402  0.4794
 8596TIP3    H149983   1.032   3.568   4.581 -0.0260 -1.6169 -0.5223
 8596TIP3    H249984   1.131   3.680   4.556 -1.5558  0.3317  1.7406
 8597TIP3   OH249985   1.791   0.776   2.041 -0.0967 -0.0742  0.0197
 8597TIP3    H149986   1.808   0.829   1.963 -0.9015 -0.1862 -0.2485
 8597TIP3    H249987   1.830   0.826   2.113 -0.6648  0.7907 -0.2577
 8598TIP3   OH249988   6.259   2.386   3.533 -0.3273 -0.3856 -0.1132
 8598TIP3    H149989   6.353   2.373   3.522 -0.4332 -0.9300 -0.4005
 8598TIP3    H249990   6.237   2.457   3.471  0.3518  1.6872  1.8780
 8599TIP3   OH249991   5.518   4.019   3.177  0.3518  0.2546  0.0780
 8599TIP3    H149992   5.601   3.975   3.160  0.1573  0.2250 -0.8562
 8599TIP3    H249993   5.481   4.036   3.090 -0.5690  0.3565  0.4702
 8600TIP3   OH249994   4.080   5.578   3.716  0.5525 -0.6615  0.2293
 8600TIP3    H149995   4.049   5.621   3.796 -0.9563 -1.1370 -0.0693
 8600TIP3    H249996   4.029   5.497   3.711  2.0830 -1.6520 -0.1593
 8601TIP3   OH249997   6.770   6.368   4.903  0.0789  0.1165 -0.0738
 8601TIP3    H149998   6.766   6.366   4.999 -2.0286  2.7554  0.0120
 8601TIP3    H249999   6.854   6.409   4.884 -0.1492  1.0260  0.7550
 8602TIP3   OH250000   6.741   2.535   3.472  0.1889  0.8204  0.4252
 8602TIP3    H150001   6.832   2.564   3.461  0.2121  1.7312  2.5071
 8602TIP3    H250002   6.691   2.592   3.414  1.1047 -1.4070 -2.7653
 8603TIP3   OH250003   2.440   1.339   4.039 -0.0089 -0.0965 -0.2192
 8603TIP3    H150004   2.516   1.394   4.023  0.7529 -1.0753 -0.0523
 8603TIP3    H250005   2.456   1.259   3.988 -1.3347  0.0301 -0.8730
 8604TIP3   OH250006   0.531   2.409   2.741 -0.6081  0.5250 -0.1887
 8604TIP3    H150007   0.506   2.484   2.687  1.8736  1.5140 -0.1264
 8604TIP3    H250008   0.616   2.382   2.706 -0.6402 -1.1755  0.9155
 8605TIP3   OH250009   1.367   4.761   2.406 -0.1473  0.0787  0.2104
 8605TIP3    H150010   1.375   4.793   2.496  0.2556 -0.8264  0.5138
 8605TIP3    H250011   1.284   4.713   2.405  0.3927 -0.8855  0.4290
 8606TIP3   OH250012   2.159   3.888   4.539  0.4883 -0.0755 -0.0183
 8606TIP3    H150013   2.171   3.951   4.610 -0.9737 -1.0937  1.1811
 8606TIP3    H250014   2.080   3.917   4.493 -1.2723 -1.8987  1.6313
 8607TIP3   OH250015   5.182   1.693   2.212  0.6310  0.0736  0.3808
 8607TIP3    H150016   5.129   1.757   2.259 -0.0584 -0.5863  0.5181
 8607TIP3    H250017   5.122   1.621   2.192  0.9805  0.1809 -1.2179
 8608TIP3   OH250018   1.059   2.207   3.712  0.3044 -0.0892  0.1271
 8608TIP3    H150019   1.107   2.126   3.730  1.8740  0.6029 -0.8052
 8608TIP3    H250020   0.970   2.188   3.743  0.1615 -2.7648 -1.5481
 8609TIP3   OH250021   5.641   1.284   3.918 -0.5926  0.3325  0.2090
 8609TIP3    H150022   5.677   1.232   3.845 -1.4236  0.3208 -0.2038
 8609TIP3    H250023   5.635   1.373   3.884 -1.2216  0.2810  0.1645
 8610TIP3   OH250024   4.735   4.138   2.823  0.0972  0.9045 -0.1948
 8610TIP3    H150025   4.714   4.231   2.819  0.5974  1.0363  0.1368
 8610TIP3    H250026   4.785   4.121   2.743 -0.1380  0.8770 -0.3389
 8611TIP3   OH250027   1.260   0.694   3.651  0.1179 -0.2833  0.5833
 8611TIP3    H150028   1.294   0.609   3.624 -0.2436 -0.0262 -0.7803
 8611TIP3    H250029   1.278   0.700   3.744 -0.5738 -2.2030  0.8750
 8612TIP3   OH250030   5.893   2.713   3.459  0.2093 -0.2917  0.3640
 8612TIP3    H150031   5.870   2.624   3.486 -1.1594  0.2572  1.1030
 8612TIP3    H250032   5.846   2.726   3.376  0.1606 -0.1456  0.4148
 8613TIP3   OH250033   4.916   4.322   5.359 -0.0632  0.5377  0.1129
 8613TIP3    H150034   4.886   4.412   5.343 -0.0608  0.3899 -0.7896
 8613TIP3    H250035   4.836   4.273   5.379 -0.0657  0.7387  0.5996
 8614TIP3   OH250036   0.742   5.240   2.234 -0.3129 -0.9183 -0.2936
 8614TIP3    H150037   0.743   5.167   2.296  0.0529  0.8778  1.9414
 8614TIP3    H250038   0.650   5.266   2.230 -0.1519 -0.1587  0.6326
 8615TIP3   OH250039   3.644   6.079   2.246 -0.0745  0.0601  0.5861
 8615TIP3    H150040   3.694   6.132   2.308 -1.2577  1.6120  0.2723
 8615TIP3    H250041   3.563   6.059   2.292  0.4876 -1.8468  0.8302
 8616TIP3   OH250042   6.803   5.560   4.212  0.5352  0.0217 -0.4661
 8616TIP3    H150043   6.712   5.556   4.243  0.7412 -0.5073  0.0916
 8616TIP3    H250044   6.838   5.639   4.253  1.0631 -1.1277  1.4248
 8617TIP3   OH250045   5.413   1.395   4.054 -0.0540 -0.0964 -0.2538
 8617TIP3    H150046   5.472   1.407   3.980 -2.1935 -0.7251 -2.1566
 8617TIP3    H250047   5.431   1.470   4.112  0.6504  1.2234 -2.1030
 8618TIP3   OH250048   5.836   2.621   4.472 -0.3539  0.2219 -0.3550
 8618TIP3    H150049   5.820   2.542   4.420  3.2099 -1.9955  1.5073
 8618TIP3    H250050   5.828   2.693   4.410 -0.7610 -1.8663 -2.8943
 8619TIP3   OH250051   3.508   2.781   2.228 -0.1564  0.1716 -0.1280
 8619TIP3    H150052   3.479   2.835   2.155 -1.1898  0.1539  0.2580
 8619TIP3    H250053   3.445   2.798   2.298  0.5543 -0.1554  0.6124
 8620TIP3   OH250054   4.031   6.854   2.191 -0.0636  0.2449 -0.3795
 8620TIP3    H150055   3.987   6.832   2.109 -0.4052  1.1052 -0.4355
 8620TIP3    H250056   4.040   6.770   2.237 -1.6709  0.0189 -0.4196
 8621TIP3   OH250057   5.476   2.879   3.989  0.2553 -0.0110 -0.2156
 8621TIP3    H150058   5.435   2.924   4.063  1.2228 -1.3245  1.1934
 8621TIP3    H250059   5.445   2.788   3.997  2.5054 -0.7935  0.2550
 8622TIP3   OH250060   1.464   1.315   3.900 -0.0251  0.1669  0.2595
 8622TIP3    H150061   1.393   1.316   3.965  1.8357  0.5786  2.4055
 8622TIP3    H250062   1.453   1.398   3.853 -1.7679 -0.4070 -0.4542
 8623TIP3   OH250063   1.925   3.650   3.825 -0.4302 -0.1731 -0.2748
 8623TIP3    H150064   1.988   3.669   3.895  0.1299 -0.1296 -0.7849
 8623TIP3    H250065   1.952   3.564   3.792 -2.0099 -1.2085  0.9921
 8624TIP3   OH250066   5.779   6.497   3.375 -0.5276 -0.2742  0.0820
 8624TIP3    H150067   5.831   6.423   3.345 -0.8931 -0.0381 -1.1911
 8624TIP3    H250068   5.766   6.551   3.297 -1.9098  0.1405  0.5708
 8625TIP3   OH250069   2.146   4.102   3.065  0.9688  0.2497  0.3807
 8625TIP3    H150070   2.225   4.122   3.014 -1.1705  2.0256 -2.5475
 8625TIP3    H250071   2.115   4.018   3.031  0.0361  0.9994 -0.7033
 8626TIP3   OH250072   4.914   5.138   2.260  0.0580 -0.0158  0.5448
 8626TIP3    H150073   4.838   5.169   2.210  1.7510  0.0214 -2.2239
 8626TIP3    H250074   4.946   5.215   2.306 -0.4127  0.4290  0.1383
 8627TIP3   OH250075   1.857   6.604   2.465 -0.0250  0.5591  0.1329
 8627TIP3    H150076   1.930   6.576   2.409  0.9134  0.0328  1.5710
 8627TIP3    H250077   1.795   6.531   2.461  0.4774  0.0989  0.5091
 8628TIP3   OH250078   6.702   1.599   2.740 -0.3906  0.4265  0.6640
 8628TIP3    H150079   6.647   1.599   2.662 -1.6657 -0.3684  1.5078
 8628TIP3    H250080   6.729   1.690   2.751  0.8000  0.3458 -1.3420
 8629TIP3   OH250081   0.756   6.299   3.933  0.5669 -0.4770 -0.8372
 8629TIP3    H150082   0.789   6.251   4.009  0.4239  1.8929  0.8419
 8629TIP3    H250083   0.661   6.290   3.939  0.5189  0.4022 -0.2390
 8630TIP3   OH250084   3.723   1.549   2.152  0.5086 -0.4944 -0.0062
 8630TIP3    H150085   3.742   1.641   2.140 -0.5780 -0.4967 -2.4189
 8630TIP3    H250086   3.636   1.537   2.113  0.1617 -2.3386  1.1847
 8631TIP3   OH250087   4.898   3.956   5.240  0.0374  0.4197  0.1429
 8631TIP3    H150088   4.918   4.045   5.210 -0.7418  0.2158 -1.0392
 8631TIP3    H250089   4.829   3.926   5.182 -1.9773  0.1740  2.4980
 8632TIP3   OH250090   1.634   1.019   2.580 -0.2655  0.7279 -0.3305
 8632TIP3    H150091   1.639   1.010   2.485 -2.1213 -1.4235 -0.2887
 8632TIP3    H250092   1.655   0.932   2.614 -2.8377  0.5415  1.0397
 8633TIP3   OH250093   4.015   5.788   3.468 -0.0525  0.8882  0.0303
 8633TIP3    H150094   4.046   5.734   3.540 -1.9753  0.2554  0.4640
 8633TIP3    H250095   3.926   5.814   3.494 -1.3072 -0.3733 -2.5626
 8634TIP3   OH250096   4.948   2.765   2.098  0.4017  0.4307 -0.0060
 8634TIP3    H150097   4.890   2.771   2.022 -0.1139 -1.4199  0.2001
 8634TIP3    H250098   4.894   2.791   2.172  0.4530  0.7325 -0.0732
 8635TIP3   OH250099   5.577   0.666   3.532  0.5649 -0.0584 -0.1899
 8635TIP3    H150100   5.653   0.633   3.581  1.8820 -1.0930 -2.7377
 8635TIP3    H250101   5.553   0.595   3.474 -2.2456  0.3687  0.2871
 8636TIP3   OH250102   1.944   0.407   3.093 -0.0020  0.3204 -0.5698
 8636TIP3    H150103   1.857   0.410   3.054  0.2341  0.2960 -1.1069
 8636TIP3    H250104   1.974   0.317   3.078 -0.4868 -0.1386  0.9650
 8637TIP3   OH250105   3.195   4.760   2.448 -0.2833 -0.2176  0.2170
 8637TIP3    H150106   3.104   4.743   2.471 -0.1944 -0.6203  0.2929
 8637TIP3    H250107   3.221   4.835   2.502 -0.8711  0.5554 -0.5666
 8638TIP3   OH250108   3.441   3.458   2.044  0.0429 -0.1675 -0.2273
 8638TIP3    H150109   3.498   3.459   1.967  0.8576  0.4857  0.3639
 8638TIP3    H250110   3.461   3.540   2.089  1.4822 -1.6480  2.0411
 8639TIP3   OH250111   2.182   6.461   3.435  0.4277 -0.0750  0.4219
 8639TIP3    H150112   2.264   6.436   3.392 -1.0287 -0.8696 -2.0839
 8639TIP3    H250113   2.183   6.556   3.435 -0.5735  0.1632 -3.9792
 8640TIP3   OH250114   1.119   6.583   4.520 -0.5386 -0.4516 -0.3083
 8640TIP3    H150115   1.198   6.602   4.470  1.1784 -0.9113  2.0512
 8640TIP3    H250116   1.130   6.493   4.550  0.2250  0.7443  3.5881
 8641TIP3   OH250117   6.443   4.081   4.370 -0.5053  0.0985  0.6801
 8641TIP3    H150118   6.379   4.132   4.418 -0.8680 -0.8464  1.2417
 8641TIP3    H250119   6.462   4.132   4.291 -0.6286  1.2140  1.3565
 8642TIP3   OH250120   1.795   1.078   5.024  0.4855 -0.1891  0.5320
 8642TIP3    H150121   1.859   1.007   5.018  0.7530 -0.2148  2.8128
 8642TIP3    H250122   1.716   1.037   5.058  0.4688  0.4918  1.3434
 8643TIP3   OH250123   2.335   5.262   3.688  0.1273 -0.0830  0.0982
 8643TIP3    H150124   2.360   5.340   3.737  0.7406  0.0912 -0.4755
 8643TIP3    H250125   2.316   5.294   3.600 -1.0202 -0.3815  0.2232
 8644TIP3   OH250126   5.328   1.126   4.840  0.5391  0.5594  0.2148
 8644TIP3    H150127   5.342   1.158   4.929  0.3291 -0.0129  0.4596
 8644TIP3    H250128   5.298   1.036   4.851  1.6079  0.0943 -0.4794
 8645TIP3   OH250129   4.646   1.387   4.110 -0.1874 -0.1496 -1.1081
 8645TIP3    H150130   4.733   1.369   4.076  0.2097  0.5867 -0.4848
 8645TIP3    H250131   4.598   1.424   4.036  0.4914  0.8811 -1.0405
 8646TIP3   OH250132   4.943   5.227   3.284  0.1215 -0.1425 -0.2453
 8646TIP3    H150133   5.025   5.276   3.273  0.4459 -0.3342  1.1540
 8646TIP3    H250134   4.945   5.197   3.375 -1.6555  0.1213 -0.0818
 8647TIP3   OH250135   1.383   3.622   4.725 -0.2665  0.3789 -0.3360
 8647TIP3    H150136   1.365   3.703   4.676  0.0237  0.5904 -0.0960
 8647TIP3    H250137   1.442   3.572   4.669 -0.3909  0.3626 -0.4539
 8648TIP3   OH250138   4.712   4.471   4.374 -0.0647  0.1651 -0.0808
 8648TIP3    H150139   4.798   4.502   4.404 -0.1655 -1.0189  1.6455
 8648TIP3    H250140   4.731   4.412   4.301  0.4512  1.1042 -0.7107
 8649TIP3   OH250141   3.542   2.134   1.856  0.6071  0.0195 -0.1136
 8649TIP3    H150142   3.523   2.188   1.779  1.8706  1.3541  0.4663
 8649TIP3    H250143   3.502   2.181   1.929 -0.1441 -0.9769  0.1454
 8650TIP3   OH250144   6.395   4.589   2.345 -0.1233 -0.0507 -0.2384
 8650TIP3    H150145   6.412   4.563   2.254 -0.3979  2.8090 -1.1986
 8650TIP3    H250146   6.301   4.574   2.356  0.1837 -1.9888  0.2112
 8651TIP3   OH250147   6.649   2.491   3.100  0.3851  0.3292  0.1851
 8651TIP3    H150148   6.602   2.508   3.018  1.0787 -0.6741 -0.4425
 8651TIP3    H250149   6.601   2.541   3.166 -1.8028 -0.9511 -0.3351
 8652TIP3   OH250150   1.360   4.850   5.039 -0.0851 -0.2824 -0.3185
 8652TIP3    H150151   1.375   4.921   4.977  0.1477  0.3870  0.4814
 8652TIP3    H250152   1.405   4.878   5.119 -1.6483 -0.4170  0.6476
 8653TIP3   OH250153   3.268   6.720   3.549  0.2830 -0.0233 -0.0803
 8653TIP3    H150154   3.289   6.694   3.459 -0.1287 -1.6464  0.2700
 8653TIP3    H250155   3.186   6.770   3.541 -0.7393 -1.6983 -0.4380
 8654TIP3   OH250156   5.648   6.652   3.593  0.5562 -0.1884 -0.2396
 8654TIP3    H150157   5.684   6.738   3.614  0.6213 -0.1932 -0.3296
 8654TIP3    H250158   5.657   6.645   3.498 -0.5543  0.2077 -0.3990
 8655TIP3   OH250159   2.207   0.638   2.418 -0.0345 -0.0022 -0.0207
 8655TIP3    H150160   2.232   0.648   2.510 -3.1324  0.5215  0.9058
 8655TIP3    H250161   2.268   0.693   2.370  0.2806  1.5217  1.9858
 8656TIP3   OH250162   5.535   4.424   4.564  0.4643 -0.5056 -0.5065
 8656TIP3    H150163   5.526   4.500   4.623  2.0665 -1.0834  0.5321
 8656TIP3    H250164   5.520   4.460   4.477 -0.0176  0.7672  0.0745
 8657TIP3   OH250165   5.255   0.246   5.683 -0.0268 -0.1154  0.1966
 8657TIP3    H150166   5.222   0.161   5.655  0.0875 -0.7186  1.7465
 8657TIP3    H250167   5.224   0.308   5.617 -2.2342 -1.0044  0.3209
 8658TIP3   OH250168   1.638   0.299   3.819 -0.3305  0.1309 -0.6227
 8658TIP3    H150169   1.616   0.251   3.739 -0.9391 -0.0134 -0.3766
 8658TIP3    H250170   1.638   0.233   3.888 -0.5552  0.3774 -0.3810
 8659TIP3   OH250171   3.953   3.111   4.565  0.4795  0.6348 -0.0483
 8659TIP3    H150172   3.921   3.140   4.650 -0.1893  1.4963 -0.5733
 8659TIP3    H250173   3.874   3.105   4.511  0.7671 -0.8968 -0.3447
 8660TIP3   OH250174   5.476   3.731   2.615  0.0423 -0.0114  0.3275
 8660TIP3    H150175   5.445   3.681   2.539  0.6823  0.9202 -0.5720
 8660TIP3    H250176   5.398   3.740   2.670 -0.7614  0.3780 -0.8265
 8661TIP3   OH250177   6.394   3.495   1.956 -0.9133  0.2686  0.4971
 8661TIP3    H150178   6.444   3.516   2.034 -0.8973 -0.5225  0.7123
 8661TIP3    H250179   6.453   3.442   1.902 -0.6399  1.4630 -0.4429
 8662TIP3   OH250180   3.299   2.459   3.898 -0.1326  0.4283 -0.2028
 8662TIP3    H150181   3.260   2.430   3.816  2.9927 -3.3234 -0.6555
 8662TIP3    H250182   3.247   2.415   3.966  0.3664 -0.7073 -0.5279
 8663TIP3   OH250183   5.760   2.243   4.306  0.0892  0.4410  0.5086
 8663TIP3    H150184   5.717   2.210   4.227  0.6172  0.0404  0.3776
 8663TIP3    H250185   5.832   2.297   4.273 -0.5554  1.4618  0.7237
 8664TIP3   OH250186   2.209   1.486   3.977  0.5439  0.0928  0.3371
 8664TIP3    H150187   2.155   1.545   4.029  1.2960  1.3592 -0.2477
 8664TIP3    H250188   2.276   1.455   4.038 -0.5536 -1.1500  0.9545
 8665TIP3   OH250189   6.090   0.193   2.469  0.5467 -0.3097  0.0111
 8665TIP3    H150190   6.042   0.272   2.494 -1.3346 -1.5562  0.5782
 8665TIP3    H250191   6.064   0.176   2.379  1.4425  0.0201 -0.3280
 8666TIP3   OH250192   0.602   5.894   1.754 -0.0715 -0.0001  0.3306
 8666TIP3    H150193   0.645   5.817   1.789 -0.5374 -0.4347 -0.0406
 8666TIP3    H250194   0.577   5.946   1.830 -0.2184 -0.4692  0.6027
 8667TIP3   OH250195   3.147   6.377   4.273  0.2771 -0.3737 -0.7016
 8667TIP3    H150196   3.158   6.328   4.192  1.3415 -0.9277 -0.2390
 8667TIP3    H250197   3.154   6.311   4.342  0.4578  0.2444 -0.1183
 8668TIP3   OH250198   1.010   4.561   3.578  0.0444 -0.4432  0.1791
 8668TIP3    H150199   1.038   4.475   3.611 -1.6525 -0.6144  1.3460
 8668TIP3    H250200   0.914   4.559   3.586 -0.0930  1.2374 -0.6219
 8669TIP3   OH250201   4.880   6.443   2.542  0.9409 -0.1956  0.0373
 8669TIP3    H150202   4.950   6.438   2.478 -1.8876  0.2021 -3.4229
 8669TIP3    H250203   4.844   6.532   2.532 -0.7789 -0.7550  0.7924
 8670TIP3   OH250204   6.669   4.163   3.666  0.5261  0.1992 -0.2592
 8670TIP3    H150205   6.679   4.139   3.758  1.1575  0.9020 -0.1353
 8670TIP3    H250206   6.597   4.226   3.665  0.1523 -0.2225 -0.3273
 8671TIP3   OH250207   0.166   5.130   3.447  0.4298  0.1677 -0.0420
 8671TIP3    H150208   0.200   5.043   3.464  1.0208  0.5156  0.6260
 8671TIP3    H250209   0.149   5.166   3.534 -1.3554  0.1301 -0.3480
 8672TIP3   OH250210   2.752   2.462   3.894 -0.2739 -0.3339  0.3790
 8672TIP3    H150211   2.716   2.392   3.840 -1.4106  0.3244  0.2529
 8672TIP3    H250212   2.748   2.540   3.838  2.2230 -0.3704  0.0249
 8673TIP3   OH250213   1.965   5.993   1.970 -0.2965 -0.5308  0.1655
 8673TIP3    H150214   1.990   5.962   2.057  2.6592  0.6857 -0.1223
 8673TIP3    H250215   1.998   5.926   1.910  0.4814  0.0983 -0.1318
 8674TIP3   OH250216   1.734   2.803   4.743  0.1774  0.3788  0.1752
 8674TIP3    H150217   1.754   2.808   4.837  1.3712  0.9907 -0.0847
 8674TIP3    H250218   1.704   2.891   4.720 -2.5684 -0.3933  0.4475
 8675TIP3   OH250219   2.323   5.931   3.961 -0.1935  0.2548 -0.0402
 8675TIP3    H150220   2.260   5.865   3.988 -0.2274  0.3638  0.1513
 8675TIP3    H250221   2.291   6.012   4.001 -0.7758  0.6095 -1.1865
 8676TIP3   OH250222   3.276   4.713   3.917  0.4265  0.1243 -0.0392
 8676TIP3    H150223   3.212   4.654   3.956  1.0701 -0.4184  0.2091
 8676TIP3    H250224   3.303   4.670   3.836  0.0282  0.6484 -0.4588
 8677TIP3   OH250225   5.321   0.885   2.774  0.6273  0.0508  0.1708
 8677TIP3    H150226   5.319   0.863   2.681 -1.7557 -1.7704  0.5525
 8677TIP3    H250227   5.287   0.807   2.818 -1.3148  1.9384  2.3059
 8678TIP3   OH250228   4.385   3.992   4.714  0.1555 -0.0135  0.3712
 8678TIP3    H150229   4.323   3.936   4.668 -0.5356 -0.4779  1.7868
 8678TIP3    H250230   4.374   3.969   4.806  1.3769  0.9641  0.7945
 8679TIP3   OH250231   0.781   3.907   2.524  0.4923 -0.0525 -0.1183
 8679TIP3    H150232   0.700   3.943   2.558  1.0928  2.0695 -0.7608
 8679TIP3    H250233   0.840   3.904   2.599  1.0249  2.2589 -0.3394
 8680TIP3   OH250234   5.611   4.710   2.327 -0.3356 -0.3993 -0.0708
 8680TIP3    H150235   5.603   4.760   2.246 -0.6371  2.3523  1.5449
 8680TIP3    H250236   5.705   4.689   2.333  0.3025  2.2155  0.3517
 8681TIP3   OH250237   0.754   5.323   3.069 -0.5329 -0.0956  0.3603
 8681TIP3    H150238   0.776   5.302   2.978 -0.7682 -0.8657  0.4749
 8681TIP3    H250239   0.807   5.262   3.121 -1.2521 -0.4467  0.7013
 8682TIP3   OH250240   6.652   5.710   2.445 -0.2995  0.6893  1.0001
 8682TIP3    H150241   6.644   5.741   2.535 -0.0439  0.1290  1.2244
 8682TIP3    H250242   6.713   5.636   2.450 -0.1197  0.7791  0.3352
 8683TIP3   OH250243   3.974   3.723   4.235  0.1232  0.3368 -0.4022
 8683TIP3    H150244   4.050   3.666   4.237 -0.5831 -0.5941  0.7751
 8683TIP3    H250245   3.952   3.730   4.141  1.2609  0.1220 -0.6966
 8684TIP3   OH250246   6.146   3.579   4.720 -0.4655  0.6562 -0.4315
 8684TIP3    H150247   6.078   3.515   4.743  0.0317 -0.2086 -1.2688
 8684TIP3    H250248   6.167   3.622   4.803 -3.3226  2.3074 -0.4134
 8685TIP3   OH250249   0.787   5.841   4.058  0.1596 -0.1248  0.1623
 8685TIP3    H150250   0.778   5.873   3.968  3.1295 -1.0893 -0.5616
 8685TIP3    H250251   0.869   5.879   4.089  1.1992 -2.8957  1.0553
 8686TIP3   OH250252   6.670   6.229   2.608  0.2440  0.0009 -0.4234
 8686TIP3    H150253   6.667   6.307   2.664  0.5216 -0.7512  0.6844
 8686TIP3    H250254   6.581   6.195   2.610  0.1141  0.3085 -0.9372
 8687TIP3   OH250255   3.519   4.543   2.171  0.4652 -0.1353 -0.0376
 8687TIP3    H150256   3.555   4.619   2.124 -1.0617 -0.0434 -1.1338
 8687TIP3    H250257   3.594   4.507   2.218  1.1546  2.3422  0.9576
 8688TIP3   OH250258   6.315   0.685   4.658 -0.3181 -0.2969  0.0798
 8688TIP3    H150259   6.291   0.651   4.572  0.7491  0.8012 -0.6780
 8688TIP3    H250260   6.374   0.620   4.695  0.0306 -0.2910 -0.4613
 8689TIP3   OH250261   0.285   0.984   2.816 -0.0713  1.0384  0.3471
 8689TIP3    H150262   0.280   1.076   2.790 -0.6146  0.7113 -0.7645
 8689TIP3    H250263   0.194   0.954   2.814  0.1028  0.4753  0.7139
 8690TIP3   OH250264   5.195   3.449   4.660 -0.0727 -0.4923 -0.2826
 8690TIP3    H150265   5.231   3.496   4.735  0.9143 -1.7958  0.1010
 8690TIP3    H250266   5.100   3.457   4.668  0.0655  1.5219 -0.3170
 8691TIP3   OH250267   4.482   1.968   3.769 -0.3801  0.4413 -0.6940
 8691TIP3    H150268   4.468   1.971   3.863  0.6273  1.9732 -0.5627
 8691TIP3    H250269   4.396   1.949   3.733 -1.2516  2.0217  0.4391
 8692TIP3   OH250270   6.170   4.020   4.469  0.2553  0.2818  0.1934
 8692TIP3    H150271   6.220   3.982   4.396 -0.0704  0.2444 -0.0148
 8692TIP3    H250272   6.126   3.945   4.508  0.5169  0.2874  0.4985
 8693TIP3   OH250273   6.486   4.820   4.013 -0.0504  0.0667  0.2195
 8693TIP3    H150274   6.404   4.856   3.979  0.5418 -0.5662 -2.0483
 8693TIP3    H250275   6.546   4.895   4.015 -0.3160  0.2725  0.6888
 8694TIP3   OH250276   0.179   4.919   3.110 -0.3834 -0.1196 -0.8203
 8694TIP3    H150277   0.208   4.995   3.059 -0.6287  0.2065 -0.4777
 8694TIP3    H250278   0.087   4.937   3.130 -0.2137 -0.1102 -0.0229
 8695TIP3   OH250279   6.000   1.051   4.779  0.5868 -0.0952  0.3591
 8695TIP3    H150280   6.038   1.138   4.770 -0.8189  0.4469 -0.5274
 8695TIP3    H250281   6.062   1.004   4.835  2.3996  0.8308 -0.8013
 8696TIP3   OH250282   4.838   0.724   3.022 -0.3565 -0.7380 -0.6571
 8696TIP3    H150283   4.871   0.736   3.111  2.6699  0.0802 -1.7672
 8696TIP3    H250284   4.772   0.793   3.012  0.1807 -0.0126  0.5581
 8697TIP3   OH250285   0.086   5.314   1.952 -0.3285  0.4861  1.0403
 8697TIP3    H150286   0.146   5.275   1.888 -1.4516 -0.0147  0.2615
 8697TIP3    H250287   0.103   5.266   2.033  0.8863  0.9098  1.0567
 8698TIP3   OH250288   6.762   0.673   2.652  0.4845 -0.2475  0.2162
 8698TIP3    H150289   6.749   0.674   2.557  0.9133 -0.3616  0.1513
 8698TIP3    H250290   6.743   0.583   2.678  0.7407 -0.3155  0.1774
 8699TIP3   OH250291   1.943   0.190   3.342 -0.2826 -0.3246 -0.2582
 8699TIP3    H150292   1.891   0.270   3.350 -0.0664 -0.2989  1.1194
 8699TIP3    H250293   1.988   0.200   3.259  0.1943  1.2749  0.1425
 8700TIP3   OH250294   3.174   3.206   3.468  0.0393  0.1650  1.0119
 8700TIP3    H150295   3.248   3.225   3.409 -0.0989  0.0833  0.8132
 8700TIP3    H250296   3.097   3.209   3.412 -0.1665  0.7461  1.3073
 8701TIP3   OH250297   4.783   0.228   2.239  0.5661  0.1808 -0.0947
 8701TIP3    H150298   4.745   0.203   2.323  1.9277  0.0594  0.5032
 8701TIP3    H250299   4.739   0.310   2.215  0.2386  0.2636  0.7798
 8702TIP3   OH250300   6.072   1.665   3.164  0.0328 -0.0694 -0.5920
 8702TIP3    H150301   6.077   1.691   3.072 -0.6544 -1.2502 -0.9886
 8702TIP3    H250302   5.979   1.649   3.180  0.2213 -0.5223  0.1071
 8703TIP3   OH250303   6.491   4.672   2.997  0.2280  0.2135 -0.0698
 8703TIP3    H150304   6.545   4.665   2.918  1.0634  2.3988  0.2361
 8703TIP3    H250305   6.407   4.632   2.973  0.7242  0.1406 -1.8026
 8704TIP3   OH250306   5.194   1.500   3.869 -0.3799 -0.8525 -0.3717
 8704TIP3    H150307   5.274   1.532   3.827 -0.8876 -0.5580 -1.1402
 8704TIP3    H250308   5.163   1.574   3.921 -0.2810 -0.8835 -0.2696
 8705TIP3   OH250309   0.210   3.476   5.489  0.0596  0.4758  0.1434
 8705TIP3    H150310   0.117   3.499   5.483 -0.2281 -0.5576  0.4252
 8705TIP3    H250311   0.255   3.560   5.494 -0.4074  1.4302 -5.1584
 8706TIP3   OH250312   4.518   1.040   3.900 -0.1653  0.0600  0.6400
 8706TIP3    H150313   4.478   1.096   3.967 -1.0186  0.2887 -0.0358
 8706TIP3    H250314   4.558   1.101   3.838 -3.4026  0.1822 -1.5710
 8707TIP3   OH250315   3.675   0.544   3.393  0.2484 -0.0877  0.5180
 8707TIP3    H150316   3.599   0.521   3.339  0.3646  1.6472 -0.4643
 8707TIP3    H250317   3.665   0.638   3.409  0.5820 -0.4269  3.0054
 8708TIP3   OH250318   3.627   4.006   2.210 -0.6481 -0.1879  0.7439
 8708TIP3    H150319   3.579   4.036   2.133 -1.0106 -0.5344  0.8315
 8708TIP3    H250320   3.692   4.075   2.226  0.5590 -0.8867 -0.8618
 8709TIP3   OH250321   0.975   0.387   3.848 -0.0121 -0.1034  0.5125
 8709TIP3    H150322   0.918   0.409   3.922  0.6609  0.8770  0.7477
 8709TIP3    H250323   1.062   0.415   3.875 -0.0617  2.2102 -1.4516
 8710TIP3   OH250324   3.232   0.113   1.905 -0.3142 -0.2519  0.1885
 8710TIP3    H150325   3.266   0.039   1.855 -0.5033 -0.9937  1.1411
 8710TIP3    H250326   3.267   0.190   1.859 -1.7248 -0.8269 -1.9950
 8711TIP3   OH250327   0.704   0.101   4.132  0.7508 -0.6434  0.4792
 8711TIP3    H150328   0.612   0.123   4.150  0.8288 -1.5406  2.0996
 8711TIP3    H250329   0.741   0.081   4.218  1.4842 -3.9657 -0.4809
 8712TIP3   OH250330   3.396   1.224   5.373 -0.4733  0.3668  0.6042
 8712TIP3    H150331   3.390   1.191   5.463 -0.9725  2.5448  1.4157
 8712TIP3    H250332   3.482   1.266   5.369  0.8002 -2.1286 -0.8763
 8713TIP3   OH250333   6.769   6.421   2.170  0.7717 -0.0424  0.4373
 8713TIP3    H150334   6.707   6.494   2.167  2.4118  1.4080  0.6093
 8713TIP3    H250335   6.713   6.343   2.172 -1.3249  1.1842  5.5151
 8714TIP3   OH250336   3.875   6.285   3.007 -0.7776  0.4472 -0.6498
 8714TIP3    H150337   3.896   6.220   2.940  2.8081  1.0546 -0.2928
 8714TIP3    H250338   3.832   6.235   3.077 -1.0227 -0.8863 -1.7097
 8715TIP3   OH250339   4.702   4.331   4.111  0.1352  0.3780  0.0261
 8715TIP3    H150340   4.617   4.287   4.108  0.1438  0.2419  1.3686
 8715TIP3    H250341   4.712   4.370   4.024 -1.8521  1.4440  0.2444
 8716TIP3   OH250342   1.438   3.471   3.866  0.0838 -0.4278 -0.9406
 8716TIP3    H150343   1.504   3.478   3.797 -0.6488 -0.0112 -1.6141
 8716TIP3    H250344   1.370   3.532   3.840 -0.1521 -0.1819  0.2273
 8717TIP3   OH250345   4.156   3.675   1.915 -0.1499  0.4853 -0.0731
 8717TIP3    H150346   4.199   3.745   1.965  0.3915  0.2885 -0.2462
 8717TIP3    H250347   4.110   3.720   1.845  1.2289  0.6130 -0.9389
 8718TIP3   OH250348   0.675   5.567   2.413 -0.4007 -0.3508 -0.3094
 8718TIP3    H150349   0.642   5.655   2.431  2.0082  0.6302 -0.3160
 8718TIP3    H250350   0.738   5.580   2.342  1.4204 -1.7405  0.9644
 8719TIP3   OH250351   6.767   2.576   2.610 -0.3051  1.0166  0.0259
 8719TIP3    H150352   6.827   2.566   2.684  0.1501  0.7911 -0.3761
 8719TIP3    H250353   6.729   2.489   2.599  2.5205 -0.0524 -2.4869
 8720TIP3   OH250354   6.387   4.473   4.095  0.0660  0.1333 -0.0469
 8720TIP3    H150355   6.310   4.514   4.056  0.5268  1.7230  0.6585
 8720TIP3    H250356   6.362   4.457   4.186  0.8225  1.4095  0.4029
 8721TIP3   OH250357   0.131   5.049   3.925 -0.4580  0.0669 -0.1908
 8721TIP3    H150358   0.194   4.978   3.939 -1.2001 -0.5992 -0.1448
 8721TIP3    H250359   0.185   5.125   3.902  0.4258 -0.2267  0.8349
 8722TIP3   OH250360   3.220   2.801   3.511 -0.6873 -0.5222 -0.0601
 8722TIP3    H150361   3.162   2.765   3.443 -0.0962  0.6107 -1.2028
 8722TIP3    H250362   3.288   2.735   3.521 -0.0270 -0.1234 -1.5929
 8723TIP3   OH250363   4.720   0.742   5.112  0.3619  0.1175  0.3692
 8723TIP3    H150364   4.658   0.771   5.178 -1.0287 -2.3951  0.2938
 8723TIP3    H250365   4.800   0.722   5.162 -0.2892 -0.6270  1.1578
 8724TIP3   OH250366   5.982   4.425   2.416  0.7005 -0.1525  0.2860
 8724TIP3    H150367   5.931   4.363   2.469  0.2715  1.0991  1.3960
 8724TIP3    H250368   6.070   4.422   2.453  0.4633  0.5309  0.9313
 8725TIP3   OH250369   0.741   1.167   2.213 -0.0935 -0.0620  0.2111
 8725TIP3    H150370   0.726   1.074   2.198  0.6610 -0.1982  0.2515
 8725TIP3    H250371   0.788   1.171   2.296 -0.1279  0.3573  0.2118
 8726TIP3   OH250372   2.275   1.001   2.920  0.2246 -0.0083 -0.3343
 8726TIP3    H150373   2.187   0.993   2.957  0.3706 -0.1974 -0.0251
 8726TIP3    H250374   2.302   0.911   2.904  0.8286 -0.0225  0.6821
 8727TIP3   OH250375   3.589   3.312   2.830 -0.2808  0.4687  0.3247
 8727TIP3    H150376   3.627   3.278   2.911  0.6168 -0.5124 -0.4807
 8727TIP3    H250377   3.555   3.235   2.785 -4.4472  1.3824  1.5214
 8728TIP3   OH250378   3.818   6.660   2.331 -0.1414  0.1823 -0.1886
 8728TIP3    H150379   3.911   6.639   2.343 -0.0655 -0.2783 -1.4173
 8728TIP3    H250380   3.805   6.656   2.237 -1.6044 -0.6048  0.0239
 8729TIP3   OH250381   4.608   5.164   3.279  0.0651  0.4240  0.4411
 8729TIP3    H150382   4.676   5.222   3.243  0.9519 -0.1911  1.0643
 8729TIP3    H250383   4.657   5.099   3.329 -0.9311 -0.6874  0.0173
 8730TIP3   OH250384   5.638   0.342   4.030  0.7172  0.1005 -0.0768
 8730TIP3    H150385   5.568   0.309   4.087  0.0846 -1.3840 -1.6413
 8730TIP3    H250386   5.647   0.434   4.055 -1.2197  0.1127  0.7490
 8731TIP3   OH250387   4.211   1.058   3.646  0.1683 -0.0491  0.1663
 8731TIP3    H150388   4.230   1.113   3.722 -0.4283  0.0746  0.2322
 8731TIP3    H250389   4.213   1.118   3.572  0.2907 -0.0822  0.1433
 8732TIP3   OH250390   4.765   2.663   4.419  0.0628 -0.7768 -0.3198
 8732TIP3    H150391   4.677   2.639   4.389  0.2009 -1.9083  0.1436
 8732TIP3    H250392   4.758   2.665   4.515  0.3696 -0.1267 -0.3023
 8733TIP3   OH250393   4.682   1.480   5.065  0.1027 -0.1739 -0.1194
 8733TIP3    H150394   4.594   1.486   5.029 -0.5231 -1.1165  1.1392
 8733TIP3    H250395   4.725   1.413   5.012 -0.6828 -1.2850  0.5994
 8734TIP3   OH250396   0.285   0.172   2.826 -0.2180 -0.0960  0.2896
 8734TIP3    H150397   0.249   0.099   2.776 -0.0128 -1.1813  1.6718
 8734TIP3    H250398   0.379   0.154   2.830 -0.0226  0.7771 -0.1878
 8735TIP3   OH250399   1.876   4.663   2.059 -0.4939 -0.1523  0.0070
 8735TIP3    H150400   1.880   4.570   2.037 -0.6184  0.0069 -0.6870
 8735TIP3    H250401   1.872   4.664   2.155  2.2510 -0.7939  0.2185
 8736TIP3   OH250402   4.513   6.518   3.701 -0.2105 -0.0365 -1.1220
 8736TIP3    H150403   4.551   6.458   3.766 -1.3652 -0.0370 -0.4242
 8736TIP3    H250404   4.443   6.467   3.659 -1.4904  0.9270 -0.2297
 8737TIP3   OH250405   4.495   4.854   4.023  0.0532 -0.0391 -0.2906
 8737TIP3    H150406   4.550   4.906   4.082  1.0920  1.1315 -2.1968
 8737TIP3    H250407   4.543   4.772   4.011 -0.3541 -0.4486  0.7401
 8738TIP3   OH250408   0.453   2.749   4.604  0.2028 -0.1833  0.2619
 8738TIP3    H150409   0.430   2.795   4.684  2.1020  0.3845  0.5287
 8738TIP3    H250410   0.500   2.814   4.551  0.6007 -1.0713 -0.5118
 8739TIP3   OH250411   3.564   4.539   3.872 -0.6811  0.0455  0.2886
 8739TIP3    H150412   3.563   4.595   3.949  0.8165 -1.7757  1.7529
 8739TIP3    H250413   3.476   4.500   3.869 -1.5951  2.0516 -0.5126
 8740TIP3   OH250414   6.726   1.473   4.629  0.1471  0.2138 -0.4347
 8740TIP3    H150415   6.810   1.512   4.653  0.9919  0.3433 -3.3355
 8740TIP3    H250416   6.736   1.380   4.650  0.6251  0.3798  0.1118
 8741TIP3   OH250417   0.271   3.091   3.014 -0.1333  0.4414  0.7959
 8741TIP3    H150418   0.326   3.121   3.086  1.3687 -1.2260  0.4256
 8741TIP3    H250419   0.315   3.012   2.982 -0.8346  1.0163 -1.8274
 8742TIP3   OH250420   6.517   0.469   1.893 -0.1334 -0.2426 -0.3678
 8742TIP3    H150421   6.426   0.455   1.917  0.1722 -0.1192  0.9175
 8742TIP3    H250422   6.551   0.382   1.874 -0.2728 -0.3946  0.0747
 8743TIP3   OH250423   5.539   2.168   2.425 -0.2849  0.0551 -0.1556
 8743TIP3    H150424   5.478   2.127   2.486 -0.9137  0.5766 -0.4286
 8743TIP3    H250425   5.484   2.212   2.360  0.3621 -0.4462 -1.0877
 8744TIP3   OH250426   6.733   4.600   3.131  0.3143  0.4015 -0.4327
 8744TIP3    H150427   6.698   4.558   3.209  0.9397 -0.7242 -0.7360
 8744TIP3    H250428   6.657   4.621   3.078  0.0254 -1.8453 -1.0093
 8745TIP3   OH250429   6.113   6.423   2.748 -0.1331 -0.6568 -0.1442
 8745TIP3    H150430   6.171   6.499   2.758 -0.8059 -0.1488 -0.0236
 8745TIP3    H250431   6.157   6.352   2.795  0.2209 -0.1814  0.2487
 8746TIP3   OH250432   5.328   1.194   4.280 -0.2157  0.0316  0.1498
 8746TIP3    H150433   5.338   1.273   4.226 -0.2705  0.0646  0.1882
 8746TIP3    H250434   5.233   1.188   4.296 -0.0872  0.6943  1.2514
 8747TIP3   OH250435   6.515   1.860   4.696 -0.5332 -0.6011 -0.3964
 8747TIP3    H150436   6.491   1.884   4.606  0.9094 -0.1482 -0.6976
 8747TIP3    H250437   6.489   1.936   4.748 -0.4947 -0.4607 -0.5799
 8748TIP3   OH250438   0.751   4.560   3.593  0.4704  0.0431 -0.2738
 8748TIP3    H150439   0.704   4.637   3.560 -1.5791 -0.0387  2.1599
 8748TIP3    H250440   0.689   4.517   3.651  2.2901 -2.3357  0.0836
 8749TIP3   OH250441   6.215   2.968   2.463 -0.7956  0.5630 -0.5871
 8749TIP3    H150442   6.213   3.036   2.530  0.3485  0.2459 -0.2008
 8749TIP3    H250443   6.306   2.940   2.460 -1.0367 -0.1912 -1.5174
 8750TIP3   OH250444   3.890   2.526   2.969  0.4489 -0.3139  0.0172
 8750TIP3    H150445   3.870   2.436   2.996  0.4406 -0.8937 -1.7987
 8750TIP3    H250446   3.816   2.578   3.003 -0.4492 -1.2760 -0.4063
 8751TIP3   OH250447   2.586   6.524   5.344 -0.0510  0.0915 -0.0051
 8751TIP3    H150448   2.496   6.512   5.316 -0.1097  1.2862 -0.4064
 8751TIP3    H250449   2.585   6.506   5.438 -0.5520 -0.6330 -0.1459
 8752TIP3   OH250450   3.822   5.836   2.937  0.4374  0.1108  0.1106
 8752TIP3    H150451   3.870   5.814   2.857  1.0533  1.2494  0.1449
 8752TIP3    H250452   3.792   5.752   2.971  0.4145 -0.4145 -1.1597
 8753TIP3   OH250453   6.013   2.708   4.671 -0.1088 -0.0425  0.2489
 8753TIP3    H150454   5.973   2.696   4.584  1.3595 -2.4122 -0.1917
 8753TIP3    H250455   6.105   2.724   4.653  0.2497 -0.7342  1.3553
 8754TIP3   OH250456   0.719   3.946   4.136  0.2181  0.5563  0.3984
 8754TIP3    H150457   0.703   3.852   4.143  0.7144  0.5506  1.5636
 8754TIP3    H250458   0.738   3.975   4.225  2.8055  1.2492 -0.2840
 8755TIP3   OH250459   3.888   3.987   3.350  0.7202  0.2358  0.3239
 8755TIP3    H150460   3.903   4.020   3.439 -0.4667  0.6020  0.4082
 8755TIP3    H250461   3.846   4.060   3.304 -0.4628 -0.5935  0.0353
 8756TIP3   OH250462   6.619   6.778   3.959  0.2501  0.0679  0.5241
 8756TIP3    H150463   6.562   6.734   4.022 -0.8851  1.9612  0.8990
 8756TIP3    H250464   6.657   6.707   3.907 -2.0612 -1.3005  0.5776
 8757TIP3   OH250465   2.953   1.072   2.944 -0.4783  0.0830  0.5405
 8757TIP3    H150466   2.931   1.088   2.852  0.2932 -1.6213  0.0107
 8757TIP3    H250467   3.042   1.107   2.954  0.3987 -1.8024 -0.0693
 8758TIP3   OH250468   5.985   3.837   3.363 -0.3985  0.1536 -0.6317
 8758TIP3    H150469   5.907   3.793   3.398 -1.7083  2.0853 -0.8959
 8758TIP3    H250470   6.057   3.804   3.416 -1.2919 -2.1213 -0.7296
 8759TIP3   OH250471   4.780   0.443   3.332 -0.2036 -0.1516  0.3613
 8759TIP3    H150472   4.793   0.478   3.420  0.2381 -1.7477  0.9638
 8759TIP3    H250473   4.867   0.416   3.303 -0.2422  0.8952 -0.8298
 8760TIP3   OH250474   5.111   3.684   4.817 -0.2751  0.3352  0.3000
 8760TIP3    H150475   5.115   3.680   4.913 -0.1821  0.1243  0.2879
 8760TIP3    H250476   5.022   3.656   4.796 -0.1742  0.0087  0.3058
 8761TIP3   OH250477   3.683   1.554   5.010 -0.8046  0.4956 -0.2411
 8761TIP3    H150478   3.745   1.606   5.061  0.4618 -2.4172  1.4089
 8761TIP3    H250479   3.731   1.528   4.932 -0.2284 -0.9007  0.5442
 8762TIP3   OH250480   0.937   0.835   3.061 -0.2759 -0.1643 -0.2829
 8762TIP3    H150481   0.988   0.766   3.104 -1.3067 -0.4756  0.4687
 8762TIP3    H250482   0.976   0.842   2.973  1.5203  0.1273  0.4948
 8763TIP3   OH250483   0.323   6.277   2.534 -0.1919  0.9876  0.4724
 8763TIP3    H150484   0.413   6.304   2.550 -0.7312  2.5449  1.0322
 8763TIP3    H250485   0.272   6.322   2.601 -1.3681 -0.0980  0.3462
 8764TIP3   OH250486   3.101   4.404  12.318  0.8726 -0.3958  0.2203
 8764TIP3    H150487   3.194   4.420  12.303  0.6479  1.4004  0.5283
 8764TIP3    H250488   3.056   4.455  12.251  0.0896 -0.2647  0.8315
 8765TIP3   OH250489   0.821   4.093   4.921 -0.2516  0.0078 -0.1589
 8765TIP3    H150490   0.777   4.035   4.983  2.2636 -0.6454  1.1298
 8765TIP3    H250491   0.840   4.038   4.845 -0.3219 -0.1025 -0.0969
 8766TIP3   OH250492   0.880   0.251   3.141  0.5283 -0.1279  0.2000
 8766TIP3    H150493   0.881   0.180   3.204  0.9773 -0.0587  0.2741
 8766TIP3    H250494   0.883   0.208   3.056  1.3454 -0.1846  0.2558
 8767TIP3   OH250495   6.484   4.209   2.670 -0.2936 -0.1968  0.3432
 8767TIP3    H150496   6.496   4.181   2.579  1.4074 -0.3398  0.5730
 8767TIP3    H250497   6.435   4.138   2.711 -0.0690 -0.6710 -0.1940
 8768TIP3   OH250498   6.548   2.011   2.360 -0.3355 -0.2832 -0.0415
 8768TIP3    H150499   6.478   2.025   2.296  0.5655  1.7004 -0.6859
 8768TIP3    H250500   6.614   2.076   2.337  1.4761 -1.7069  0.9263
 8769TIP3   OH250501   1.177   4.955   4.622 -0.6059 -0.1255  0.0466
 8769TIP3    H150502   1.268   4.925   4.631 -0.2075  0.9228 -0.3454
 8769TIP3    H250503   1.167   4.971   4.528 -0.3478  2.2534  0.3711
 8770TIP3   OH250504   5.966   2.908   3.207 -0.0068  0.3536  0.1762
 8770TIP3    H150505   5.978   2.987   3.154  1.3060  0.3952  0.5067
 8770TIP3    H250506   5.924   2.938   3.287  0.0892  0.6462  0.1158
 8771TIP3   OH250507   2.635   4.213   3.656  0.1001 -0.7008 -0.0430
 8771TIP3    H150508   2.577   4.170   3.593 -1.3387  1.0912 -0.0109
 8771TIP3    H250509   2.625   4.161   3.736 -0.7907 -0.9426 -0.2921
 8772TIP3   OH250510   3.751   5.553   2.973 -0.0657  0.1696  0.0538
 8772TIP3    H150511   3.699   5.496   3.029 -0.7996 -0.5435 -1.2866
 8772TIP3    H250512   3.836   5.558   3.015 -0.6273 -0.2190  1.2893
 8773TIP3   OH250513   1.434   1.006   2.769  0.0495  0.2565 -0.4762
 8773TIP3    H150514   1.500   1.006   2.699 -0.3024  2.2759 -0.8884
 8773TIP3    H250515   1.467   1.070   2.832 -0.6433 -0.0461  0.1939
 8774TIP3   OH250516   1.082   6.313   3.152 -0.4470 -0.6409  0.4377
 8774TIP3    H150517   1.022   6.360   3.094  0.8084 -0.3671 -0.6887
 8774TIP3    H250518   1.159   6.370   3.158  0.4534 -1.8141  0.3497
 8775TIP3   OH250519   5.571   1.321   2.597 -0.4496 -0.3866 -0.1318
 8775TIP3    H150520   5.559   1.261   2.670 -2.2951 -0.2312 -0.2715
 8775TIP3    H250521   5.484   1.330   2.559  0.1114  1.0788 -1.1342
 8776TIP3   OH250522   3.723   5.196  10.954  0.9627 -0.1847 -0.2972
 8776TIP3    H150523   3.779   5.198  10.876  0.5033  0.3228 -0.6191
 8776TIP3    H250524   3.645   5.148  10.926  0.6689  0.2571 -0.2369
 8777TIP3   OH250525   2.116   1.108   4.118 -0.5863 -0.4781 -0.2304
 8777TIP3    H150526   2.175   1.084   4.047  0.9149 -0.2712  0.8820
 8777TIP3    H250527   2.045   1.156   4.076  0.3616 -0.1992 -1.5604
 8778TIP3   OH250528   6.691   1.325   2.160  0.3891 -0.0302 -1.1669
 8778TIP3    H150529   6.606   1.312   2.202  1.2812 -0.1875  0.6673
 8778TIP3    H250530   6.698   1.420   2.150 -0.0863 -0.0289 -1.5531
 8779TIP3   OH250531   3.266   3.435   3.968 -0.0668  0.3868  0.1114
 8779TIP3    H150532   3.341   3.486   3.938 -0.2209  0.5800  0.0520
 8779TIP3    H250533   3.272   3.352   3.922  0.9286 -0.1668  1.1893
 8780TIP3   OH250534   6.611   3.304   1.900  0.2012 -0.4392  0.4867
 8780TIP3    H150535   6.648   3.245   1.966  0.0765 -0.1953  0.7786
 8780TIP3    H250536   6.673   3.301   1.827 -0.7561 -2.4248 -0.3311
 8781TIP3   OH250537   0.069   0.104   3.409 -0.4587 -0.1359  0.2930
 8781TIP3    H150538   0.126   0.028   3.407 -1.0320 -0.5719  0.2164
 8781TIP3    H250539   0.098   0.158   3.336  0.2866 -0.0289  0.6579
 8782TIP3   OH250540   6.843   0.961   4.787  0.4811 -0.6550 -0.3147
 8782TIP3    H150541   6.797   0.877   4.788  0.2919 -0.5736  1.6316
 8782TIP3    H250542   6.862   0.979   4.879  0.0729  1.6855 -0.6340
 8783TIP3   OH250543   4.754   1.402   2.721  0.0547  0.1839  0.2170
 8783TIP3    H150544   4.669   1.437   2.745 -0.7373 -0.1720 -1.8462
 8783TIP3    H250545   4.748   1.308   2.740 -0.4112 -0.0187 -0.8349
 8784TIP3   OH250546   5.958   2.851   2.938  0.0348 -0.0406  0.3854
 8784TIP3    H150547   5.914   2.933   2.960 -0.6074 -0.2964  0.0525
 8784TIP3    H250548   5.978   2.858   2.845  0.7333  0.0864  0.5381
 8785TIP3   OH250549   1.942   1.950   4.633 -0.5353 -0.1098  0.2654
 8785TIP3    H150550   2.023   1.976   4.588 -0.3750  0.8696  1.0741
 8785TIP3    H250551   1.971   1.890   4.702 -0.8555 -2.1531 -1.3091
 8786TIP3   OH250552   6.322   2.371   3.824 -0.1175  0.4066  0.0808
 8786TIP3    H150553   6.325   2.279   3.851 -0.8720  0.1253 -0.7547
 8786TIP3    H250554   6.310   2.368   3.730 -1.9346  1.3370  0.2298
 8787TIP3   OH250555   6.360   2.354   2.165  0.1625 -0.8087 -0.6728
 8787TIP3    H150556   6.411   2.349   2.246  0.7131 -0.8240 -1.0187
 8787TIP3    H250557   6.299   2.280   2.171 -1.1610  0.3375  0.6424
 8788TIP3   OH250558   1.076   6.377   2.855 -0.2028 -0.3724 -0.2609
 8788TIP3    H150559   1.125   6.306   2.812 -1.1590 -1.0052 -0.3519
 8788TIP3    H250560   1.137   6.450   2.858  0.7057 -1.1006 -0.4667
 8789TIP3   OH250561   0.732   3.351   4.765 -1.6983 -0.5062 -0.0482
 8789TIP3    H150562   0.639   3.372   4.776 -1.8915 -0.7319 -1.1346
 8789TIP3    H250563   0.734   3.256   4.751 -1.5917 -0.2088 -2.5040
 8790TIP3   OH250564   4.174   4.268   3.320  0.2294  0.1811  0.6198
 8790TIP3    H150565   4.096   4.271   3.374 -0.5981  0.2344 -0.5378
 8790TIP3    H250566   4.167   4.187   3.270 -0.1294  1.1245 -0.9487
 8791TIP3   OH250567   3.701   5.900   3.192 -0.1610  0.6034  0.3234
 8791TIP3    H150568   3.750   5.920   3.112  0.5244 -1.4493  0.1512
 8791TIP3    H250569   3.755   5.936   3.262  0.8110 -0.1749  0.0162
 8792TIP3   OH250570   5.533   5.797   3.863 -0.2503  0.5255 -0.3389
 8792TIP3    H150571   5.616   5.842   3.877 -1.3626  2.2564  1.1297
 8792TIP3    H250572   5.526   5.789   3.768  1.2297  1.0076 -0.5219
 8793TIP3   OH250573   6.591   2.044   3.922 -0.7020 -0.2650  0.0209
 8793TIP3    H150574   6.555   2.053   3.834  2.7451  0.4682 -1.5170
 8793TIP3    H250575   6.641   1.962   3.919  2.4043  1.4675 -0.0717
 8794TIP3   OH250576   3.265   3.416   2.665  0.2396  0.0949  0.2644
 8794TIP3    H150577   3.246   3.359   2.589  1.9001 -0.5666  0.2848
 8794TIP3    H250578   3.356   3.444   2.650  0.9884 -0.9272  2.5256
 8795TIP3   OH250579   1.372   3.609   2.542  0.0237 -0.3546  0.0958
 8795TIP3    H150580   1.330   3.544   2.597  0.6367 -1.1165 -0.3120
 8795TIP3    H250581   1.433   3.559   2.488  0.6825  0.5816 -0.0616
 8796TIP3   OH250582   2.178   5.282   4.542  0.4837  0.3546  0.4613
 8796TIP3    H150583   2.176   5.191   4.512  0.8342  0.5456 -0.1609
 8796TIP3    H250584   2.096   5.293   4.591  0.4585 -0.3019  0.5722
 8797TIP3   OH250585   0.460   3.312   4.863 -0.2780 -0.8164 -0.1751
 8797TIP3    H150586   0.406   3.235   4.881 -1.8794 -0.3363 -2.5061
 8797TIP3    H250587   0.433   3.376   4.929 -0.2469 -1.6245  0.6395
 8798TIP3   OH250588   1.713   4.852   1.901  0.0560 -0.1374 -0.9399
 8798TIP3    H150589   1.668   4.834   1.984  2.0945  2.2973  0.8531
 8798TIP3    H250590   1.799   4.811   1.911  0.8116  1.3210 -1.2722
 8799TIP3   OH250591   6.028   0.413   4.641 -0.4720  0.0898 -0.2906
 8799TIP3    H150592   5.989   0.417   4.554 -1.8320  0.5042  0.3042
 8799TIP3    H250593   5.997   0.330   4.677  1.5469 -0.9584 -0.8244
 8800TIP3   OH250594   5.040   5.543   3.596  0.4015  0.2087 -0.5527
 8800TIP3    H150595   5.094   5.604   3.545 -0.5539  0.2274 -1.5829
 8800TIP3    H250596   5.103   5.483   3.636  1.2581  0.9926 -0.6942
 8801TIP3   OH250597   2.689   3.116   1.999 -0.1344  0.6528  0.0930
 8801TIP3    H150598   2.719   3.094   1.911  0.1335  0.2385  0.2807
 8801TIP3    H250599   2.768   3.146   2.044 -0.4883  2.0198 -0.1489
 8802TIP3   OH250600   4.990   3.040   4.214 -0.2683  0.1936  0.2346
 8802TIP3    H150601   5.023   3.083   4.135 -0.8820  0.4336  0.1039
 8802TIP3    H250602   4.999   3.106   4.283  1.3340 -0.3871  0.6353
 8803TIP3   OH250603   4.165   3.280   3.976  0.0955 -0.6374  0.0675
 8803TIP3    H150604   4.207   3.365   3.993 -0.0101 -0.1776 -1.7656
 8803TIP3    H250605   4.212   3.246   3.899  0.1196 -2.2485  0.7613
 8804TIP3   OH250606   2.556   5.606   3.939  0.1561 -0.0488 -0.4361
 8804TIP3    H150607   2.590   5.693   3.920  0.1971  0.2937  1.0810
 8804TIP3    H250608   2.597   5.549   3.873  0.1081  1.0582 -1.4547
 8805TIP3   OH250609   3.413   3.315   3.276  0.0768 -0.1612  0.1122
 8805TIP3    H150610   3.471   3.243   3.253  0.1216 -1.0498  2.6827
 8805TIP3    H250611   3.361   3.330   3.197 -0.2516 -3.3221 -0.3933
 8806TIP3   OH250612   3.461   6.480   3.453  0.4053  0.5387 -0.5788
 8806TIP3    H150613   3.459   6.403   3.396 -1.5672 -0.2057  0.3976
 8806TIP3    H250614   3.386   6.532   3.425  0.3783  0.9656  0.2729
 8807TIP3   OH250615   3.229   4.685   5.576 -0.1773  0.5024 -0.3883
 8807TIP3    H150616   3.165   4.614   5.580 -0.2871  0.6205  0.0248
 8807TIP3    H250617   3.224   4.726   5.662  0.4294  0.5339 -0.3631
 8808TIP3   OH250618   1.549   6.546   2.040  0.7794 -0.2150  0.1259
 8808TIP3    H150619   1.638   6.580   2.051  0.3708  0.5900  0.9527
 8808TIP3    H250620   1.497   6.592   2.105 -0.7546  1.1438 -1.9344
 8809TIP3   OH250621   1.053   1.114   3.940 -0.3155 -0.0124  0.3379
 8809TIP3    H150622   1.097   1.050   3.996  0.4873  0.2737  0.0458
 8809TIP3    H250623   1.091   1.198   3.965 -3.1517  0.7954  2.5594
 8810TIP3   OH250624   5.023   4.553   4.197 -0.2627  0.6964  0.2742
 8810TIP3    H150625   4.985   4.467   4.180 -0.1095  0.5100  0.8548
 8810TIP3    H250626   5.059   4.546   4.285 -0.7332  1.5260  0.5406
 8811TIP3   OH250627   2.683   6.491   5.091 -0.2398  0.4544 -0.2363
 8811TIP3    H150628   2.646   6.448   5.168  0.1815  0.2254 -0.1573
 8811TIP3    H250629   2.749   6.551   5.126 -2.1088  2.6047 -0.1870
 8812TIP3   OH250630   3.151   3.662   4.330  0.0156  0.1775 -0.1685
 8812TIP3    H150631   3.125   3.654   4.422 -0.2666 -1.2027 -0.3468
 8812TIP3    H250632   3.237   3.621   4.325  0.3846  0.9606 -0.3805
 8813TIP3   OH250633   4.940   1.477   3.480 -0.0518 -0.5071  0.0191
 8813TIP3    H150634   4.954   1.408   3.545 -1.6120 -1.1425 -0.2730
 8813TIP3    H250635   4.846   1.494   3.483 -0.1077 -0.2800 -1.7820
 8814TIP3   OH250636   0.784   2.379   2.643  0.0927 -0.0720  0.0136
 8814TIP3    H150637   0.846   2.381   2.571  0.0827 -1.4448 -0.0520
 8814TIP3    H250638   0.836   2.354   2.720 -0.3183 -0.9841  0.0051
 8815TIP3   OH250639   0.646   4.916   4.344  0.5884 -0.0561 -0.4001
 8815TIP3    H150640   0.595   4.898   4.423 -0.3244  0.6608 -0.8062
 8815TIP3    H250641   0.607   4.860   4.277  2.1357 -1.5744 -0.0968
 8816TIP3   OH250642   1.903   2.437   4.454 -0.0149 -0.0529  0.0537
 8816TIP3    H150643   1.982   2.407   4.499 -0.3303 -2.8923 -1.0721
 8816TIP3    H250644   1.831   2.403   4.507 -0.4839  0.6793 -0.0875
 8817TIP3   OH250645   6.422   0.857   3.545  0.1300  0.0645 -0.0217
 8817TIP3    H150646   6.514   0.831   3.538  1.0462  2.6237  1.0533
 8817TIP3    H250647   6.420   0.945   3.506 -2.0501 -0.2596 -0.7280
 8818TIP3   OH250648   6.790   2.744   4.017  0.2478 -0.4616 -0.3226
 8818TIP3    H150649   6.857   2.726   3.951  0.2333  1.0879 -0.7999
 8818TIP3    H250650   6.803   2.836   4.040 -1.0631 -0.4155  0.3356
 8819TIP3   OH250651   1.033   4.232   3.406 -0.0381 -0.1955  0.1955
 8819TIP3    H150652   1.096   4.275   3.348 -0.0660  1.3786  1.2744
 8819TIP3    H250653   1.031   4.287   3.484 -0.6549 -1.7754  1.3478
 8820TIP3   OH250654   0.863   4.223   4.557 -0.1876  0.5030 -0.2502
 8820TIP3    H150655   0.846   4.253   4.468 -1.0978 -0.2851 -0.3511
 8820TIP3    H250656   0.820   4.288   4.612 -2.8183 -0.9118 -0.4819
 8821TIP3   OH250657   1.523   0.046   4.524  0.2483 -0.1004 -0.2495
 8821TIP3    H150658   1.598  -0.014   4.524  1.6871  1.6143  0.0811
 8821TIP3    H250659   1.527   0.088   4.610  0.8905  2.3324 -1.3799
 8822TIP3   OH250660   4.083   6.628   2.364 -0.3556 -0.7192 -0.1651
 8822TIP3    H150661   4.126   6.561   2.312 -0.5956 -1.3683  0.4543
 8822TIP3    H250662   4.118   6.616   2.453 -1.3933 -0.9090  0.2329
 8823TIP3   OH250663   5.869   3.577   3.235  0.6790 -0.1750 -0.1716
 8823TIP3    H150664   5.919   3.521   3.294  1.7908 -1.2168 -2.0094
 8823TIP3    H250665   5.925   3.587   3.158 -1.4489 -0.4350 -1.8548
 8824TIP3   OH250666   2.498   4.106   4.845 -0.3217 -0.0558 -0.2133
 8824TIP3    H150667   2.535   4.141   4.763  1.5921  0.3769  0.7720
 8824TIP3    H250668   2.486   4.013   4.828 -1.3944  0.2870 -1.4706
 8825TIP3   OH250669   6.327   1.787   4.950 -0.0691  0.0829 -0.5012
 8825TIP3    H150670   6.337   1.870   4.904 -0.8837  0.6986  0.3950
 8825TIP3    H250671   6.416   1.764   4.977  0.1608  0.6715 -0.7382
 8826TIP3   OH250672   0.993   5.901   5.070  0.2571 -0.0840 -0.0095
 8826TIP3    H150673   0.937   5.850   5.129  0.2364  1.1384  1.0789
 8826TIP3    H250674   1.082   5.877   5.096  0.2722 -1.0474 -0.8666
 8827TIP3   OH250675   1.819   1.750   2.389 -0.2353 -0.3843  0.0336
 8827TIP3    H150676   1.774   1.687   2.445 -1.6960  0.9952  0.4956
 8827TIP3    H250677   1.766   1.829   2.395  1.7973  1.0675 -0.1475
 8828TIP3   OH250678   1.455   4.760   1.855 -0.7208 -0.2359 -0.1324
 8828TIP3    H150679   1.520   4.788   1.790 -0.9870  1.1047  0.1452
 8828TIP3    H250680   1.507   4.727   1.928 -0.4075 -1.2496 -0.7941
 8829TIP3   OH250681   5.587   1.910   3.151  0.0018  0.0855 -0.1990
 8829TIP3    H150682   5.501   1.903   3.109 -0.5123 -0.9786  0.9469
 8829TIP3    H250683   5.584   1.994   3.198 -1.2714 -0.8403  1.5226
 8830TIP3   OH250684   4.320   2.874   3.889  0.0642  0.6099 -0.2654
 8830TIP3    H150685   4.324   2.789   3.846 -0.4706  0.4603 -0.0308
 8830TIP3    H250686   4.375   2.931   3.835 -2.6747  1.1295 -2.7944
 8831TIP3   OH250687   0.289   5.902   2.271 -0.3865  0.4446  0.1110
 8831TIP3    H150688   0.345   5.899   2.194 -0.2163  1.5191  0.1879
 8831TIP3    H250689   0.279   5.995   2.291 -2.1410  0.2884  0.1354
 8832TIP3   OH250690   3.885   3.370   4.218  0.4201  0.0139 -0.0057
 8832TIP3    H150691   3.916   3.446   4.267 -1.7517 -0.1447  1.7557
 8832TIP3    H250692   3.948   3.301   4.239  0.1896  0.2764  1.6591
 8833TIP3   OH250693   5.534   2.521   3.310  0.3296 -0.2700  0.1057
 8833TIP3    H150694   5.582   2.460   3.366 -2.3829 -1.6857  1.1057
 8833TIP3    H250695   5.474   2.465   3.261  0.1899  1.3125 -1.6299
 8834TIP3   OH250696   1.824   4.531   4.096 -0.2036 -0.0720 -0.4306
 8834TIP3    H150697   1.859   4.613   4.061  0.2340  0.2658  0.7677
 8834TIP3    H250698   1.807   4.477   4.018  1.4076  0.3785 -1.1382
 8835TIP3   OH250699   2.729   0.448   4.242  0.1148 -0.5665 -0.2746
 8835TIP3    H150700   2.637   0.456   4.215  0.3657  1.8706 -0.6058
 8835TIP3    H250701   2.776   0.511   4.187  1.7638 -0.6804  0.9269
 8836TIP3   OH250702   2.143   3.972   2.415 -0.2917 -0.1620  0.2178
 8836TIP3    H150703   2.056   3.978   2.376  0.4657  1.1407 -1.4043
 8836TIP3    H250704   2.203   3.998   2.345  1.1690  2.4454  2.2436
 8837TIP3   OH250705   1.876   0.915   5.290  0.5679 -0.3077 -0.4159
 8837TIP3    H150706   1.941   0.985   5.282  0.6486  0.0164  2.2679
 8837TIP3    H250707   1.903   0.850   5.226  4.0954 -0.5666  1.1288
 8838TIP3   OH250708   2.914   1.410   4.036 -0.5362  0.9209 -0.0772
 8838TIP3    H150709   2.917   1.443   4.126 -0.6754  0.8009 -0.0274
 8838TIP3    H250710   2.953   1.323   4.041  0.0147  1.1526 -0.2438
 8839TIP3   OH250711   3.888   0.954   3.934  0.9786 -0.1998 -0.1662
 8839TIP3    H150712   3.853   0.875   3.891  0.0554  0.1962 -0.1789
 8839TIP3    H250713   3.905   1.015   3.862  0.3226  0.1230 -0.0570
 8840TIP3   OH250714   1.274   3.924   2.448  0.8049 -0.0007 -0.3728
 8840TIP3    H150715   1.193   3.973   2.444  0.5616 -0.2882  0.7856
 8840TIP3    H250716   1.247   3.833   2.460  1.2632 -0.3893 -1.9394
 8841TIP3   OH250717   2.761   5.643   3.583  0.1811  0.1781 -0.6546
 8841TIP3    H150718   2.721   5.616   3.500 -0.7655 -2.6687  0.5936
 8841TIP3    H250719   2.828   5.577   3.599 -1.6846 -1.2249  2.2265
 8842TIP3   OH250720   4.738   3.564   3.360  0.8154  1.1190  0.1438
 8842TIP3    H150721   4.726   3.583   3.267 -1.8994 -0.0539  0.1606
 8842TIP3    H250722   4.710   3.473   3.369  2.8651  0.5810  1.8405
 8843TIP3   OH250723   3.487   4.676   5.651 -0.4386  0.0850 -0.2001
 8843TIP3    H150724   3.509   4.589   5.683  1.8720  0.2313 -1.2500
 8843TIP3    H250725   3.403   4.664   5.606 -0.7127 -1.3368  0.6243
 8844TIP3   OH250726   6.103   2.884   4.044 -0.2354  0.0399 -0.4073
 8844TIP3    H150727   6.158   2.813   4.009 -0.5220 -1.2220  1.5188
 8844TIP3    H250728   6.014   2.850   4.037 -0.3438 -0.0030  0.9215
 8845TIP3   OH250729   0.770   4.850   4.857 -1.0033  0.2112 -0.6719
 8845TIP3    H150730   0.769   4.870   4.951  0.0870  0.4498 -0.6942
 8845TIP3    H250731   0.848   4.795   4.845 -1.6433 -0.5832 -1.2963
 8846TIP3   OH250732   6.587   6.386   3.322  0.2106  0.0535 -0.2036
 8846TIP3    H150733   6.530   6.371   3.398 -0.4664 -1.3033 -0.9436
 8846TIP3    H250734   6.591   6.481   3.315  1.0262  0.2530  2.0563
 8847TIP3   OH250735   5.964   2.872   5.053  0.2825  0.0324  0.2371
 8847TIP3    H150736   5.899   2.937   5.079 -0.5738 -0.4956 -0.5245
 8847TIP3    H250737   6.001   2.907   4.972  0.3921 -0.0396  0.2556
 8848TIP3   OH250738   1.402   2.205   4.431 -0.0342 -0.0557  0.1712
 8848TIP3    H150739   1.462   2.137   4.464  1.9578  1.8820  0.7892
 8848TIP3    H250740   1.342   2.221   4.503  0.6034  0.0600  0.6857
 8849TIP3   OH250741   6.007   2.379   2.423 -0.2090 -0.1968 -0.5036
 8849TIP3    H150742   6.003   2.470   2.395 -2.6542 -0.3136 -0.7006
 8849TIP3    H250743   5.923   2.342   2.398  0.1719 -2.1320  0.8478
 8850TIP3   OH250744   6.481   1.302   4.259 -0.1055  0.8993  0.4750
 8850TIP3    H150745   6.425   1.239   4.213 -0.7199  0.9213  1.1619
 8850TIP3    H250746   6.437   1.314   4.344  0.1634  2.0269  0.4604
 8851TIP3   OH250747   4.108   1.419   3.156  0.3327  0.1702  0.0947
 8851TIP3    H150748   4.183   1.475   3.176  0.7888  0.4969 -2.1748
 8851TIP3    H250749   4.035   1.458   3.204  0.8065  2.2639 -0.7565
 8852TIP3   OH250750   2.647   6.828   4.221  0.3171 -0.2770  0.0605
 8852TIP3    H150751   2.726   6.870   4.256 -0.1538  1.8598 -1.2162
 8852TIP3    H250752   2.676   6.785   4.141  0.5348 -1.2441  0.6428
 8853TIP3   OH250753   6.767   2.596   2.312 -0.2259 -0.0387 -0.0021
 8853TIP3    H150754   6.826   2.524   2.330 -0.2962 -0.1314 -0.1421
 8853TIP3    H250755   6.730   2.619   2.398 -0.0142 -0.0024  0.0807
 8854TIP3   OH250756   3.951   3.564   2.515 -0.0570  0.0695 -0.0255
 8854TIP3    H150757   3.915   3.476   2.524 -0.3527  0.2547  0.6737
 8854TIP3    H250758   3.908   3.600   2.437  0.9647 -0.8267 -1.0262
 8855TIP3   OH250759   0.196   2.079   3.337  0.2261  0.0949 -0.4540
 8855TIP3    H150760   0.193   2.173   3.319 -0.4765  0.4236  1.2355
 8855TIP3    H250761   0.213   2.039   3.252  2.6680  1.8597 -0.8952
 8856TIP3   OH250762   5.620   6.124   3.007 -0.2324  0.3434 -0.6751
 8856TIP3    H150763   5.567   6.054   2.968 -0.3879 -1.1042  1.9436
 8856TIP3    H250764   5.556   6.187   3.039 -0.4134 -0.7975  1.3684
 8857TIP3   OH250765   2.711   3.887   2.820  0.7941 -0.1446  0.5578
 8857TIP3    H150766   2.780   3.847   2.767 -0.8442 -0.8143 -1.1841
 8857TIP3    H250767   2.678   3.959   2.765 -1.6453 -1.5026  0.1007
 8858TIP3   OH250768   4.635   0.644   3.545  0.2347 -0.0312 -0.1615
 8858TIP3    H150769   4.591   0.726   3.566 -1.6443 -1.3103  1.2081
 8858TIP3    H250770   4.567   0.588   3.508  1.9144 -0.3772 -3.0130
 8859TIP3   OH250771   4.015   6.116   5.071 -0.4567  0.9244  0.4926
 8859TIP3    H150772   4.100   6.119   5.115 -0.6946 -1.2984  1.2273
 8859TIP3    H250773   3.989   6.208   5.063  3.0553  1.9213 -1.9006
 8860TIP3   OH250774   6.210   1.091   5.093  0.3271  0.1693 -0.1327
 8860TIP3    H150775   6.203   1.063   5.184  1.5149 -0.6344 -0.2684
 8860TIP3    H250776   6.165   1.023   5.044  1.1097 -0.2672 -0.2646
 8861TIP3   OH250777   0.587   0.700   4.295  0.6321  0.0305 -0.2205
 8861TIP3    H150778   0.581   0.609   4.264  0.9733  0.0841 -0.4447
 8861TIP3    H250779   0.499   0.735   4.281  0.6061 -0.1453 -0.5128
 8862TIP3   OH250780   0.730   2.640   3.174 -0.2422  0.5835 -0.1012
 8862TIP3    H150781   0.650   2.613   3.220  1.1245  0.5175  2.3972
 8862TIP3    H250782   0.726   2.592   3.091 -1.3380 -1.8479  1.2316
 8863TIP3   OH250783   0.137   0.729   3.603  0.4240  0.0407 -0.0813
 8863TIP3    H150784   0.170   0.736   3.513  0.5489  0.1542 -0.0276
 8863TIP3    H250785   0.135   0.635   3.621 -0.5753 -0.0371 -0.5623
 8864TIP3   OH250786   4.192   6.076   3.077 -0.6548  0.3458 -0.1839
 8864TIP3    H150787   4.273   6.106   3.034 -0.0885 -0.0437  0.5740
 8864TIP3    H250788   4.157   6.009   3.020 -0.4916  0.5829 -0.5659
 8865TIP3   OH250789   0.704   1.697   2.552 -0.2959 -0.1298  0.4184
 8865TIP3    H150790   0.748   1.756   2.490 -0.8295  1.0357  1.1217
 8865TIP3    H250791   0.748   1.713   2.635 -1.6627  0.6524  1.0187
 8866TIP3   OH250792   2.650   2.241   2.726  0.1512 -0.3755  0.5444
 8866TIP3    H150793   2.604   2.241   2.642  1.4052 -1.5542 -0.1918
 8866TIP3    H250794   2.645   2.331   2.757 -0.3636  0.0643 -0.7843
 8867TIP3   OH250795   3.446   6.449   1.884 -0.6286  0.1156 -0.4014
 8867TIP3    H150796   3.360   6.419   1.913 -0.9979  1.2802 -0.2674
 8867TIP3    H250797   3.480   6.376   1.831 -1.8706 -0.1697 -0.8266
 8868TIP3   OH250798   3.447   1.464   2.380 -0.4965 -0.3347  0.2049
 8868TIP3    H150799   3.530   1.432   2.416 -0.6424 -0.2363  0.6279
 8868TIP3    H250800   3.432   1.410   2.302  0.0878 -0.1924 -0.0112
 8869TIP3   OH250801   3.087   0.487   3.990 -0.2081 -0.2138  0.3055
 8869TIP3    H150802   3.115   0.395   3.991  0.9550  0.0454  3.5345
 8869TIP3    H250803   3.168   0.536   3.978 -0.4091  0.3970  1.3219
 8870TIP3   OH250804   2.011   2.716   4.259 -0.1563 -0.1725 -0.3882
 8870TIP3    H150805   1.999   2.689   4.350 -0.4634 -2.0017 -0.9420
 8870TIP3    H250806   2.072   2.790   4.264  0.0223 -0.3958  1.2656
 8871TIP3   OH250807   1.834   6.704   3.701 -0.0649 -0.5631  0.0487
 8871TIP3    H150808   1.909   6.747   3.743 -0.6033 -0.4362  0.9147
 8871TIP3    H250809   1.869   6.621   3.669  0.5354 -0.3409  0.1140
 8872TIP3   OH250810   4.524   2.487   3.021 -0.3800 -0.6054  0.3176
 8872TIP3    H150811   4.515   2.396   3.049 -0.2515 -0.7355 -0.0484
 8872TIP3    H250812   4.617   2.507   3.031 -0.5091 -0.3135  0.9840
 8873TIP3   OH250813   2.023   5.822   3.984 -0.3318  0.4234  0.0455
 8873TIP3    H150814   1.962   5.894   4.005 -0.1506  0.4809  0.3862
 8873TIP3    H250815   2.012   5.809   3.890 -2.0593 -0.6475  0.3456
 8874TIP3   OH250816   4.317   2.807   3.296  0.1671 -0.2203 -0.0474
 8874TIP3    H150817   4.378   2.778   3.363  1.4008  1.8455 -0.1841
 8874TIP3    H250818   4.330   2.745   3.224  0.5624 -1.0525  0.7175
 8875TIP3   OH250819   2.887   3.395   4.911 -0.1886  0.4455 -0.1690
 8875TIP3    H150820   2.938   3.436   4.981 -0.7383  1.8936 -0.5903
 8875TIP3    H250821   2.796   3.408   4.938 -0.4162  1.1704 -1.2118
 8876TIP3   OH250822   0.286   1.072   5.173  0.4339 -0.5859  0.0629
 8876TIP3    H150823   0.355   1.037   5.229  0.1254 -1.1067  0.1205
 8876TIP3    H250824   0.327   1.081   5.087  0.6663 -0.5745  0.1744
 8877TIP3   OH250825   4.359   5.723   3.052  0.1032 -0.0375  0.1308
 8877TIP3    H150826   4.286   5.726   3.114  0.3141  0.8558  0.3522
 8877TIP3    H250827   4.437   5.725   3.107  0.3325 -2.2583 -0.0445
 8878TIP3   OH250828   6.092   1.074   3.096  0.3709 -0.0614 -0.2169
 8878TIP3    H150829   6.044   1.122   3.164  1.0797 -0.8691  0.8824
 8878TIP3    H250830   6.025   1.045   3.035 -0.3634  0.1486  0.4715
 8879TIP3   OH250831   0.372   5.385   3.426  0.6733  0.0440  0.3813
 8879TIP3    H150832   0.310   5.312   3.426  0.5688  0.1268 -0.1588
 8879TIP3    H250833   0.436   5.363   3.359  1.8690 -0.5538  1.6636
 8880TIP3   OH250834   5.179   3.341   3.017 -0.6418 -0.2617  0.3943
 8880TIP3    H150835   5.116   3.378   2.956 -0.7523  0.3377  0.8680
 8880TIP3    H250836   5.131   3.332   3.099 -0.1230  0.1586  0.7480
 8881TIP3   OH250837   4.836   1.254   4.972  0.4003 -0.1308 -0.2097
 8881TIP3    H150838   4.854   1.230   5.064  0.6855 -2.0829 -0.7280
 8881TIP3    H250839   4.856   1.175   4.923 -1.9806  0.1267 -1.7429
 8882TIP3   OH250840   6.411   3.531   4.979  0.0602  0.3682  0.4634
 8882TIP3    H150841   6.440   3.582   5.055 -2.2905  2.5925  0.0034
 8882TIP3    H250842   6.323   3.502   5.002 -0.5794  0.8436 -1.2513
 8883TIP3   OH250843   1.721   0.276   2.183 -0.3436 -0.2985 -0.2341
 8883TIP3    H150844   1.678   0.191   2.196 -1.6744  0.1660 -1.3861
 8883TIP3    H250845   1.814   0.257   2.191 -0.5727 -2.0204 -1.1786
 8884TIP3   OH250846   1.409   0.076   1.949  0.2644 -0.5167  0.0589
 8884TIP3    H150847   1.451   0.022   1.882  1.2068  0.2948 -0.0316
 8884TIP3    H250848   1.472   0.080   2.020 -0.2839 -0.4914  0.5477
 8885TIP3   OH250849   3.243   3.975   4.724 -0.0856 -0.0594  0.1364
 8885TIP3    H150850   3.262   4.009   4.811 -0.4991 -0.6925  0.4820
 8885TIP3    H250851   3.148   3.961   4.724 -0.1573  0.3892 -0.5812
 8886TIP3   OH250852   3.241   5.096   3.294  0.6752 -0.2335 -0.5516
 8886TIP3    H150853   3.287   5.161   3.347 -1.8756  0.4518  0.9990
 8886TIP3    H250854   3.224   5.023   3.354 -3.7785  1.2580  0.3342
 8887TIP3   OH250855   3.728   2.635   1.841 -0.0085 -0.1259 -0.2393
 8887TIP3    H150856   3.774   2.551   1.834  0.6183  0.2815 -1.3372
 8887TIP3    H250857   3.793   2.699   1.814 -0.4619  0.7307  0.6545
 8888TIP3   OH250858   0.941   2.652   4.076 -0.3399  0.2290  0.0353
 8888TIP3    H150859   0.982   2.608   4.002  1.4794  1.7656  0.0580
 8888TIP3    H250860   1.007   2.650   4.145 -1.5774 -0.1646  1.2622
 8889TIP3   OH250861   2.728   3.395   2.182 -0.0086  0.5068  0.2873
 8889TIP3    H150862   2.740   3.490   2.174  0.3873  0.3392 -1.5304
 8889TIP3    H250863   2.636   3.381   2.164  0.1037  0.4739 -0.2654
 8890TIP3   OH250864   1.229   1.283   3.706 -0.2127 -0.6198 -0.2065
 8890TIP3    H150865   1.152   1.276   3.651  0.9400 -1.2175 -1.8155
 8890TIP3    H250866   1.195   1.295   3.795 -2.1653 -2.5024 -0.6262
 8891TIP3   OH250867   2.824   2.179   2.380  0.4218 -0.2534  0.0178
 8891TIP3    H150868   2.906   2.215   2.415 -0.7369 -0.1918  2.9634
 8891TIP3    H250869   2.829   2.085   2.399  0.2795 -0.4364 -0.8299
 8892TIP3   OH250870   3.043   3.263   4.297 -0.7231  0.0230 -0.1807
 8892TIP3    H150871   3.138   3.264   4.306 -0.5866 -4.3106  1.6535
 8892TIP3    H250872   3.027   3.203   4.223 -1.9322 -1.0041  0.8642
 8893TIP3   OH250873   5.556   4.297   3.023 -0.8206 -0.0014 -0.1885
 8893TIP3    H150874   5.577   4.359   2.953  0.0446 -0.3436 -0.2412
 8893TIP3    H250875   5.466   4.318   3.046 -0.5620  1.2624 -0.2256
 8894TIP3   OH250876   3.607   6.648   3.149  0.2947  0.0954 -0.3665
 8894TIP3    H150877   3.607   6.554   3.131  0.1467  0.2269 -1.0678
 8894TIP3    H250878   3.638   6.655   3.239 -1.3090 -0.7327  0.2890
 8895TIP3   OH250879   3.271   1.901   3.305  0.1302  0.6516  0.8213
 8895TIP3    H150880   3.219   1.937   3.377 -2.4018  0.0259 -0.6113
 8895TIP3    H250881   3.311   1.979   3.264 -1.4732  1.4062  0.6237
 8896TIP3   OH250882   4.058   1.173   2.389 -0.2876 -0.6368  0.5186
 8896TIP3    H150883   3.977   1.201   2.348  0.6889  1.1761 -0.2820
 8896TIP3    H250884   4.099   1.114   2.325  0.0777  0.2500 -0.0803
 8897TIP3   OH250885   2.996   3.088   2.837  0.5975  0.1942 -0.2595
 8897TIP3    H150886   3.006   3.154   2.905 -1.5755 -0.4507  0.7547
 8897TIP3    H250887   2.957   3.135   2.763  1.3175  0.5253 -0.4385
 8898TIP3   OH250888   0.792   1.920   5.230  0.0587  0.0630  0.1531
 8898TIP3    H150889   0.757   1.983   5.168 -0.2149 -1.1542 -0.9631
 8898TIP3    H250890   0.858   1.969   5.280 -0.1984  1.2333 -0.6382
 8899TIP3   OH250891   3.193   3.181   3.898  0.2497 -0.0111  0.3866
 8899TIP3    H150892   3.099   3.184   3.914 -0.1184 -0.2096 -1.4712
 8899TIP3    H250893   3.202   3.131   3.817  1.9951 -0.3219  0.7316
 8900TIP3   OH250894   5.963   6.607   4.055 -0.3023  0.0257 -0.0443
 8900TIP3    H150895   5.961   6.695   4.093  3.1964  0.7011 -1.0709
 8900TIP3    H250896   5.934   6.619   3.965 -0.1552  0.0925 -0.0839
 8901TIP3   OH250897   3.156   3.387   2.072  0.2158  0.1441  0.3629
 8901TIP3    H150898   3.243   3.364   2.037 -0.1664  0.0618 -0.5566
 8901TIP3    H250899   3.136   3.472   2.032  0.4294  0.8141  1.6122
 8902TIP3   OH250900   0.600   0.449   2.464  0.3896  0.0795  0.8038
 8902TIP3    H150901   0.599   0.466   2.558  0.1259  3.1801  0.3391
 8902TIP3    H250902   0.693   0.439   2.443  0.5679  0.7148  1.2303
 8903TIP3   OH250903   0.407   6.696   2.604  0.3557 -0.3170  0.5453
 8903TIP3    H150904   0.394   6.714   2.697 -0.8002 -0.6121  0.4590
 8903TIP3    H250905   0.380   6.776   2.560 -0.4480 -0.6627  0.3981
 8904TIP3   OH250906   4.046   4.287   3.665 -0.1280  0.1059  0.1578
 8904TIP3    H150907   4.116   4.353   3.665  0.3118 -0.3311 -1.1630
 8904TIP3    H250908   3.988   4.313   3.737  1.2189  0.6592  1.0863
 8905TIP3   OH250909   2.274   3.157   3.596 -0.4073  0.1867 -0.3810
 8905TIP3    H150910   2.354   3.112   3.569  0.3214  1.6229 -0.7286
 8905TIP3    H250911   2.268   3.233   3.538 -0.7975  1.3297  1.0815
 8906TIP3   OH250912   1.297   0.580   2.661 -0.0004 -0.2530 -0.6928
 8906TIP3    H150913   1.355   0.591   2.586  1.2214 -1.0758  0.1032
 8906TIP3    H250914   1.279   0.486   2.663  1.2723 -0.5051  0.9447
 8907TIP3   OH250915   4.131   0.768   4.349 -0.0644  0.1208 -0.0493
 8907TIP3    H150916   4.042   0.794   4.327 -0.2306  1.7958  2.2623
 8907TIP3    H250917   4.121   0.709   4.424  0.7563 -0.1005 -0.0985
 8908TIP3   OH250918   4.626   1.583   2.324  0.4609  0.0752  0.2085
 8908TIP3    H150919   4.556   1.644   2.302  0.3262 -0.5403 -1.1013
 8908TIP3    H250920   4.581   1.500   2.344  0.7594 -0.0676  0.2975
 8909TIP3   OH250921   0.124   2.037   3.053  0.0959  0.2077 -0.3943
 8909TIP3    H150922   0.149   2.057   2.963  0.5111 -0.1685 -0.3662
 8909TIP3    H250923   0.031   2.060   3.058  0.7797  3.3693 -0.0165
 8910TIP3   OH250924   6.361   2.866   3.743 -0.5205  0.9600  0.3758
 8910TIP3    H150925   6.285   2.875   3.685  0.1164 -0.0178 -0.6336
 8910TIP3    H250926   6.435   2.853   3.684 -0.0927 -1.8849  1.4034
 8911TIP3   OH250927   5.052   3.017   3.894  0.6947  0.0821 -0.2066
 8911TIP3    H150928   4.987   3.032   3.825 -0.3317 -0.1207  0.7029
 8911TIP3    H250929   5.035   2.928   3.925 -0.1031  0.8147  1.5810
 8912TIP3   OH250930   2.112   0.210   1.887 -0.2008 -0.6445 -0.0789
 8912TIP3    H150931   2.075   0.272   1.824 -0.1582  0.8438  1.3008
 8912TIP3    H250932   2.205   0.232   1.891  0.0660 -1.6360 -0.4737
 8913TIP3   OH250933   1.264   5.852   3.458 -0.6098  0.6525 -0.0486
 8913TIP3    H150934   1.256   5.757   3.451 -1.3540  0.7667 -0.9116
 8913TIP3    H250935   1.317   5.877   3.382 -2.2143  1.1232 -1.0654
 8914TIP3   OH250936   1.088   5.975   4.377 -0.0045  0.0216  0.1971
 8914TIP3    H150937   1.163   5.999   4.322  0.0435 -0.6403 -0.0297
 8914TIP3    H250938   1.115   5.895   4.421 -0.4086  0.0287  0.4589
 8915TIP3   OH250939   1.334   0.900   2.323 -0.3478 -0.6853  0.1712
 8915TIP3    H150940   1.393   0.859   2.260 -0.8387 -0.2770 -0.5798
 8915TIP3    H250941   1.391   0.937   2.389  0.1185 -2.4527  0.8206
 8916TIP3   OH250942   1.465   6.373   3.440 -1.2711  0.5467 -0.0164
 8916TIP3    H150943   1.431   6.284   3.437  0.4288 -0.1602  0.1113
 8916TIP3    H250944   1.446   6.404   3.528 -2.5767  0.6351 -0.3085
 8917TIP3   OH250945   1.877   6.458   2.194  0.0387 -0.2269  0.0429
 8917TIP3    H150946   1.916   6.403   2.262 -1.5876 -0.7463  0.6063
 8917TIP3    H250947   1.887   6.407   2.113 -1.1122 -1.2343  0.4960
 8918TIP3   OH250948   3.391   6.225   3.344  0.4600  0.1860  0.1779
 8918TIP3    H150949   3.455   6.162   3.377  1.4742  1.5859  0.9791
 8918TIP3    H250950   3.306   6.191   3.373  1.2199  1.0657  3.9577
 8919TIP3   OH250951   4.975   2.650   3.697  0.3206 -0.4298 -0.6166
 8919TIP3    H150952   5.040   2.580   3.688  1.2353  0.4259 -0.7713
 8919TIP3    H250953   4.960   2.682   3.608 -0.6191 -0.8797 -0.6325
 8920TIP3   OH250954   6.131   1.704   2.574 -0.3257 -0.3597  0.2961
 8920TIP3    H150955   6.036   1.708   2.563 -0.4604  1.5296  1.6013
 8920TIP3    H250956   6.144   1.698   2.668  0.8505  0.7662  0.2317
 8921TIP3   OH250957   0.849   4.034   2.120 -0.2756  0.2112  0.1187
 8921TIP3    H150958   0.865   4.126   2.139 -0.9584  0.5268 -0.7785
 8921TIP3    H250959   0.852   4.028   2.025 -0.2189 -0.6978  0.1659
 8922TIP3   OH250960   0.386   3.102   2.201  0.3801  0.1953  0.1616
 8922TIP3    H150961   0.437   3.026   2.226 -0.2916 -0.4239 -0.3135
 8922TIP3    H250962   0.295   3.070   2.198  0.3191  0.4227 -2.2626
 8923TIP3   OH250963   3.422   5.333   5.400  0.4457  0.3709 -0.4965
 8923TIP3    H150964   3.347   5.288   5.361 -0.2117  0.1763  0.9400
 8923TIP3    H250965   3.424   5.303   5.491  2.2835  0.3638 -0.5041
 8924TIP3   OH250966   2.142   4.502   4.152  0.0697 -0.4354  0.2964
 8924TIP3    H150967   2.078   4.559   4.110  2.6734  1.1087 -1.9411
 8924TIP3    H250968   2.187   4.558   4.215  0.0680 -1.1380  0.9391
 8925TIP3   OH250969   4.929   1.659   2.863 -0.4022 -0.7275 -0.3608
 8925TIP3    H150970   4.962   1.679   2.775 -0.2485  0.9177  0.0386
 8925TIP3    H250971   4.897   1.569   2.857  0.0071 -0.7899 -1.9808
 8926TIP3   OH250972   6.725   0.372   2.670 -0.5037 -0.3367  0.3246
 8926TIP3    H150973   6.784   0.340   2.602  0.6933  0.9528  0.7170
 8926TIP3    H250974   6.644   0.323   2.655  0.1346 -1.0187 -1.2092
 8927TIP3   OH250975   3.188   1.219   3.010  0.3940 -0.2792  0.0548
 8927TIP3    H150976   3.273   1.231   2.966  0.0355  1.7514 -0.2018
 8927TIP3    H250977   3.208   1.228   3.103  0.1894  3.0429 -0.0871
 8928TIP3   OH250978   4.915   1.289   3.698 -0.2513  0.0569  0.3409
 8928TIP3    H150979   4.947   1.200   3.687 -1.3401 -0.1745 -1.4518
 8928TIP3    H250980   4.826   1.279   3.732 -0.4238  0.4556  0.0172
 8929TIP3   OH250981   5.748   4.788   4.860 -0.0813  0.3506 -0.4897
 8929TIP3    H150982   5.842   4.784   4.877 -0.2059 -1.9925  0.0675
 8929TIP3    H250983   5.710   4.824   4.941  0.1028 -2.1400  0.8102
 8930TIP3   OH250984   0.579   0.345   3.088  0.3753  0.2298  0.0804
 8930TIP3    H150985   0.654   0.392   3.051  0.5159  0.3793  0.5439
 8930TIP3    H250986   0.503   0.397   3.061  0.2314 -0.9948 -2.0916
 8931TIP3   OH250987   3.553   3.757   2.141 -0.1387  0.2677 -0.0355
 8931TIP3    H150988   3.531   3.849   2.149 -1.7031 -0.1113  0.2248
 8931TIP3    H250989   3.621   3.754   2.073 -0.4499  1.5387 -0.4161
 8932TIP3   OH250990   6.514   6.456   4.295  1.1090  0.7197  0.2453
 8932TIP3    H150991   6.463   6.381   4.324  1.6555  0.1134 -0.3143
 8932TIP3    H250992   6.492   6.466   4.202  0.0229  2.0998  0.6212
 8933TIP3   OH250993   3.288   1.667   3.556 -0.1521 -0.4692 -0.2595
 8933TIP3    H150994   3.353   1.691   3.490 -2.5764  0.1715 -2.6019
 8933TIP3    H250995   3.293   1.571   3.561  1.1358 -0.4120 -0.1682
 8934TIP3   OH250996   1.459   5.299   2.699  0.1727 -0.2751  0.3666
 8934TIP3    H150997   1.529   5.308   2.764  0.6591 -3.0259  0.3218
 8934TIP3    H250998   1.384   5.344   2.738  1.1126  0.1480  1.7569
 8935TIP3   OH250999   0.986   1.711   2.259  0.2255 -0.1882 -0.4047
 8935TIP3    H151000   0.945   1.625   2.267 -0.3697  0.2348  1.6586
 8935TIP3    H251001   0.948   1.763   2.331  3.2863  0.6790  0.7227
 8936TIP3   OH251002   6.805   5.286   2.963 -0.4010 -0.3520  0.3033
 8936TIP3    H151003   6.755   5.354   2.917 -2.0082  0.2626  2.7788
 8936TIP3    H251004   6.826   5.223   2.895 -0.6081  1.6142 -1.7206
 8937TIP3   OH251005   5.889   5.313   4.545 -0.1213 -0.2837 -0.1027
 8937TIP3    H151006   5.968   5.263   4.562 -0.0186 -0.3191 -0.6839
 8937TIP3    H251007   5.918   5.389   4.495 -0.3342  0.1546  0.4189
 8938TIP3   OH251008   4.134   2.118   4.199 -0.6739 -0.1523 -0.2580
 8938TIP3    H151009   4.150   2.069   4.280 -0.9287 -1.1262 -0.7729
 8938TIP3    H251010   4.204   2.088   4.139 -1.6989 -1.0478 -1.0626
 8939TIP3   OH251011   4.530   1.129   2.368  0.2604  0.2075 -0.1146
 8939TIP3    H151012   4.473   1.061   2.332 -1.5122  1.4433  0.2309
 8939TIP3    H251013   4.580   1.084   2.436 -2.0435 -0.4470  1.2564
 8940TIP3   OH251014   3.612   5.629   4.146 -0.0844 -0.1015 -0.4751
 8940TIP3    H151015   3.610   5.537   4.174  0.1333 -0.1513 -0.6233
 8940TIP3    H251016   3.569   5.629   4.060  0.0499 -0.0907 -0.5438
 8941TIP3   OH251017   0.039   1.358   4.160  0.1705  0.7096 -0.0074
 8941TIP3    H151018  -0.009   1.431   4.201 -0.7252  0.3833 -0.4375
 8941TIP3    H251019   0.028   1.371   4.066  3.4470  2.2617 -0.2854
 8942TIP3   OH251020   2.327   0.681   3.696 -0.2438 -0.0334  0.2639
 8942TIP3    H151021   2.345   0.603   3.643  1.1942 -0.0423  0.7403
 8942TIP3    H251022   2.234   0.673   3.719 -0.8494 -0.1836 -1.9768
 8943TIP3   OH251023   5.669   0.376   2.561 -0.0299  0.0846  0.5042
 8943TIP3    H151024   5.684   0.289   2.522  1.1585  0.1696  0.7540
 8943TIP3    H251025   5.735   0.384   2.629  0.0037  1.2840  0.3468
 8944TIP3   OH251026   3.589   5.729   4.528  0.4348 -0.1205  0.5379
 8944TIP3    H151027   3.655   5.660   4.540 -0.5387 -0.9761  1.2725
 8944TIP3    H251028   3.639   5.809   4.517  1.6361 -1.0613 -1.3051
 8945TIP3   OH251029   2.637   6.238   2.204  0.0296  0.6875  0.6997
 8945TIP3    H151030   2.555   6.191   2.217 -0.6949  1.8692  0.5740
 8945TIP3    H251031   2.684   6.188   2.137 -0.6698  0.1039  0.6382
 8946TIP3   OH251032   1.946   3.567   3.315 -0.1271  0.0037 -0.0853
 8946TIP3    H151033   2.012   3.635   3.329  0.5996 -0.7462  0.2166
 8946TIP3    H251034   1.963   3.534   3.226 -0.9063  0.6568 -0.4924
 8947TIP3   OH251035   3.708   1.013   4.502  0.4059 -0.1670  0.6497
 8947TIP3    H151036   3.724   0.942   4.564  0.1973 -0.2349  0.6285
 8947TIP3    H251037   3.621   1.046   4.526 -0.5952 -1.5307 -0.8764
 8948TIP3   OH251038   1.419   4.883   2.683 -0.0190 -0.2980  0.3088
 8948TIP3    H151039   1.378   4.961   2.645  1.7601 -0.1245 -1.4432
 8948TIP3    H251040   1.397   4.887   2.776 -2.1128  0.8880 -0.1646
 8949TIP3   OH251041   3.654   1.400   4.220  0.0545  0.2952  0.4363
 8949TIP3    H151042   3.603   1.475   4.251 -0.6354 -0.8330  2.1840
 8949TIP3    H251043   3.709   1.376   4.294  0.1113 -1.0558 -0.0272
 8950TIP3   OH251044   6.259   0.603   3.401  0.1667 -0.5130  0.0714
 8950TIP3    H151045   6.213   0.535   3.352 -0.7863  0.8447 -1.0334
 8950TIP3    H251046   6.201   0.680   3.394  0.9828  0.2774  1.6535
 8951TIP3   OH251047   6.438   5.327   4.816  0.6803  0.4676  0.6912
 8951TIP3    H151048   6.525   5.354   4.788  1.2482 -0.1403  1.7688
 8951TIP3    H251049   6.434   5.350   4.909 -0.1032 -0.0007  0.7878
 8952TIP3   OH251050   2.409   6.258   3.127  0.0944  0.3458  0.3755
 8952TIP3    H151051   2.395   6.294   3.040  0.6445  1.1736  0.6186
 8952TIP3    H251052   2.352   6.181   3.131 -0.6771  0.8660 -0.3541
 8953TIP3   OH251053   6.557   2.008   5.086 -0.1723  0.0877 -0.2236
 8953TIP3    H151054   6.495   2.025   5.157 -1.2283  0.6712 -1.2363
 8953TIP3    H251055   6.574   2.094   5.048  1.3800 -0.0460  0.0954
 8954TIP3   OH251056   3.317   1.387   2.150  0.8989 -0.3097 -0.5817
 8954TIP3    H151057   3.349   1.325   2.085  1.3284 -1.2642  0.4994
 8954TIP3    H251058   3.230   1.356   2.174  0.5910  0.2482 -0.9523
 8955TIP3   OH251059   3.646   1.646   2.989 -0.3754  0.4691  0.4457
 8955TIP3    H151060   3.673   1.614   2.903 -1.4554 -1.0885  0.6421
 8955TIP3    H251061   3.558   1.681   2.975 -0.4937  0.3518  0.8862
 8956TIP3   OH251062   3.421   3.192   4.049 -0.3384  0.2297  0.2511
 8956TIP3    H151063   3.435   3.097   4.056 -0.2369  0.3010  1.0234
 8956TIP3    H251064   3.344   3.200   3.992  0.2908 -0.2769 -0.7164
 8957TIP3   OH251065   0.061   5.325   5.746  0.1710  0.0349  0.1982
 8957TIP3    H151066   0.055   5.309   5.651  0.1883 -0.2506  0.2428
 8957TIP3    H251067   0.122   5.258   5.777 -2.1337 -1.9293  0.8731
 8958TIP3   OH251068   3.730   5.624   5.154 -0.2156 -0.2947 -0.0703
 8958TIP3    H151069   3.672   5.598   5.225 -1.2734 -0.2912 -0.9088
 8958TIP3    H251070   3.695   5.708   5.124  1.2106  0.5321  0.4655
 8959TIP3   OH251071   1.626   3.401   4.065 -0.8311  0.0372 -0.3026
 8959TIP3    H151072   1.663   3.489   4.076  1.2777 -0.7443 -0.8045
 8959TIP3    H251073   1.556   3.413   4.001 -0.1476  1.2492 -0.8673
 8960TIP3   OH251074   4.366   3.648   4.623 -0.2658  0.0421 -0.5307
 8960TIP3    H151075   4.337   3.624   4.711 -4.3156 -1.6632 -2.0692
 8960TIP3    H251076   4.304   3.714   4.594 -0.8710 -1.5015 -3.0430
 8961TIP3   OH251077   6.559   3.656   3.913  0.5975 -0.1993 -0.7825
 8961TIP3    H151078   6.513   3.666   3.997 -0.1366 -0.5218 -1.1356
 8961TIP3    H251079   6.551   3.562   3.893  1.9413 -0.3903 -0.5672
 8962TIP3   OH251080   1.288   6.568   1.913  0.3172 -0.6418 -0.1071
 8962TIP3    H151081   1.384   6.571   1.918  0.3011  0.0568 -0.1177
 8962TIP3    H251082   1.267   6.475   1.907  1.0693 -0.7560 -1.4851
 8963TIP3   OH251083   1.967   4.062   6.024  0.3568  0.7972 -0.2100
 8963TIP3    H151084   1.929   4.042   5.939  0.1583  0.0522  0.0429
 8963TIP3    H251085   2.040   4.121   6.005  0.2356  0.7329 -0.8796
 8964TIP3   OH251086   1.387   0.061   3.879 -0.1709 -0.3320 -0.4231
 8964TIP3    H151087   1.364   0.116   3.804  0.6889  1.8195  0.7973
 8964TIP3    H251088   1.451  -0.002   3.845 -1.4729 -0.8898 -1.9468
 8965TIP3   OH251089   6.740   5.039   3.497 -0.3364 -0.0356  0.4225
 8965TIP3    H151090   6.826   5.021   3.457 -0.1863  0.7377  0.3741
 8965TIP3    H251091   6.733   5.135   3.494 -0.7060 -0.0271  1.4758
 8966TIP3   OH251092   4.361   5.133   4.502  0.0269  0.0254  0.1357
 8966TIP3    H151093   4.406   5.052   4.482 -2.6845 -1.3791 -0.7231
 8966TIP3    H251094   4.296   5.143   4.433 -2.1650  0.9475  2.1629
 8967TIP3   OH251095   1.705   2.707   2.872  0.8361  0.0204 -0.4831
 8967TIP3    H151096   1.771   2.639   2.881 -0.5705 -1.4172 -0.6030
 8967TIP3    H251097   1.695   2.743   2.960 -0.1977 -1.7113  0.1596
 8968TIP3   OH251098   3.962   0.511   5.011  0.4165 -0.2600  0.5984
 8968TIP3    H151099   3.893   0.524   4.946 -0.8962 -1.0105  1.7686
 8968TIP3    H251100   3.975   0.597   5.051  0.0801 -0.1368  0.4447
 8969TIP3   OH251101   3.124   0.791   4.097  0.4108 -0.1152 -0.3406
 8969TIP3    H151102   3.159   0.867   4.143  1.2884 -0.0638 -1.0656
 8969TIP3    H251103   3.201   0.737   4.078  0.0180 -0.3644 -1.3036
 8970TIP3   OH251104   4.172   6.154   3.662 -0.0846  0.1126 -0.6742
 8970TIP3    H151105   4.089   6.126   3.702  0.2816 -0.2248 -0.1496
 8970TIP3    H251106   4.219   6.073   3.644  0.5756  0.3474 -0.0176
 8971TIP3   OH251107   6.189   6.782   4.710  0.3209  0.4706  0.0401
 8971TIP3    H151108   6.192   6.873   4.740 -1.2364  0.7868 -0.6547
 8971TIP3    H251109   6.158   6.787   4.619 -0.8743 -0.8042  0.3376
 8972TIP3   OH251110   0.958   0.569   2.650 -0.1921  0.8322  0.0016
 8972TIP3    H151111   0.949   0.529   2.737 -1.8527  0.7616 -0.1756
 8972TIP3    H251112   1.045   0.609   2.652  0.6947 -0.9927  0.9155
 8973TIP3   OH251113   6.798   1.917   5.039 -0.1630 -0.7778 -0.4862
 8973TIP3    H151114   6.715   1.961   5.053 -0.0431 -0.8590  0.5706
 8973TIP3    H251115   6.794   1.886   4.948 -1.0968 -0.4106 -0.5795
 8974TIP3   OH251116   2.859   5.962   4.605 -0.3417 -0.1904 -0.0170
 8974TIP3    H151117   2.918   5.987   4.676 -0.1747 -0.0052 -0.2225
 8974TIP3    H251118   2.880   5.870   4.588 -0.9975 -0.5066  0.7767
 8975TIP3   OH251119   5.538   3.721   2.115  0.0654 -0.0578  0.0551
 8975TIP3    H151120   5.463   3.720   2.174 -0.4654  1.1169 -0.5680
 8975TIP3    H251121   5.509   3.774   2.041  1.3597  0.0355 -0.3993
 8976TIP3   OH251122   4.227   3.223   4.746  0.1608 -0.0191  0.4330
 8976TIP3    H151123   4.196   3.142   4.784 -0.3622  0.3945  0.9042
 8976TIP3    H251124   4.218   3.288   4.817  0.0508  0.5624 -0.1023
 8977TIP3   OH251125   4.769   5.340   4.118 -0.5389  0.3592  0.2045
 8977TIP3    H151126   4.675   5.349   4.134 -1.0206 -0.7183 -1.6713
 8977TIP3    H251127   4.800   5.281   4.187 -1.4615 -0.1146  0.2318
 8978TIP3   OH251128   4.745   3.219   4.040  0.3465 -0.6130  0.0186
 8978TIP3    H151129   4.705   3.185   4.120 -0.5929  0.9709  0.2672
 8978TIP3    H251130   4.822   3.266   4.070  0.6446 -1.0014 -0.1359
 8979TIP3   OH251131   0.579   2.870   2.856 -0.6257  0.6462 -0.0108
 8979TIP3    H151132   0.550   2.959   2.877  0.4139  0.8092  0.8466
 8979TIP3    H251133   0.672   2.871   2.875 -0.8045 -0.9441  1.1155
 8980TIP3   OH251134   1.228   3.276   3.760 -0.2559 -0.8559 -0.2617
 8980TIP3    H151135   1.291   3.230   3.704 -0.0453 -1.4434  0.4566
 8980TIP3    H251136   1.264   3.365   3.767  0.3181 -1.0964 -0.1292
 8981TIP3   OH251137   0.649   4.955   2.643 -0.1151 -0.5493  0.0502
 8981TIP3    H151138   0.674   4.878   2.694 -1.1596 -0.8435  0.1376
 8981TIP3    H251139   0.566   4.931   2.602  1.3724 -0.9448 -3.0808
 8982TIP3   OH251140   5.031   4.481   3.841  0.0925 -0.2392 -0.0420
 8982TIP3    H151141   5.094   4.420   3.879  2.4111  0.2722 -2.6539
 8982TIP3    H251142   4.985   4.430   3.774 -2.8680 -0.7600  2.2029
 8983TIP3   OH251143   0.111   3.887   2.934 -0.1624 -0.4852  0.3547
 8983TIP3    H151144   0.018   3.899   2.957 -0.2923 -0.2397 -0.2919
 8983TIP3    H251145   0.109   3.839   2.852  0.1922  2.2270 -1.3528
 8984TIP3   OH251146   0.189   4.665   4.486  0.0033 -1.0030  0.0110
 8984TIP3    H151147   0.246   4.592   4.508 -0.3978 -1.2892  0.1200
 8984TIP3    H251148   0.148   4.690   4.569  0.3733 -0.4478  0.0316
 8985TIP3   OH251149   3.949   6.558   5.666  0.3128  0.0596  0.5634
 8985TIP3    H151150   3.938   6.649   5.694  0.0357  0.4182 -0.6602
 8985TIP3    H251151   3.903   6.507   5.733  0.2107  0.8391  1.1003
 8986TIP3   OH251152   2.273   5.697   3.600  0.5943  0.1856  0.1311
 8986TIP3    H151153   2.333   5.746   3.655 -0.5565  1.3056  0.4508
 8986TIP3    H251154   2.289   5.728   3.511 -0.9716  2.1706  0.4647
 8987TIP3   OH251155   1.449   1.326   3.562 -0.3962 -0.3896  0.5104
 8987TIP3    H151156   1.367   1.297   3.604 -0.3801 -0.6180  0.3835
 8987TIP3    H251157   1.513   1.259   3.586 -0.1435  0.0148  0.9644
 8988TIP3   OH251158   3.953   5.181   4.746  0.0680 -0.1193 -0.3851
 8988TIP3    H151159   3.931   5.089   4.759  0.2661 -0.0867  0.2593
 8988TIP3    H251160   4.032   5.194   4.799 -0.5164  0.6512  0.3218
 8989TIP3   OH251161   2.541   3.052   5.037 -0.1385 -0.5454 -0.3777
 8989TIP3    H151162   2.489   2.987   5.082  0.4635 -0.9361 -0.2314
 8989TIP3    H251163   2.501   3.136   5.060 -0.4553 -0.8120  0.0430
 8990TIP3   OH251164   1.870   1.491   3.778  0.0732 -0.2229 -0.8747
 8990TIP3    H151165   1.869   1.430   3.704 -1.4437 -1.5623  0.1766
 8990TIP3    H251166   1.788   1.540   3.770  1.0214  1.3683 -1.3916
 8991TIP3   OH251167   4.171   3.483   2.672 -0.4741  0.0484  0.0471
 8991TIP3    H151168   4.226   3.561   2.685  1.8889 -1.2188 -1.5339
 8991TIP3    H251169   4.111   3.508   2.603 -1.9996  1.4567  1.7775
 8992TIP3   OH251170   0.773   0.921   4.247  0.3016  0.4600 -0.2676
 8992TIP3    H151171   0.690   0.925   4.201  0.8687 -0.1958 -1.4006
 8992TIP3    H251172   0.775   0.833   4.286 -0.2312  1.0524  1.1757
 8993TIP3   OH251173   4.684   0.187   2.494 -0.4427  0.5118  0.2743
 8993TIP3    H151174   4.650   0.276   2.509 -1.0116  0.0835  1.6721
 8993TIP3    H251175   4.606   0.131   2.499 -0.0278 -0.1141 -0.1862
 8994TIP3   OH251176   3.711   1.502   3.217 -0.0807  0.8129  0.2414
 8994TIP3    H151177   3.782   1.510   3.280  0.6576 -0.4965 -0.3965
 8994TIP3    H251178   3.736   1.560   3.145  0.8418 -0.3425 -0.4034
 8995TIP3   OH251179   1.194   2.783   3.445  0.0618  0.2485 -0.0899
 8995TIP3    H151180   1.254   2.820   3.509  2.8571  0.9853 -2.8561
 8995TIP3    H251181   1.131   2.852   3.428  0.4327  0.7474  0.5228
 8996TIP3   OH251182   3.244   2.547   2.172 -0.1718 -0.0716  0.0174
 8996TIP3    H151183   3.250   2.457   2.204  0.9734 -0.7221 -1.8511
 8996TIP3    H251184   3.308   2.595   2.225  0.2643 -0.6874  0.0616
 8997TIP3   OH251185   0.296   4.828   3.926  0.0519  0.3778  0.0817
 8997TIP3    H151186   0.306   4.754   3.986 -1.1418  0.6473  0.6493
 8997TIP3    H251187   0.336   4.799   3.844  1.7110 -0.0125  0.9769
 8998TIP3   OH251188   4.052   0.352   5.203 -0.3297 -0.0193 -0.1990
 8998TIP3    H151189   4.042   0.260   5.178 -0.3467 -0.7799  2.3316
 8998TIP3    H251190   4.020   0.400   5.127 -0.2187 -2.0836 -1.6535
 8999TIP3   OH251191   4.164   6.377   3.944  0.1352 -0.0935 -0.6830
 8999TIP3    H151192   4.089   6.333   3.984 -0.7522  0.5580 -1.5784
 8999TIP3    H251193   4.145   6.470   3.951  1.3727  0.1411 -0.0010
 9000TIP3   OH251194   3.286   3.837   3.452  0.1392  0.1084  0.2408
 9000TIP3    H151195   3.380   3.831   3.439 -0.1638 -1.1381 -1.8199
 9000TIP3    H251196   3.269   3.787   3.532  1.2390  0.7237  0.8873
 9001TIP3   OH251197   3.246   1.706   4.875  0.0050  0.2468 -0.4956
 9001TIP3    H151198   3.295   1.760   4.937  1.1692 -1.8685  0.5065
 9001TIP3    H251199   3.161   1.693   4.917  1.4539 -2.8966  1.8633
 9002TIP3   OH251200   6.829   3.041   4.779 -0.1180  0.5597 -0.2289
 9002TIP3    H151201   6.834   3.017   4.871 -0.9082  0.9645 -0.0748
 9002TIP3    H251202   6.909   3.006   4.740 -0.9188 -1.7879  0.1104
 9003TIP3   OH251203   3.311   0.198   3.807  0.3499 -0.0069  0.1571
 9003TIP3    H151204   3.321   0.232   3.896  1.4219 -2.1658  0.9215
 9003TIP3    H251205   3.269   0.113   3.819 -0.1529 -0.0255 -1.4936
 9004TIP3   OH251206   2.001   0.205   2.141  0.0535 -0.2099  0.2431
 9004TIP3    H151207   1.979   0.298   2.136  1.8658  0.3269  1.3150
 9004TIP3    H251208   2.056   0.190   2.064  1.1464  0.0515  0.9492
 9005TIP3   OH251209   6.698   5.407   4.764  0.0329 -0.3057  0.2509
 9005TIP3    H151210   6.709   5.393   4.670 -0.3912 -0.4462  0.2189
 9005TIP3    H251211   6.738   5.492   4.781 -1.2832  0.4548 -0.3423
 9006TIP3   OH251212   1.451   3.097   4.872 -0.3372 -0.0291 -0.4323
 9006TIP3    H151213   1.376   3.126   4.925 -0.4524  0.1674 -0.7025
 9006TIP3    H251214   1.440   3.002   4.866  0.6613 -0.3167  1.4206
 9007TIP3   OH251215   1.746   4.057   3.764 -0.0940  0.1698 -0.3449
 9007TIP3    H151216   1.774   3.991   3.700  0.4329 -0.1632  0.2261
 9007TIP3    H251217   1.827   4.090   3.802 -0.3079  1.5339 -0.9819
 9008TIP3   OH251218   3.512   0.827   2.054 -0.0470  0.0402  0.0365
 9008TIP3    H151219   3.575   0.759   2.028  0.1463  0.2605 -0.0753
 9008TIP3    H251220   3.430   0.798   2.015  0.2674  0.4259 -0.9448
 9009TIP3   OH251221   4.110   6.105   4.184 -0.1934  0.0540 -0.0289
 9009TIP3    H151222   4.111   6.013   4.159 -1.4371 -0.6384  2.1950
 9009TIP3    H251223   4.201   6.126   4.203  0.2274 -0.4236 -1.3770
 9010TIP3   OH251224   6.506   4.219   4.123 -0.3244 -0.0590 -0.0895
 9010TIP3    H151225   6.581   4.273   4.145 -0.9766  0.9528 -0.2929
 9010TIP3    H251226   6.438   4.281   4.097 -1.0597 -0.9796 -0.4304
 9011TIP3   OH251227   5.047   1.101   3.045 -0.2151  0.4504 -0.2819
 9011TIP3    H151228   5.104   1.032   3.081 -1.9538  0.2404  2.3883
 9011TIP3    H251229   4.997   1.057   2.977 -0.2019 -0.5175  0.3140
 9012TIP3   OH251230   4.396   1.747   2.257 -0.5447 -0.3402 -0.2163
 9012TIP3    H151231   4.434   1.806   2.192 -0.0304  0.1201  0.4899
 9012TIP3    H251232   4.312   1.787   2.280  0.0582  0.4419  0.6835
 9013TIP3   OH251233   0.085   1.761   2.310 -0.0772  0.2773 -0.0810
 9013TIP3    H151234   0.083   1.670   2.340  0.2172  0.7652  1.4764
 9013TIP3    H251235  -0.002   1.794   2.330  0.0869  0.5800  0.1276
 9014TIP3   OH251236   5.659   5.905   2.077  0.2129  0.5428 -0.0713
 9014TIP3    H151237   5.746   5.922   2.041 -0.5344  0.2449 -2.1334
 9014TIP3    H251238   5.621   5.839   2.020 -1.2627  0.4174  0.9886
 9015TIP3   OH251239   0.437   3.204   5.240 -0.0346 -0.1691 -0.1768
 9015TIP3    H151240   0.409   3.113   5.247  0.7737 -0.4596 -0.5290
 9015TIP3    H251241   0.370   3.254   5.286 -1.0704 -0.8313 -0.9269
 9016TIP3   OH251242   0.583   1.088   4.031 -0.1164 -0.3741 -0.9955
 9016TIP3    H151243   0.559   1.021   3.967  0.3512 -1.7004  0.1532
 9016TIP3    H251244   0.504   1.141   4.041 -0.9458 -1.5654 -0.9816
 9017TIP3   OH251245   3.533   1.134   3.811 -0.2895 -0.2181  0.8836
 9017TIP3    H151246   3.458   1.086   3.775 -1.4662  2.0576  0.0340
 9017TIP3    H251247   3.530   1.117   3.905  0.1987 -2.8454  0.4763
 9018TIP3   OH251248   2.150   1.766   2.231  0.2199  0.1913  0.9370
 9018TIP3    H151249   2.081   1.770   2.165 -0.3329 -0.3914  1.4549
 9018TIP3    H251250   2.162   1.856   2.260  1.0208  0.5728 -0.4888
 9019TIP3   OH251251   5.682   5.382   2.983  0.0492  0.0726  0.4750
 9019TIP3    H151252   5.683   5.452   3.049  0.9794  0.8858 -0.3704
 9019TIP3    H251253   5.762   5.395   2.933 -0.1063 -1.2005 -0.1396
 9020TIP3   OH251254   1.995   0.642   3.498 -0.4153  0.4336 -0.5264
 9020TIP3    H151255   2.059   0.666   3.431  0.7386  1.0166  0.7339
 9020TIP3    H251256   1.971   0.725   3.539 -0.3606  0.0032  0.4085
 9021TIP3   OH251257   0.105   4.585   2.152  0.4664 -0.1050  0.3138
 9021TIP3    H151258   0.019   4.551   2.127  0.5986 -0.9892  1.0012
 9021TIP3    H251259   0.088   4.634   2.233  0.5945 -0.2433  0.4257
 9022TIP3   OH251260   1.900   6.139   3.046 -0.2417  0.6063 -0.3178
 9022TIP3    H151261   1.965   6.133   3.116 -0.4578  0.6543 -0.1127
 9022TIP3    H251262   1.843   6.063   3.060 -0.4290  0.7515 -0.2957
 9023TIP3   OH251263   0.198   5.346   2.747  0.5511 -0.5894 -0.6790
 9023TIP3    H151264   0.206   5.377   2.656 -0.4979  1.4745 -0.1327
 9023TIP3    H251265   0.121   5.289   2.745  1.3447 -1.6709 -1.3274
 9024TIP3   OH251266   0.691   0.459   1.947 -0.1339  0.0823 -0.0904
 9024TIP3    H151267   0.757   0.398   1.979 -0.6842  0.2262  1.4247
 9024TIP3    H251268   0.695   0.532   2.008 -1.0488  0.5152 -0.5341
 9025TIP3   OH251269   2.555   6.204   5.089  0.1733  0.2019 -0.4439
 9025TIP3    H151270   2.597   6.155   5.160 -1.8362 -2.5212 -0.9547
 9025TIP3    H251271   2.500   6.269   5.134  1.0049  0.3726  0.3585
 9026TIP3   OH251272   5.009   5.872   2.057  0.4978  0.5461 -0.7695
 9026TIP3    H151273   5.084   5.827   2.096  0.7693  1.8488  0.3304
 9026TIP3    H251274   5.041   5.961   2.040 -0.3613  0.6962 -1.7136
 9027TIP3   OH251275   6.122   4.746   1.926  0.0482  0.8059  0.4362
 9027TIP3    H151276   6.141   4.799   2.004 -0.2564  0.6471  0.6188
 9027TIP3    H251277   6.104   4.811   1.857 -0.0984  0.9442  0.6025
 9028TIP3   OH251278   5.032   4.756   3.832  0.5010  0.1712  0.3589
 9028TIP3    H151279   5.056   4.745   3.740 -2.0069 -2.6197 -0.1336
 9028TIP3    H251280   5.041   4.668   3.869 -0.1888  0.8840  2.3271
 9029TIP3   OH251281   5.266   5.643   3.235  0.0932 -0.0492  0.3655
 9029TIP3    H151282   5.347   5.671   3.193  0.1547 -1.0458 -0.2298
 9029TIP3    H251283   5.255   5.702   3.309 -0.5456  2.4649 -1.5976
 9030TIP3   OH251284   4.679   4.746   3.152 -0.2128 -0.4211 -0.0670
 9030TIP3    H151285   4.640   4.658   3.147 -1.9056  0.3473 -1.4675
 9030TIP3    H251286   4.614   4.803   3.112  1.0190  1.4463  0.4767
 9031TIP3   OH251287   3.478   6.150   2.937 -0.4042 -0.1185 -0.2705
 9031TIP3    H151288   3.480   6.096   3.016  0.8562  1.8184  1.0814
 9031TIP3    H251289   3.495   6.088   2.866 -2.1255 -2.0141  0.8474
 9032TIP3   OH251290   5.067   3.458   2.789 -0.5047 -0.0842  0.3333
 9032TIP3    H151291   5.128   3.428   2.723  0.7106  2.4555  0.1734
 9032TIP3    H251292   4.984   3.470   2.742 -0.4022 -0.9540 -0.0739
 9033TIP3   OH251293   3.826   5.202   2.519  0.0888 -0.2767  0.1418
 9033TIP3    H151294   3.851   5.211   2.611 -0.0172  0.1683  0.1272
 9033TIP3    H251295   3.861   5.281   2.477  3.0582 -1.9398 -0.8500
 9034TIP3   OH251296   4.782   6.000   4.738  0.4184 -0.7130  0.7898
 9034TIP3    H151297   4.699   5.990   4.691  0.4913  0.4002  0.3734
 9034TIP3    H251298   4.832   5.921   4.717  0.3497 -0.3665 -0.8346
 9035TIP3   OH251299   2.122   6.089   4.729  0.2803  0.5333  0.5929
 9035TIP3    H151300   2.200   6.053   4.686 -1.1026 -2.3457  0.2349
 9035TIP3    H251301   2.073   6.131   4.659  0.0762 -0.3652  0.1851
 9036TIP3   OH251302   1.133   0.342   2.560  0.3182 -0.2667  0.0882
 9036TIP3    H151303   1.140   0.434   2.534  1.1559  0.2880  2.0648
 9036TIP3    H251304   1.100   0.298   2.482  0.4704  1.6018 -1.1147
 9037TIP3   OH251305   5.798   5.992   4.611  0.4421  0.2175  0.2985
 9037TIP3    H151306   5.703   6.001   4.614  0.4648  0.2669  1.1842
 9037TIP3    H251307   5.822   5.957   4.697  1.2122  0.0654  0.0358
 9038TIP3   OH251308   4.237   1.236   3.395 -0.4283 -0.6193 -0.0203
 9038TIP3    H151309   4.197   1.165   3.345 -0.4827  0.5765 -1.7174
 9038TIP3    H251310   4.238   1.311   3.336 -1.7957  1.3019  2.2051
 9039TIP3   OH251311   5.046   2.297   4.424 -0.7569 -0.3938  0.3653
 9039TIP3    H151312   5.126   2.257   4.388 -1.1104 -1.7218  0.9771
 9039TIP3    H251313   5.050   2.388   4.397  0.9252 -0.4594  0.2900
 9040TIP3   OH251314   2.822   4.275   5.116  0.2324  0.1520 -0.2117
 9040TIP3    H151315   2.770   4.245   5.191  0.8226  0.4035  0.3117
 9040TIP3    H251316   2.908   4.295   5.153  0.7990 -0.5208 -1.1076
 9041TIP3   OH251317   3.583   4.961   2.112 -0.4413 -0.2891 -0.0353
 9041TIP3    H151318   3.507   4.920   2.152 -1.2375  1.1620 -0.0026
 9041TIP3    H251319   3.602   5.037   2.168 -1.5470  1.7727 -2.2525
 9042TIP3   OH251320   1.209   5.359   2.798  0.2571  0.3484 -0.1636
 9042TIP3    H151321   1.159   5.432   2.834  0.4081  0.2341  0.2791
 9042TIP3    H251322   1.158   5.281   2.821  0.5150  0.2501  0.0811
 9043TIP3   OH251323   0.954   4.233   2.512  0.2082  0.5323 -0.3461
 9043TIP3    H151324   0.986   4.221   2.602 -0.3179  0.9152 -0.1003
 9043TIP3    H251325   0.985   4.156   2.465  0.3992  0.2742  0.1943
 9044TIP3   OH251326   0.587   0.557   3.340  0.0970  0.3262  0.4417
 9044TIP3    H151327   0.605   0.568   3.434  0.3984  0.6583  0.3477
 9044TIP3    H251328   0.657   0.500   3.309 -1.9761 -2.8444  1.1183
 9045TIP3   OH251329   2.979   6.565   2.564 -0.5097 -0.3237  0.6514
 9045TIP3    H151330   3.042   6.592   2.631  0.3047 -1.4877  0.3833
 9045TIP3    H251331   3.027   6.573   2.482 -0.8182 -0.9059  0.4081
 9046TIP3   OH251332   3.303   6.326   2.203  0.1856 -0.5124  0.1897
 9046TIP3    H151333   3.266   6.412   2.183  0.0239 -0.4860  0.5945
 9046TIP3    H251334   3.382   6.346   2.255  0.8802 -0.5589 -0.8214
 9047TIP3   OH251335   6.486   4.296   2.100  0.0944 -0.1378 -0.0962
 9047TIP3    H151336   6.397   4.307   2.064  0.3564 -1.4981 -1.2292
 9047TIP3    H251337   6.502   4.202   2.098  2.1151  0.1671 -1.3146
 9048TIP3   OH251338   1.522   2.941   2.536  0.2081  0.4101 -0.0765
 9048TIP3    H151339   1.499   3.031   2.556 -0.3021  0.5666 -1.2724
 9048TIP3    H251340   1.618   2.938   2.545  0.2317  1.0849 -0.0704
 9049TIP3   OH251341   1.716   4.868   5.119  0.0311 -0.8945  0.4930
 9049TIP3    H151342   1.750   4.783   5.088 -3.0379 -1.6415 -1.2227
 9049TIP3    H251343   1.661   4.845   5.194  1.2656  0.0086  1.7402
 9050TIP3   OH251344   0.713   6.339   3.649  0.5846 -0.0478 -0.0250
 9050TIP3    H151345   0.797   6.325   3.606  0.0131 -2.5607 -0.4706
 9050TIP3    H251346   0.731   6.324   3.742  0.5503 -1.2261 -0.1894
 9051TIP3   OH251347   4.647   0.486   2.239 -0.2119  0.5512 -0.2789
 9051TIP3    H151348   4.679   0.555   2.296  0.8542 -0.4645  0.3903
 9051TIP3    H251349   4.556   0.473   2.266  0.3194 -0.0424  1.3638
 9052TIP3   OH251350   2.422   3.121   3.023  0.1143  0.0605 -0.1800
 9052TIP3    H151351   2.472   3.058   2.973 -0.9018 -0.7200 -0.2367
 9052TIP3    H251352   2.484   3.191   3.042  0.5309  0.4167 -2.5406
 9053TIP3   OH251353   1.941   2.686   3.229 -0.2744  0.8228 -0.2174
 9053TIP3    H151354   1.864   2.733   3.199 -0.3205  0.5657 -0.5185
 9053TIP3    H251355   2.012   2.718   3.173 -0.3971  0.2027 -0.7429
 9054TIP3   OH251356   3.835   4.450   2.043  0.1866 -0.1683 -0.3671
 9054TIP3    H151357   3.774   4.525   2.042  0.6137  0.1812 -1.4301
 9054TIP3    H251358   3.882   4.459   2.125  0.3180  0.8127 -0.5377
 9055TIP3   OH251359   6.687   0.308   3.351  0.6321  0.0367  0.5332
 9055TIP3    H151360   6.643   0.393   3.342  0.6234  0.2538  2.3042
 9055TIP3    H251361   6.780   0.329   3.352  0.6751 -0.1060 -0.2024
 9056TIP3   OH251362   4.189   3.682   2.929  0.6015 -0.6040  0.2142
 9056TIP3    H151363   4.100   3.690   2.894  0.6672  0.9759  0.3479
 9056TIP3    H251364   4.179   3.698   3.023  1.2020  1.0948  0.0172
 9057TIP3   OH251365   0.868   2.073   4.074  0.0935 -0.0635 -0.1162
 9057TIP3    H151366   0.946   2.110   4.115  0.8870 -2.9564  1.2258
 9057TIP3    H251367   0.798   2.089   4.137  0.1200  0.3054 -0.1754
 9058TIP3   OH251368   4.353   4.771   3.320  0.4969 -0.0392  0.1209
 9058TIP3    H151369   4.410   4.825   3.375 -0.6202 -0.9311  2.2417
 9058TIP3    H251370   4.387   4.682   3.331  0.8859 -0.1174 -1.4960
 9059TIP3   OH251371   1.122   4.389   2.331  0.5138  0.2840  0.4599
 9059TIP3    H151372   1.061   4.347   2.392 -0.4101  3.1993  1.7718
 9059TIP3    H251373   1.208   4.354   2.354 -0.0779 -0.2148  2.0493
 9060TIP3   OH251374   2.068   1.232   3.319 -0.7689  0.0180 -0.1128
 9060TIP3    H151375   2.124   1.302   3.352 -0.3577 -0.2264 -0.2729
 9060TIP3    H251376   2.110   1.152   3.350 -1.6334 -0.1394  0.6792
 9061TIP3   OH251377   1.652   1.081   4.745  0.0048 -0.3808 -0.6092
 9061TIP3    H151378   1.640   1.171   4.775  0.1088 -0.4680 -0.3031
 9061TIP3    H251379   1.743   1.078   4.716  0.6759 -0.9487  1.3817
 9062TIP3   OH251380   3.748   4.204   1.979  0.4328 -0.0437  1.0704
 9062TIP3    H151381   3.828   4.152   1.971  1.5750  1.8208 -0.9906
 9062TIP3    H251382   3.778   4.288   2.015 -0.0821  1.5130 -1.8392
 9063TIP3   OH251383   2.940   0.338   4.414 -0.4752 -0.0074 -1.1850
 9063TIP3    H151384   2.867   0.384   4.373 -1.8742 -0.3896  0.7714
 9063TIP3    H251385   2.980   0.403   4.472 -0.8397 -0.5065 -0.3656
 9064TIP3   OH251386   4.023   6.160   2.340 -0.1168  0.3315 -0.7455
 9064TIP3    H151387   3.934   6.188   2.361  0.3935  0.3959  1.5391
 9064TIP3    H251388   4.013   6.074   2.300 -1.1687 -0.0655  0.3307
 9065TIP3   OH251389   3.345   4.101   4.199  0.5007 -0.2600 -0.1729
 9065TIP3    H151390   3.335   4.071   4.289  0.2626 -1.6727 -0.6370
 9065TIP3    H251391   3.288   4.177   4.192  0.3415 -0.2823  0.8028
 9066TIP3   OH251392   4.993   2.015   4.007  0.7663  0.5271  0.0127
 9066TIP3    H151393   5.037   1.970   4.079  1.2670 -0.5180 -0.9223
 9066TIP3    H251394   4.900   2.003   4.025  0.8421  1.6840  1.3370
 9067TIP3   OH251395   4.320   2.899   2.455  0.1889  0.0895 -0.6362
 9067TIP3    H151396   4.357   2.960   2.519  0.4681 -1.2119  0.5051
 9067TIP3    H251397   4.241   2.866   2.497  0.7258 -1.2787 -0.6593
 9068TIP3   OH251398   6.578   2.554   4.338  0.1797  0.7160 -0.0687
 9068TIP3    H151399   6.618   2.570   4.423  2.6264 -0.6728 -0.8567
 9068TIP3    H251400   6.533   2.470   4.347  0.3619  0.6132 -0.1142
 9069TIP3   OH251401   6.789   6.109   3.508  0.7776  0.5320  0.0084
 9069TIP3    H151402   6.815   6.067   3.426  1.6432 -0.0159  0.5536
 9069TIP3    H251403   6.861   6.091   3.568  0.3115  1.2303  0.7925
 9070TIP3   OH251404   2.158   0.934   4.339  0.1370  0.3105  0.0566
 9070TIP3    H151405   2.155   0.990   4.261 -0.2327  1.7480  1.0700
 9070TIP3    H251406   2.077   0.883   4.335 -0.3106  1.0161 -0.0519
 9071TIP3   OH251407   5.378   6.683   2.451  0.3180 -1.1087 -0.6655
 9071TIP3    H151408   5.463   6.722   2.431  0.2390 -0.6054 -0.0408
 9071TIP3    H251409   5.394   6.631   2.530 -0.0766 -0.5601 -0.2185
 9072TIP3   OH251410   6.541   4.644   3.380  0.0061  0.2319  0.3504
 9072TIP3    H151411   6.623   4.623   3.425 -0.2355 -0.3571  0.5263
 9072TIP3    H251412   6.511   4.560   3.345 -0.5167  0.4456  0.2787
 9073TIP3   OH251413   4.696   2.497   3.456 -0.2286  0.6693  0.2626
 9073TIP3    H151414   4.746   2.466   3.532 -2.3922 -1.9233  0.7851
 9073TIP3    H251415   4.731   2.447   3.382  0.2168  1.3868 -0.0240
 9074TIP3   OH251416   1.071   6.754   3.314 -0.2032 -0.1084  0.2627
 9074TIP3    H151417   1.138   6.723   3.375 -1.3425  0.5521  1.9339
 9074TIP3    H251418   1.110   6.743   3.228  2.7153  1.6940  1.2023
 9075TIP3   OH251419   3.508   1.662   4.270 -0.8624  0.0600 -0.0437
 9075TIP3    H151420   3.552   1.696   4.349 -0.5990 -0.8307  0.2064
 9075TIP3    H251421   3.420   1.701   4.273 -0.6449  0.5386  0.3449
 9076TIP3   OH251422   2.545   6.281   4.322  0.4913  0.2267 -0.1791
 9076TIP3    H151423   2.590   6.269   4.238  0.5139  2.2906 -0.5152
 9076TIP3    H251424   2.588   6.357   4.361 -2.0297  1.6910 -0.0831
 9077TIP3   OH251425   2.742   2.711   3.238 -0.1462  0.1281 -0.1866
 9077TIP3    H151426   2.683   2.785   3.252 -0.5907  0.0529 -1.4989
 9077TIP3    H251427   2.705   2.641   3.292  0.7006  1.0324  1.6498
 9078TIP3   OH251428   4.497   3.403   3.534  0.2843  0.3253  0.0589
 9078TIP3    H151429   4.558   3.342   3.576 -1.9493 -0.6757  2.1001
 9078TIP3    H251430   4.483   3.365   3.447  2.0684  0.2826 -0.2611
 9079TIP3   OH251431   6.203   2.614   3.067 -0.6593 -0.8023  0.1987
 9079TIP3    H151432   6.258   2.692   3.063 -1.3158 -0.3389  0.1309
 9079TIP3    H251433   6.248   2.557   3.129 -0.3159 -0.2583  0.4591
 9080TIP3   OH251434   2.639   2.738   2.604  0.2662 -0.4837 -0.5936
 9080TIP3    H151435   2.686   2.821   2.613 -1.8316  0.5932  1.4096
 9080TIP3    H251436   2.556   2.761   2.562 -1.7728 -0.8080  2.8466
 9081TIP3   OH251437   2.682   4.284   5.370  0.2578 -0.0386 -0.1357
 9081TIP3    H151438   2.591   4.314   5.369  0.1640 -0.2799 -1.5774
 9081TIP3    H251439   2.713   4.302   5.459 -0.9249  0.8524  0.1141
 9082TIP3   OH251440   6.510   4.909   3.551 -0.2309 -0.2359  0.3065
 9082TIP3    H151441   6.605   4.909   3.540  0.0316 -1.0620  2.1484
 9082TIP3    H251442   6.491   4.824   3.592 -1.8457 -0.3326 -0.5498
 9083TIP3   OH251443   4.479   1.896   4.382 -0.6141  0.4483  0.3257
 9083TIP3    H151444   4.429   1.927   4.306 -1.6192  0.8504  1.1251
 9083TIP3    H251445   4.420   1.835   4.426 -0.5282  1.1649  1.4623
 9084TIP3   OH251446   5.633   1.960   2.610 -0.1846 -0.4074 -0.2239
 9084TIP3    H151447   5.640   1.891   2.545  1.3673  0.5010 -1.0774
 9084TIP3    H251448   5.659   2.040   2.564 -0.3967  0.5005  1.1512
 9085TIP3   OH251449   4.870   3.769   2.663  0.0382  0.6537 -0.0870
 9085TIP3    H151450   4.850   3.800   2.751  0.0420  0.1272  0.1052
 9085TIP3    H251451   4.849   3.676   2.665 -0.1211  0.6730 -0.6943
 9086TIP3   OH251452   6.296   2.836   2.104  0.4240  0.1212  0.0698
 9086TIP3    H151453   6.207   2.826   2.138  0.7447  1.6121  1.4691
 9086TIP3    H251454   6.294   2.916   2.053  0.9740  0.1901  0.1482
 9087TIP3   OH251455   2.772   2.981   2.548  0.2254  1.1051  0.5699
 9087TIP3    H151456   2.783   3.020   2.462 -0.1066  0.7029  0.3388
 9087TIP3    H251457   2.850   3.007   2.597  0.9731  0.3908 -0.2116
 9088TIP3   OH251458   0.986   3.256   2.641  0.0951 -0.3935 -0.1820
 9088TIP3    H151459   0.902   3.220   2.612 -0.8123  2.5797 -1.6494
 9088TIP3    H251460   0.975   3.272   2.734 -0.2554 -1.7322  0.0265
 9089TIP3   OH251461   2.624   4.958   3.339  0.1681  0.3716 -0.1096
 9089TIP3    H151462   2.659   4.937   3.253  0.2034  0.1632 -0.0450
 9089TIP3    H251463   2.627   4.875   3.387 -0.6465  0.2846 -0.1842
 9090TIP3   OH251464   6.771   1.281   2.536  0.2344  0.3112  0.1147
 9090TIP3    H151465   6.860   1.297   2.567  0.2700  0.6478 -0.1629
 9090TIP3    H251466   6.759   1.341   2.463 -0.4701  0.7822  0.6042
 9091TIP3   OH251467   4.946   2.847   4.735 -0.4439 -0.4351 -0.0600
 9091TIP3    H151468   4.874   2.784   4.747 -1.5307  0.9853  1.3252
 9091TIP3    H251469   4.910   2.912   4.675 -0.6549  0.7090  1.2636
 9092TIP3   OH251470   3.095   4.637   3.494 -0.1658 -0.1034 -0.1787
 9092TIP3    H151471   3.076   4.561   3.441 -2.1019 -0.3288  0.7645
 9092TIP3    H251472   3.157   4.606   3.560 -1.8895 -1.2333  0.9676
 9093TIP3   OH251473   0.055   4.419   2.997  0.5061  0.5748  0.3086
 9093TIP3    H151474   0.133   4.465   2.966  0.9757  0.4111  1.1958
 9093TIP3    H251475  -0.002   4.489   3.031  0.3796  0.6727 -0.1085
 9094TIP3   OH251476   3.845   6.124   4.716  0.1998 -0.2968 -0.4770
 9094TIP3    H151477   3.841   6.207   4.668 -1.5302  0.2529  0.5219
 9094TIP3    H251478   3.939   6.108   4.728  0.7450  3.4124  2.3128
 9095TIP3   OH251479   0.948   3.434   4.998 -0.4100  0.1762 -0.3894
 9095TIP3    H151480   1.043   3.437   4.989 -0.2929 -1.4622 -0.0125
 9095TIP3    H251481   0.927   3.510   5.052  0.9385 -0.5885  1.3007
 9096TIP3   OH251482   2.388   5.263   2.033 -0.0745  0.5417 -0.2733
 9096TIP3    H151483   2.482   5.268   2.016  0.1886  0.2315  0.9882
 9096TIP3    H251484   2.365   5.171   2.019 -0.4147  0.8047 -1.5789
 9097TIP3   OH251485   1.341   0.765   2.868  0.3348  0.1209  0.1313
 9097TIP3    H151486   1.301   0.717   2.796 -1.1689 -0.2322  1.1589
 9097TIP3    H251487   1.378   0.843   2.827  0.7490 -0.7603 -1.2126
 9098TIP3   OH251488   5.876   6.049   2.928 -0.8580  0.4394 -0.0472
 9098TIP3    H151489   5.786   6.072   2.951 -0.7966  0.3141  0.3186
 9098TIP3    H251490   5.890   5.963   2.968 -0.0072  1.2087  1.4208
 9099TIP3   OH251491   4.339   3.726   2.603 -0.4417  0.4659 -0.0335
 9099TIP3    H151492   4.408   3.666   2.629  0.8538  0.1235 -3.7283
 9099TIP3    H251493   4.382   3.811   2.595 -1.2851  1.0151  0.9134
 9100TIP3   OH251494   2.127   1.133   2.250  0.1110  0.0889  0.5841
 9100TIP3    H151495   2.056   1.113   2.311  0.7873  1.8440  2.0641
 9100TIP3    H251496   2.125   1.228   2.242  0.7499 -0.0271 -1.3224
 9101TIP3   OH251497   3.989   4.164   3.095  0.7047  0.1042  0.2207
 9101TIP3    H151498   4.031   4.184   3.012 -0.1012 -0.2894 -0.2880
 9101TIP3    H251499   4.008   4.071   3.109 -0.4625 -0.2196 -0.2916
 9102TIP3   OH251500   5.631   5.008   3.312 -0.2601 -0.3612 -0.0118
 9102TIP3    H151501   5.717   5.006   3.355  0.0521 -1.1770 -0.6363
 9102TIP3    H251502   5.641   4.948   3.237 -0.8572  0.8058 -1.0578
 9103TIP3   OH251503   4.808   6.715   3.340  0.0384 -0.1247  0.8205
 9103TIP3    H151504   4.778   6.759   3.261  1.2551 -3.1491 -1.5263
 9103TIP3    H251505   4.765   6.630   3.338  0.9758 -0.7213  2.8538
 9104TIP3   OH251506   1.508   4.754   3.240 -0.0294  0.1298  0.0573
 9104TIP3    H151507   1.526   4.744   3.333  0.9420 -0.0091 -0.1331
 9104TIP3    H251508   1.565   4.826   3.212 -1.2062  1.0021 -0.1908
 9105TIP3   OH251509   5.016   6.096   4.357 -0.8882  0.2378 -0.4091
 9105TIP3    H151510   4.946   6.123   4.415 -0.1383  1.7139 -0.1393
 9105TIP3    H251511   5.085   6.063   4.416 -0.2682  1.4064 -0.4497
 9106TIP3   OH251512   2.895   2.165   3.177 -0.3505 -0.2975  0.2120
 9106TIP3    H151513   2.824   2.154   3.113 -0.4030  0.6736  0.0982
 9106TIP3    H251514   2.940   2.081   3.175 -0.6983 -0.4842 -0.6889
 9107TIP3   OH251515   2.329   1.668   3.123  0.1341 -0.3786  0.0308
 9107TIP3    H151516   2.401   1.687   3.064 -0.6204  0.1246 -0.7512
 9107TIP3    H251517   2.312   1.751   3.168 -0.5726 -0.2245 -0.4937
 9108TIP3   OH251518   1.360   0.887   5.150 -0.2481  0.4697  0.0731
 9108TIP3    H151519   1.419   0.895   5.225  1.0290 -4.4006 -0.0332
 9108TIP3    H251520   1.413   0.912   5.075 -0.1236  1.2808  0.4221
 9109TIP3   OH251521   6.011   5.402   2.244  0.2261 -0.3586 -0.2778
 9109TIP3    H151522   5.960   5.395   2.325  2.9102  0.2713  1.5841
 9109TIP3    H251523   6.089   5.349   2.261  2.0100  1.7608 -1.4723
 9110TIP3   OH251524   2.840   3.038   5.106  0.4822  0.1918 -0.0502
 9110TIP3    H151525   2.890   2.988   5.170 -1.5467  0.0520  1.5342
 9110TIP3    H251526   2.771   2.978   5.078  1.3300  0.2417 -2.4615
 9111TIP3   OH251527   1.868   6.726   4.160  0.5151  0.0232 -0.8296
 9111TIP3    H151528   1.934   6.686   4.216  1.2446  1.1882 -0.8196
 9111TIP3    H251529   1.876   6.820   4.177 -1.1096  0.2038 -0.8822
 9112TIP3   OH251530   5.173   1.317   2.918  0.1112  0.3127  0.1702
 9112TIP3    H151531   5.261   1.317   2.958  0.2475 -0.8593 -0.0823
 9112TIP3    H251532   5.126   1.248   2.965 -0.0451 -0.4007 -1.0031
 9113TIP3   OH251533   6.551   1.913   2.787 -0.2694  0.0300  0.1334
 9113TIP3    H151534   6.600   1.944   2.863 -0.9202  1.3818  0.0182
 9113TIP3    H251535   6.483   1.857   2.823 -0.0946  0.0340  0.4683
 9114TIP3   OH251536   5.371   4.716   3.423  0.0010  0.2615  0.1463
 9114TIP3    H151537   5.375   4.752   3.335  1.6078  1.1010  0.5269
 9114TIP3    H251538   5.458   4.677   3.437 -0.0477  0.5828  1.5174
 9115TIP3   OH251539   0.545   2.926   4.367 -0.1777 -0.1234  0.0857
 9115TIP3    H151540   0.619   2.893   4.315 -0.0380  0.5534 -0.1604
 9115TIP3    H251541   0.531   3.015   4.335  0.0374  0.3851  1.3499
 9116TIP3   OH251542   0.370   1.856   2.843  0.4103  0.1662 -1.0361
 9116TIP3    H151543   0.438   1.923   2.836 -0.2279  0.9763  0.0865
 9116TIP3    H251544   0.407   1.791   2.902  0.4033  0.3757 -0.7964
 9117TIP3   OH251545   5.944   0.454   3.491  0.0891 -0.0729  0.0436
 9117TIP3    H151546   6.034   0.421   3.490  0.8303  1.8044 -1.5652
 9117TIP3    H251547   5.890   0.377   3.474  1.3451 -1.2671  1.1892
 9118TIP3   OH251548   5.118   2.365   2.302  0.0255 -0.0268  0.4184
 9118TIP3    H151549   5.131   2.423   2.227  1.0908 -0.5967  0.1477
 9118TIP3    H251550   5.035   2.322   2.285  0.7869 -0.9893 -1.0232
 9119TIP3   OH251551   3.334   4.743   4.344  0.3900  0.1014 -0.0839
 9119TIP3    H151552   3.279   4.818   4.323  0.2662 -0.3900 -1.6116
 9119TIP3    H251553   3.279   4.688   4.400 -0.9347 -0.6799 -2.0791
 9120TIP3   OH251554   4.448   0.590   4.020 -0.6717 -0.2201  0.7042
 9120TIP3    H151555   4.469   0.681   3.999 -0.2743 -0.9266 -2.3288
 9120TIP3    H251556   4.532   0.552   4.047 -0.3966 -0.2148 -0.1380
 9121TIP3   OH251557   0.222   4.274   2.639  0.0168 -0.0326  0.2787
 9121TIP3    H151558   0.267   4.210   2.583  0.9797 -1.0313  2.0930
 9121TIP3    H251559   0.147   4.303   2.587  1.1048 -0.5517 -1.6923
 9122TIP3   OH251560   0.539   3.521   4.094 -0.4078  0.3132 -0.0005
 9122TIP3    H151561   0.541   3.487   4.183 -0.2492 -1.1629 -0.5353
 9122TIP3    H251562   0.619   3.572   4.085  0.9682 -1.7639 -0.1003
 9123TIP3   OH251563   1.889   5.707   2.834  0.1460  0.0495  0.1484
 9123TIP3    H151564   1.802   5.724   2.799 -0.4536  0.2970  1.6846
 9123TIP3    H251565   1.931   5.794   2.836 -0.3870  0.2956  1.4583
 9124TIP3   OH251566   5.279   6.723   3.398  0.1015  0.0645 -0.6507
 9124TIP3    H151567   5.275   6.763   3.485  1.2580  1.3746 -1.1736
 9124TIP3    H251568   5.291   6.629   3.415  2.1439  0.5105  0.6341
 9125TIP3   OH251569   3.916   3.679   2.808  0.0850 -0.2243  0.4346
 9125TIP3    H151570   3.956   3.638   2.731 -0.7604 -0.7710  0.2697
 9125TIP3    H251571   3.823   3.689   2.784  0.5648  3.8156 -0.3996
 9126TIP3   OH251572   3.187   0.991   2.285 -0.4289 -0.3176  0.2052
 9126TIP3    H151573   3.147   0.913   2.244  0.5324 -0.8217  0.2121
 9126TIP3    H251574   3.172   0.979   2.378 -1.9583  0.4636  0.1010
 9127TIP3   OH251575   0.622   3.944   3.142 -0.7672  0.7938  0.2765
 9127TIP3    H151576   0.639   3.871   3.082  1.5147 -0.0858  1.8629
 9127TIP3    H251577   0.530   3.933   3.167 -1.1110 -0.1690 -1.2855
 9128TIP3   OH251578   5.280   6.792   2.788 -0.0457  1.0412 -0.3218
 9128TIP3    H151579   5.328   6.711   2.773  0.8202  1.1311  1.6577
 9128TIP3    H251580   5.298   6.846   2.711  0.0900 -0.2798 -1.2464
 9129TIP3   OH251581   2.800   5.684   2.832  0.4201 -0.2237 -0.5676
 9129TIP3    H151582   2.876   5.631   2.807  0.1019 -1.0102  0.0761
 9129TIP3    H251583   2.728   5.647   2.782  0.4084  0.3391 -0.9658
 9130TIP3   OH251584   2.517   1.154   3.634  0.5208 -0.2250 -0.1144
 9130TIP3    H151585   2.476   1.230   3.593  0.2398 -0.4268 -0.2145
 9130TIP3    H251586   2.506   1.169   3.728  1.3750  0.3520 -0.1033
 9131TIP3   OH251587   4.922   1.851   3.067  0.2044 -0.4702 -0.1982
 9131TIP3    H151588   4.831   1.874   3.089  0.4378  0.0198  0.2686
 9131TIP3    H251589   4.915   1.806   2.982 -0.6222 -1.6998  0.4909
 9132TIP3   OH251590   6.797   4.468   3.817  0.4188 -0.2749 -0.0204
 9132TIP3    H151591   6.838   4.383   3.828  0.6094 -0.1255  0.4591
 9132TIP3    H251592   6.837   4.505   3.738 -0.8287 -1.2967 -1.1759
 9133TIP3   OH251593   1.330   4.907   2.954 -0.1162  0.4806  0.4430
 9133TIP3    H151594   1.302   4.994   2.983 -0.4958  0.9572 -1.2526
 9133TIP3    H251595   1.286   4.846   3.013 -0.9348  1.4058  0.7963
 9134TIP3   OH251596   1.977   1.948   4.081  0.0131 -0.7011  0.4149
 9134TIP3    H151597   1.895   1.947   4.033  0.6906 -1.6789 -0.7854
 9134TIP3    H251598   2.045   1.940   4.013  0.9583 -4.2929  1.5753
 9135TIP3   OH251599   5.248   6.080   2.462  0.2760 -0.7560  0.3383
 9135TIP3    H151600   5.257   6.012   2.395 -0.5770  0.2184 -0.8028
 9135TIP3    H251601   5.334   6.085   2.503  1.0566 -0.8214 -1.2296
 9136TIP3   OH251602   6.528   2.508   3.934  0.3195  0.1347 -0.1612
 9136TIP3    H151603   6.554   2.539   3.848  1.0568  0.1545  0.0642
 9136TIP3    H251604   6.449   2.456   3.918  1.6562 -1.7113 -1.1589
 9137TIP3   OH251605   3.558   0.040   4.219 -0.0962 -0.1727 -0.1992
 9137TIP3    H151606   3.651   0.057   4.209 -0.4076  1.5405 -0.5364
 9137TIP3    H251607   3.525   0.028   4.130 -0.3873  0.4190 -0.1775
 9138TIP3   OH251608   6.759   5.391   2.571  0.1618  0.0002 -0.4073
 9138TIP3    H151609   6.768   5.297   2.583  0.7317 -0.0102 -0.8687
 9138TIP3    H251610   6.844   5.420   2.538  0.4750  0.9179  1.1008
 9139TIP3   OH251611   0.538   1.717   3.020  0.1691 -0.0252  0.3387
 9139TIP3    H151612   0.592   1.716   3.099  1.7676  2.0469 -0.6275
 9139TIP3    H251613   0.598   1.690   2.950 -0.3351  1.1992 -0.5936
 9140TIP3   OH251614   0.094   6.430   3.678 -0.0524 -0.3283  0.0457
 9140TIP3    H151615   0.064   6.521   3.683  3.1733  0.8431  0.4408
 9140TIP3    H251616   0.110   6.415   3.585 -1.4839 -0.8669 -0.1349
 9141TIP3   OH251617   5.596   3.318   2.448 -0.2122 -0.1272  0.3363
 9141TIP3    H151618   5.686   3.350   2.439 -0.3846  0.5157  0.7674
 9141TIP3    H251619   5.581   3.266   2.370  0.1527  0.7094 -0.3091
 9142TIP3   OH251620   0.583   1.010   5.261 -0.2576 -0.4458 -0.3164
 9142TIP3    H151621   0.667   1.026   5.302 -0.8803  0.6615  0.5819
 9142TIP3    H251622   0.571   1.082   5.199 -0.8774 -0.1592  0.1248
 9143TIP3   OH251623   1.359   5.848   4.053  0.0893  0.3656 -0.0862
 9143TIP3    H151624   1.413   5.784   4.006  1.4517  1.3802  0.0193
 9143TIP3    H251625   1.336   5.804   4.134 -2.2491 -1.3921 -1.5801
 9144TIP3   OH251626   1.430   2.815   3.990 -0.3954  0.3661  0.0636
 9144TIP3    H151627   1.433   2.802   4.085 -0.0943  0.4099  0.0620
 9144TIP3    H251628   1.474   2.899   3.976 -2.2022  1.3643  0.0561
 9145TIP3   OH251629   2.152   0.184   4.783 -0.1341 -0.3082  0.1422
 9145TIP3    H151630   2.212   0.115   4.756 -0.0424 -0.7249  1.3516
 9145TIP3    H251631   2.105   0.147   4.858 -0.2661  0.8435  0.6554
 9146TIP3   OH251632   2.203   4.344   5.550 -0.4406  0.5327 -0.1920
 9146TIP3    H151633   2.141   4.411   5.521 -0.3398 -0.6084 -3.4872
 9146TIP3    H251634   2.148   4.269   5.573 -0.4298  0.2020 -1.1682
 9147TIP3   OH251635   4.899   1.235   3.256  0.1079 -0.0784  0.3985
 9147TIP3    H151636   4.966   1.192   3.202  0.7074  0.3327  0.8100
 9147TIP3    H251637   4.895   1.182   3.336  0.3143  0.1969  0.5921
 9148TIP3   OH251638   3.379   6.770   1.810  0.0153 -0.2687  0.3223
 9148TIP3    H151639   3.434   6.793   1.735  2.0686 -1.5978  1.3206
 9148TIP3    H251640   3.436   6.719   1.867 -0.8704  2.2170  3.7260
 9149TIP3   OH251641   3.224   2.192   3.132  0.3633 -0.4343 -0.1911
 9149TIP3    H151642   3.232   2.230   3.045 -0.2249  1.6038  0.5924
 9149TIP3    H251643   3.165   2.117   3.121 -1.7697  1.3033 -1.1377
 9150TIP3   OH251644   0.888   4.844   2.933 -0.0168  0.3358  0.2469
 9150TIP3    H151645   0.890   4.935   2.964  2.8482  1.0868 -1.6651
 9150TIP3    H251646   0.883   4.791   3.012 -0.5827  2.1286  1.4849
 9151TIP3   OH251647   3.849   5.777   3.859  0.1941  0.5251 -0.6452
 9151TIP3    H151648   3.825   5.817   3.775 -1.0522  1.5590  0.1643
 9151TIP3    H251649   3.791   5.701   3.866  0.8618 -0.0302 -1.0770
 9152TIP3   OH251650   0.344   4.564   3.993 -0.2097  0.0179 -0.2825
 9152TIP3    H151651   0.273   4.576   4.056 -1.3584 -1.1719 -1.2806
 9152TIP3    H251652   0.378   4.476   4.011  1.7644  0.9579  0.8713
 9153TIP3   OH251653   3.233   2.900   4.503 -0.1082  0.1565  0.1006
 9153TIP3    H151654   3.171   2.941   4.444  0.3435 -0.1288 -0.5926
 9153TIP3    H251655   3.226   2.950   4.584 -0.4204  0.8400 -0.3351
 9154TIP3   OH251656   0.900   3.230   4.114  0.2504  0.1185 -0.4387
 9154TIP3    H151657   0.827   3.212   4.055  1.3497 -1.1655 -1.4921
 9154TIP3    H251658   0.943   3.145   4.126 -1.5635 -0.3991  4.6540
 9155TIP3   OH251659   1.069   2.328   2.605  0.3628  0.0047 -0.1643
 9155TIP3    H151660   1.071   2.247   2.655 -2.8694 -0.3460 -0.4117
 9155TIP3    H251661   1.106   2.304   2.520  0.0932 -1.0180 -0.0054
 9156TIP3   OH251662   1.390   4.249   4.679 -0.1925  0.3270 -0.1565
 9156TIP3    H151663   1.415   4.203   4.760 -1.1917  2.8765  1.7590
 9156TIP3    H251664   1.334   4.320   4.710 -2.7928 -0.1169 -3.3967
 9157TIP3   OH251665   1.341   1.017   4.351  0.4681 -0.0799  0.3570
 9157TIP3    H151666   1.270   0.992   4.292 -0.6684  2.3742  0.5492
 9157TIP3    H251667   1.359   0.938   4.401 -0.8660 -1.2866 -0.9483
 9158TIP3   OH251668   3.543   0.060   2.093  0.1760 -0.2366 -0.0454
 9158TIP3    H151669   3.526  -0.029   2.122  0.2756 -1.2194 -2.7271
 9158TIP3    H251670   3.602   0.050   2.018  1.1049  2.1774  0.2742
 9159TIP3   OH251671   6.685   1.710   3.679 -0.2303  0.4690  0.6844
 9159TIP3    H151672   6.771   1.729   3.641 -0.6658  0.8634 -0.1517
 9159TIP3    H251673   6.629   1.781   3.647 -0.4305  1.3726  2.8638
 9160TIP3   OH251674   0.944   5.122   3.113  0.0866  0.0124 -0.4356
 9160TIP3    H151675   0.974   5.051   3.170  1.2664  1.7284  1.2343
 9160TIP3    H251676   1.022   5.145   3.061  0.1153  0.9089 -0.0190
 9161TIP3   OH251677   1.299   3.804   4.549 -0.2162 -0.0565 -0.4686
 9161TIP3    H151678   1.330   3.833   4.464 -0.0016 -1.6062 -0.9440
 9161TIP3    H251679   1.283   3.885   4.598  2.2902  0.8358 -1.0155
 9162TIP3   OH251680   5.902   0.046   4.139  0.2281 -0.3202 -0.2614
 9162TIP3    H151681   5.876   0.117   4.080  0.2033  1.7286  2.0360
 9162TIP3    H251682   5.872   0.075   4.225  1.7998 -2.3205  1.0526
 9163TIP3   OH251683   6.467   5.146   3.405 -0.1666  0.2213  0.2259
 9163TIP3    H151684   6.546   5.162   3.355  0.1098  1.8332  1.0975
 9163TIP3    H251685   6.490   5.075   3.465  1.2204  1.7520  1.6141
 9164TIP3   OH251686   0.427   2.222   4.114  0.2378 -0.1119  0.0048
 9164TIP3    H151687   0.346   2.237   4.161  0.3479 -0.5379  0.3428
 9164TIP3    H251688   0.490   2.284   4.151 -0.0376  0.5000 -0.5413
 9165TIP3   OH251689   6.411   0.854   5.373 -0.4072 -0.4176  0.0036
 9165TIP3    H151690   6.372   0.799   5.306  0.1563  1.7028 -2.1951
 9165TIP3    H251691   6.479   0.799   5.413  1.9968 -0.6634 -3.9191
 9166TIP3   OH251692   1.307   1.790   3.448 -0.5130 -0.0532  0.1153
 9166TIP3    H151693   1.355   1.759   3.372  0.3320 -0.6781  0.8875
 9166TIP3    H251694   1.320   1.722   3.514 -0.5154  0.8871  1.1000
 9167TIP3   OH251695   4.846   4.748   2.029  0.9314  0.4166  0.2783
 9167TIP3    H151696   4.932   4.707   2.019  0.9501  0.7565 -1.2002
 9167TIP3    H251697   4.784   4.679   2.004  0.7894  0.3513  0.7898
 9168TIP3   OH251698   5.001   6.092   3.506  0.2943  0.0784 -0.7565
 9168TIP3    H151699   5.057   6.125   3.435  0.8650 -1.5822 -1.1329
 9168TIP3    H251700   5.061   6.046   3.565 -0.5667 -1.2838 -0.8901
 9169TIP3   OH251701   4.029   0.101   5.082 -0.8400  0.5313 -0.3030
 9169TIP3    H151702   4.056   0.019   5.122 -0.9067 -0.2078 -1.6968
 9169TIP3    H251703   3.933   0.099   5.084 -0.8410  0.7148 -0.0859
 9170TIP3   OH251704   3.737   4.619   4.452 -0.9148 -0.3504 -0.5494
 9170TIP3    H151705   3.691   4.582   4.377 -0.4174 -0.3639 -0.8549
 9170TIP3    H251706   3.828   4.590   4.441 -0.8455 -0.3879  0.0799
 9171TIP3   OH251707   1.382   5.548   3.720 -0.0521 -0.2139  0.9029
 9171TIP3    H151708   1.405   5.458   3.699 -2.4943 -0.9784  1.2471
 9171TIP3    H251709   1.441   5.571   3.792  1.3817 -1.0936  0.0631
 9172TIP3   OH251710   1.703   0.748   2.640 -0.3262  0.1106 -0.3223
 9172TIP3    H151711   1.747   0.668   2.612 -0.6169 -0.2557  0.2337
 9172TIP3    H251712   1.613   0.720   2.659  0.1081  0.0703  2.0136
 9173TIP3   OH251713   0.764   0.805   5.199 -0.0783  0.3322  0.0740
 9173TIP3    H151714   0.677   0.842   5.214 -0.3613  0.1154 -0.9380
 9173TIP3    H251715   0.799   0.789   5.286 -2.6636 -3.2860  0.7137
 9174TIP3   OH251716   1.255   6.291   1.901 -0.3129  0.6068  0.0122
 9174TIP3    H151717   1.232   6.219   1.959 -0.6770  1.1551  0.5553
 9174TIP3    H251718   1.348   6.308   1.919 -0.5575  1.1302  0.8422
 9175TIP3   OH251719   5.282   4.969   2.846 -0.3841  0.0073  0.5011
 9175TIP3    H151720   5.203   5.020   2.867 -0.7822 -0.0644 -0.6977
 9175TIP3    H251721   5.354   5.022   2.879 -0.9472 -0.2267  2.2078
 9176TIP3   OH251722   3.134   0.641   2.624 -0.5780  0.4488 -0.5072
 9176TIP3    H151723   3.107   0.597   2.543 -2.4645 -0.0058  0.3286
 9176TIP3    H251724   3.089   0.725   2.623 -1.5389 -0.0223  0.5660
 9177TIP3   OH251725   3.273   6.381   5.388  0.2266 -0.4457  0.0433
 9177TIP3    H151726   3.313   6.427   5.314  0.1927  0.9595  0.8850
 9177TIP3    H251727   3.305   6.291   5.379 -0.2550 -0.4670 -2.0309
 9178TIP3   OH251728   0.971   2.517   3.102 -0.0001  0.2852  0.1202
 9178TIP3    H151729   0.913   2.518   3.179 -0.4760  0.7918 -0.2425
 9178TIP3    H251730   1.017   2.433   3.108 -1.9596 -0.8833 -0.4624
 9179TIP3   OH251731   2.115   2.157   3.232 -0.6172 -0.2227 -0.1741
 9179TIP3    H151732   2.154   2.216   3.296  2.3927 -3.5849  1.4804
 9179TIP3    H251733   2.060   2.099   3.285 -1.0366 -0.8200 -1.2330
 9180TIP3   OH251734   3.236   4.320   4.297  0.7425 -0.2463  0.0824
 9180TIP3    H151735   3.328   4.337   4.319  0.4942  1.5348 -0.1106
 9180TIP3    H251736   3.189   4.398   4.327 -0.7919 -1.3274  0.5918
 9181TIP3   OH251737   3.364   2.554   5.534  0.0048 -0.0661 -0.5631
 9181TIP3    H151738   3.278   2.561   5.493  0.4409  1.0918 -1.3314
 9181TIP3    H251739   3.422   2.605   5.477  0.5300  2.2708  1.8496
 9182TIP3   OH251740   6.224   3.695   3.491 -0.3647  0.3201  0.0409
 9182TIP3    H151741   6.234   3.696   3.396 -0.0586  0.0679  0.0691
 9182TIP3    H251742   6.304   3.654   3.523 -0.6882 -0.0605  0.3781
 9183TIP3   OH251743   6.033   1.949   2.429 -0.3624  0.0090  0.2469
 9183TIP3    H151744   6.128   1.938   2.436 -0.5248 -2.2692 -0.1549
 9183TIP3    H251745   5.997   1.869   2.467 -1.9406 -1.0459 -3.0412
 9184TIP3   OH251746   2.564   2.347   4.095  0.0475  0.1114  0.3001
 9184TIP3    H151747   2.612   2.393   4.026 -0.7535  0.4660 -0.0435
 9184TIP3    H251748   2.601   2.260   4.096  0.4143  0.2523 -0.2473
 9185TIP3   OH251749   3.833   3.054   2.309 -0.1300  0.1748  0.4962
 9185TIP3    H151750   3.821   3.029   2.217  1.5037 -0.6364  0.4658
 9185TIP3    H251751   3.777   2.994   2.358 -0.6499  0.2988  0.0604
 9186TIP3   OH251752   6.121   1.431   2.486  0.1394 -0.4054 -0.4475
 9186TIP3    H151753   6.069   1.431   2.406 -0.2958  0.7862 -0.1760
 9186TIP3    H251754   6.120   1.522   2.517  1.7220 -0.4906 -0.0044
 9187TIP3   OH251755   6.259   4.960   3.987 -0.2946  0.0883 -0.5151
 9187TIP3    H151756   6.242   4.958   3.892 -2.7958 -1.8408 -0.1452
 9187TIP3    H251757   6.196   5.024   4.021 -1.1471 -1.0220  0.0535
 9188TIP3   OH251758   2.755   4.803   2.546  0.5192  0.1825  0.0627
 9188TIP3    H151759   2.683   4.801   2.483 -0.5465 -4.8085  1.0315
 9188TIP3    H251760   2.814   4.733   2.516  1.6484 -0.1195  2.7655
 9189TIP3   OH251761   5.124   1.292   2.624 -0.3980 -0.2446  0.8751
 9189TIP3    H151762   5.114   1.293   2.719 -1.8363 -0.3821  0.7441
 9189TIP3    H251763   5.044   1.331   2.590  1.3348  2.6250 -0.2492
 9190TIP3   OH251764   5.918   3.881   2.335 -0.0659 -0.8308  0.1302
 9190TIP3    H151765   5.930   3.976   2.333  3.1805 -1.1342 -1.1600
 9190TIP3    H251766   5.944   3.855   2.424  1.7517 -0.6801 -0.3095
 9191TIP3   OH251767   6.511   6.607   3.457 -0.1214  0.3100 -0.8629
 9191TIP3    H151768   6.574   6.663   3.411  0.8713  0.0649  0.1705
 9191TIP3    H251769   6.548   6.595   3.544 -0.9936 -0.8568 -0.6258
 9192TIP3   OH251770   6.327   1.095   4.154  0.0783  0.2546  0.1351
 9192TIP3    H151771   6.355   1.022   4.209 -0.5446 -0.5315 -0.5740
 9192TIP3    H251772   6.232   1.098   4.165 -0.1197 -0.2691 -1.3112
 9193TIP3   OH251773   4.622   3.492   3.922  0.1877  0.2872  0.4750
 9193TIP3    H151774   4.704   3.529   3.956  1.0259 -1.7529  0.8059
 9193TIP3    H251775   4.648   3.411   3.878 -1.4903  0.3764 -0.8038
 9194TIP3   OH251776   4.692   0.477   4.639 -0.0724 -0.4343 -0.5261
 9194TIP3    H151777   4.609   0.430   4.639  0.0617 -0.6864 -0.0271
 9194TIP3    H251778   4.753   0.417   4.596 -0.3696  0.1762 -1.8214
 9195TIP3   OH251779   0.338   2.793   4.221  0.5552  0.2714 -0.2509
 9195TIP3    H151780   0.405   2.829   4.280  0.4067  1.2474 -0.6647
 9195TIP3    H251781   0.255   2.810   4.265  0.3867  1.6869 -1.0563
 9196TIP3   OH251782   2.992   2.670   2.944 -0.8633  0.1488 -0.2052
 9196TIP3    H151783   2.971   2.579   2.964  0.8817 -0.6798 -1.7576
 9196TIP3    H251784   2.917   2.720   2.975 -1.7151 -1.7734  1.0052
 9197TIP3   OH251785   1.028   5.136   2.822 -0.3185  0.1193 -0.0617
 9197TIP3    H151786   0.942   5.152   2.861 -0.9872 -1.8849 -0.6165
 9197TIP3    H251787   1.010   5.127   2.728  0.5512 -0.0348 -0.2139
 9198TIP3   OH251788   5.732   6.330   3.841  0.1169  0.1536 -0.5873
 9198TIP3    H151789   5.775   6.280   3.910  1.7007  0.8981 -0.9989
 9198TIP3    H251790   5.803   6.366   3.789 -0.9525 -1.5648 -3.5292
 9199TIP3   OH251791   2.184   4.647   2.307  0.1472  0.3578  0.2264
 9199TIP3    H151792   2.091   4.633   2.320  0.5096 -0.6938  2.0724
 9199TIP3    H251793   2.215   4.683   2.390  1.7730 -1.6640  0.5988
 9200TIP3   OH251794   3.863   2.475   2.703 -0.6663 -0.0870 -0.3219
 9200TIP3    H151795   3.854   2.559   2.658 -0.1782  0.2434  0.1809
 9200TIP3    H251796   3.882   2.498   2.794  1.6173 -0.6886 -0.5782
 9201TIP3   OH251797   5.268   5.166   5.206  0.2999 -0.6372  0.4114
 9201TIP3    H151798   5.297   5.240   5.153  0.6812 -0.6284  0.6265
 9201TIP3    H251799   5.326   5.094   5.180 -0.6618 -1.1145 -0.4637
 9202TIP3   OH251800   0.417   2.405   3.697 -0.3703  1.2857 -0.2538
 9202TIP3    H151801   0.436   2.363   3.613 -2.9469  0.0523 -0.3204
 9202TIP3    H251802   0.377   2.488   3.673 -1.4197  0.7843 -0.2896
 9203TIP3   OH251803   0.869   0.404   2.413 -0.1810 -0.0234 -0.2564
 9203TIP3    H151804   0.947   0.374   2.366  0.0690 -0.7382  0.5862
 9203TIP3    H251805   0.902   0.434   2.498 -0.8602 -0.7509  0.2833
 9204TIP3   OH251806   1.007   4.827   5.291  0.2807  0.2602 -0.3901
 9204TIP3    H151807   1.087   4.775   5.301  1.0353  1.5963  0.9505
 9204TIP3    H251808   0.942   4.782   5.343  0.6310  0.0895 -0.0963
 9205TIP3   OH251809   1.379   1.059   3.829  0.1667  0.3599  0.1197
 9205TIP3    H151810   1.315   1.121   3.794  1.1081  0.5792 -1.3180
 9205TIP3    H251811   1.447   1.114   3.868  0.8657  0.2595 -0.9083
 9206TIP3   OH251812   4.437   1.446   4.990 -1.1253  0.5026  0.0262
 9206TIP3    H151813   4.348   1.416   5.011 -1.5222  1.7102  0.1228
 9206TIP3    H251814   4.447   1.427   4.897 -0.4348 -2.1843  0.5694
 9207TIP3   OH251815   6.464   0.525   2.308  0.6089 -0.1168 -0.1051
 9207TIP3    H151816   6.467   0.500   2.400  2.2626  0.1711 -0.0447
 9207TIP3    H251817   6.501   0.449   2.261 -0.0425 -0.1877 -0.5097
 9208TIP3   OH251818   5.227   0.029   2.038  0.5094 -0.2568  0.3681
 9208TIP3    H151819   5.214   0.017   2.132 -1.5635 -0.0786  0.1386
 9208TIP3    H251820   5.139   0.031   2.001  1.1460  2.2553 -1.2696
 9209TIP3   OH251821   1.310   2.394   3.163 -0.5098 -0.1519 -0.6187
 9209TIP3    H151822   1.270   2.425   3.244 -1.2960 -0.7215 -0.7760
 9209TIP3    H251823   1.396   2.436   3.161 -0.5948  0.0900  0.3610
 9210TIP3   OH251824   5.125   2.183   3.567  0.0416  0.3020  0.0195
 9210TIP3    H151825   5.190   2.124   3.528  1.8336  1.2244  1.4745
 9210TIP3    H251826   5.118   2.154   3.658 -0.8374  0.8585  0.1392
 9211TIP3   OH251827   5.034   3.507   2.321  0.8595 -0.0371 -0.0084
 9211TIP3    H151828   5.080   3.580   2.362  0.0672 -0.2478  1.3144
 9211TIP3    H251829   4.973   3.476   2.388 -1.2560  0.2541 -1.6550
 9212TIP3   OH251830   3.119   6.604   2.322  0.2525  1.1128  0.1562
 9212TIP3    H151831   3.172   6.679   2.296  1.8282 -0.6658 -2.1202
 9212TIP3    H251832   3.053   6.596   2.254  1.1978 -0.5350 -0.6335
 9213TIP3   OH251833   5.071   1.116   4.666 -0.1829  0.6485  0.1368
 9213TIP3    H151834   5.090   1.116   4.572 -0.8361 -2.8772 -0.1403
 9213TIP3    H251835   5.147   1.159   4.706  0.4304  1.6079 -1.9213
 9214TIP3   OH251836   5.343   1.967   3.014 -0.2711  0.1301 -0.3679
 9214TIP3    H151837   5.297   1.883   3.022 -0.6202  0.4125  0.8095
 9214TIP3    H251838   5.383   1.964   2.927  1.5909 -2.1954  0.4432
 9215TIP3   OH251839   5.670   4.919   3.648 -0.2756  0.2829 -0.1422
 9215TIP3    H151840   5.619   4.857   3.700  0.2393 -0.7833 -0.8816
 9215TIP3    H251841   5.710   4.866   3.579  1.4420  1.1644  0.1205
 9216TIP3   OH251842   5.743   1.509   3.794  0.3466 -0.2506 -0.5290
 9216TIP3    H151843   5.796   1.504   3.715 -1.3357  0.5568 -1.7668
 9216TIP3    H251844   5.792   1.567   3.852  1.2297 -0.2285 -1.2619
 9217TIP3   OH251845   3.728   6.536   3.373 -0.4515 -0.2168  0.0820
 9217TIP3    H151846   3.790   6.508   3.441  0.3248  1.7290  0.2363
 9217TIP3    H251847   3.648   6.556   3.421 -0.3136 -0.0711  0.2554
 9218TIP3   OH251848   2.686   1.209   2.942  0.1122  0.6029 -0.6037
 9218TIP3    H151849   2.615   1.159   2.982  1.1774 -1.0738 -0.7338
 9218TIP3    H251850   2.766   1.167   2.973  1.0782  2.3470 -0.5959
 9219TIP3   OH251851   0.666   0.158   2.149  0.4053 -0.6842  0.4126
 9219TIP3    H151852   0.756   0.188   2.137  0.6990 -1.9693 -0.9695
 9219TIP3    H251853   0.612   0.228   2.111  0.7056  0.6328  2.2936
 9220TIP3   OH251854   0.248   1.270   2.476 -0.0919 -0.1212 -0.4109
 9220TIP3    H151855   0.272   1.349   2.427  0.2248  0.1582  0.1760
 9220TIP3    H251856   0.227   1.205   2.409  0.9665  0.0435 -0.9274
 9221TIP3   OH251857   1.826   5.548   3.184  0.1965 -0.9669  0.0765
 9221TIP3    H151858   1.827   5.499   3.102 -1.2972 -1.4349  0.3059
 9221TIP3    H251859   1.913   5.589   3.189  0.7104 -1.8532 -1.1633
 9222TIP3   OH251860   0.996   1.599   4.830 -0.2989  0.2321  0.0049
 9222TIP3    H151861   0.932   1.546   4.876 -1.4963  1.7410  0.1659
 9222TIP3    H251862   1.012   1.673   4.889 -0.1290  1.0243 -1.0009
 9223TIP3   OH251863   6.725   3.689   4.591 -0.0602 -0.5434  0.6633
 9223TIP3    H151864   6.815   3.656   4.586 -0.0617 -0.4051 -0.8877
 9223TIP3    H251865   6.699   3.700   4.499 -1.1996  0.6792  1.1054
 9224TIP3   OH251866   3.027   1.971   3.071 -0.1124  0.4885 -0.1769
 9224TIP3    H151867   3.073   1.888   3.076  1.1726  1.2050  0.3038
 9224TIP3    H251868   3.002   1.980   2.979  0.2898 -0.1290 -0.3465
 9225TIP3   OH251869   2.924   6.549   4.218 -0.3221  0.0596  0.2786
 9225TIP3    H151870   2.901   6.531   4.127 -0.7336  0.3617  0.3198
 9225TIP3    H251871   3.016   6.524   4.225  0.5403  2.5853 -0.9436
 9226TIP3   OH251872   1.816   2.773   3.839  0.2348  0.1224  0.0500
 9226TIP3    H151873   1.753   2.702   3.847 -0.5880  0.6488 -1.3314
 9226TIP3    H251874   1.800   2.828   3.915 -1.3840  0.5259 -0.5328
 9227TIP3   OH251875   4.791   5.836   2.606 -0.3740 -0.5755  0.6350
 9227TIP3    H151876   4.763   5.928   2.609  0.0171 -0.3542 -1.1855
 9227TIP3    H251877   4.866   5.832   2.666 -1.1025 -0.0051  1.6243
 9228TIP3   OH251878   5.313   5.409   2.596  0.4061 -0.0108 -0.1108
 9228TIP3    H151879   5.392   5.449   2.560  0.5116  1.5597  1.7349
 9228TIP3    H251880   5.336   5.387   2.686 -0.7825 -1.0336 -0.0262
 9229TIP3   OH251881   6.120   3.389   2.828  0.1807  0.2891 -0.2118
 9229TIP3    H151882   6.034   3.348   2.825  0.3209  0.0245 -1.0241
 9229TIP3    H251883   6.179   3.319   2.858  0.1930  0.3162 -0.1729
 9230TIP3   OH251884   3.650   2.709   3.619 -0.3938 -0.5360  0.5771
 9230TIP3    H151885   3.631   2.713   3.525 -0.6162 -0.4889  0.6235
 9230TIP3    H251886   3.608   2.628   3.648  2.0715 -2.1053  0.0937
 9231TIP3   OH251887   0.606   5.908   5.043  0.0518 -0.2413  0.1483
 9231TIP3    H151888   0.515   5.902   5.013  0.3121 -0.3505 -0.6346
 9231TIP3    H251889   0.602   5.887   5.136 -1.1141  2.3559  0.7966
 9232TIP3   OH251890   1.461   4.862   4.557 -0.4536  0.1786  0.0048
 9232TIP3    H151891   1.539   4.807   4.561  0.1379  1.0513  1.7972
 9232TIP3    H251892   1.479   4.926   4.489  1.5329  1.9000  2.0157
 9233TIP3   OH251893   2.393   0.906   3.535 -0.0856 -0.6083  0.6872
 9233TIP3    H151894   2.441   0.985   3.560 -0.8745  0.8324 -1.9220
 9233TIP3    H251895   2.369   0.866   3.618 -0.5500  2.4500  2.1954
 9234TIP3   OH251896   4.249   2.986   4.902 -0.8384  0.0431 -0.1507
 9234TIP3    H151897   4.193   2.950   4.970 -1.2349  0.6248 -0.1576
 9234TIP3    H251898   4.318   3.032   4.950 -0.3098 -0.7419 -0.1414
 9235TIP3   OH251899   5.010   4.864   2.216 -0.0307  0.6546 -0.2950
 9235TIP3    H151900   4.939   4.812   2.177  0.4199  1.4000 -2.1874
 9235TIP3    H251901   4.972   4.950   2.230 -0.4919  0.1588  1.9798
 9236TIP3   OH251902   2.071   4.362   2.834  0.1345 -0.0867  0.2625
 9236TIP3    H151903   2.104   4.416   2.906  0.4520  0.3707 -0.2183
 9236TIP3    H251904   1.991   4.406   2.805  0.0965 -0.1773  0.2307
 9237TIP3   OH251905   0.333   4.457   3.627 -0.5276 -0.0488  0.4383
 9237TIP3    H151906   0.306   4.468   3.536  1.9345 -1.1034 -0.4965
 9237TIP3    H251907   0.332   4.545   3.664 -1.0473  0.4632 -0.7554
 9238TIP3   OH251908   3.435   2.641   2.546  0.4640 -0.1382 -0.1333
 9238TIP3    H151909   3.357   2.588   2.563 -0.2958  0.9342 -0.2148
 9238TIP3    H251910   3.401   2.723   2.511  1.5428  0.9213  1.2259
 9239TIP3   OH251911   4.896   3.182   2.703  0.2772  0.7114 -0.8067
 9239TIP3    H151912   4.985   3.159   2.677  1.3572  2.0361  1.4750
 9239TIP3    H251913   4.878   3.265   2.660  1.1163  1.6597  0.6067
 9240TIP3   OH251914   5.922   0.907   3.759  0.1371 -0.1871 -0.3162
 9240TIP3    H151915   5.887   0.914   3.670  0.8190 -0.7273 -0.6409
 9240TIP3    H251916   5.955   0.994   3.779  0.8716 -0.2971 -0.9870
 9241TIP3   OH251917   1.557   0.044   2.517 -0.3609  0.4743  0.6577
 9241TIP3    H151918   1.521  -0.035   2.476 -0.5682  0.9835 -0.1818
 9241TIP3    H251919   1.499   0.114   2.487 -1.5348  0.6903  3.1372
 9242TIP3   OH251920   2.657   0.151   2.740  0.3121 -0.7451 -0.1069
 9242TIP3    H151921   2.734   0.169   2.794  1.3359 -1.0370 -1.4221
 9242TIP3    H251922   2.596   0.106   2.799  0.2240  1.3957  1.5343
 9243TIP3   OH251923   0.082   0.570   3.375 -0.2087 -0.8818 -0.4375
 9243TIP3    H151924   0.050   0.657   3.352  0.9228 -0.1508  0.6643
 9243TIP3    H251925   0.174   0.570   3.350 -0.4242 -2.1403 -1.3685
 9244TIP3   OH251926   6.333   6.848   4.253  0.5073 -0.0474  0.0338
 9244TIP3    H151927   6.308   6.831   4.162  0.9617  1.3240 -0.3559
 9244TIP3    H251928   6.316   6.765   4.297 -0.0552 -0.6334 -1.2233
 9245TIP3   OH251929   3.548   4.514   4.227 -0.0945  0.3478  0.1754
 9245TIP3    H151930   3.538   4.592   4.172  0.1134  0.4198  0.2395
 9245TIP3    H251931   3.461   4.502   4.266 -0.8511 -0.9239 -1.7549
 9246TIP3   OH251932   1.645   5.919   2.226 -0.1398 -0.1695 -0.1322
 9246TIP3    H151933   1.705   5.847   2.243 -0.7720 -0.4861  0.8220
 9246TIP3    H251934   1.558   5.879   2.221 -0.4425  0.4597 -0.1016
 9247TIP3   OH251935   5.476   4.706   4.672 -0.1440 -0.2001 -0.3122
 9247TIP3    H151936   5.487   4.777   4.609 -1.9561 -0.8617 -1.4754
 9247TIP3    H251937   5.489   4.747   4.758 -0.8182  1.4627 -0.9678
 9248TIP3   OH251938   4.408   3.561   2.119 -0.3673  0.6319  0.2700
 9248TIP3    H151939   4.379   3.530   2.033  0.0570  0.8691  0.0354
 9248TIP3    H251940   4.330   3.558   2.174 -1.0036  1.9510 -0.5383
 9249TIP3   OH251941   5.190   4.494   2.163  0.6052 -0.3599  0.1654
 9249TIP3    H151942   5.218   4.565   2.104 -0.1245 -0.0937  0.1259
 9249TIP3    H251943   5.113   4.529   2.207 -1.1465 -1.8884 -1.4739
 9250TIP3   OH251944   2.407   6.026   4.334 -0.4812  0.0278 -0.4333
 9250TIP3    H151945   2.432   6.118   4.324  0.0272  0.0207  0.6961
 9250TIP3    H251946   2.454   5.981   4.264 -1.4012  0.7280 -1.5390
 9251TIP3   OH251947   6.309   5.529   2.838  0.3610  0.0811  0.2992
 9251TIP3    H151948   6.249   5.592   2.799  0.6570 -0.1732 -0.5818
 9251TIP3    H251949   6.344   5.574   2.915 -2.3553 -0.4306  1.9610
 9252TIP3   OH251950   4.017   5.441   4.164  0.4463  0.6659  0.2569
 9252TIP3    H151951   4.078   5.431   4.091  1.7368  0.3974  1.3076
 9252TIP3    H251952   3.962   5.363   4.160  0.4868  0.6676 -0.4452
 9253TIP3   OH251953   3.673   6.364   2.785  0.5188 -0.0720  0.1004
 9253TIP3    H151954   3.632   6.303   2.724  1.0637  0.5137 -0.8772
 9253TIP3    H251955   3.706   6.309   2.856  1.0048 -0.9277 -0.7650
 9254TIP3   OH251956   2.451   5.605   4.216 -0.4453  0.5384  0.1726
 9254TIP3    H151957   2.479   5.591   4.125 -0.6464 -1.0269  0.3196
 9254TIP3    H251958   2.363   5.642   4.208 -1.0036 -0.8201 -0.3016
 9255TIP3   OH251959   3.826   6.837   3.137  0.2356  0.0844 -0.1366
 9255TIP3    H151960   3.835   6.821   3.231 -1.2237  1.5223  0.2862
 9255TIP3    H251961   3.749   6.787   3.112  0.0701  0.4505 -0.3634
 9256TIP3   OH251962   5.098   4.147   2.658  0.1626  0.1818 -0.3325
 9256TIP3    H151963   5.171   4.181   2.709 -0.1150 -0.5743  0.6127
 9256TIP3    H251964   5.093   4.204   2.581  0.8494  1.1091  0.2887
 9257TIP3   OH251965   6.060   4.559   4.232 -0.0782 -0.0111 -0.3421
 9257TIP3    H151966   6.012   4.478   4.215 -0.3031  0.4533 -2.1484
 9257TIP3    H251967   6.087   4.589   4.146 -0.1433  1.9245  0.2674
 9258TIP3   OH251968   4.368   0.927   2.249  0.2339 -0.3896  0.3569
 9258TIP3    H151969   4.287   0.948   2.201 -0.1374  0.6395  1.3904
 9258TIP3    H251970   4.357   0.835   2.274  0.0950 -0.7235 -0.8445
 9259TIP3   OH251971   4.767   3.991   3.782 -0.0881 -0.4826  0.0661
 9259TIP3    H151972   4.784   3.951   3.868  0.4340 -0.1166  0.1417
 9259TIP3    H251973   4.828   3.947   3.723  0.1665 -0.1312  0.0603
 9260TIP3   OH251974   1.490   4.133   3.743  0.1458 -0.7325  0.1636
 9260TIP3    H151975   1.576   4.096   3.765  0.1019 -1.2123 -0.4381
 9260TIP3    H251976   1.427   4.074   3.785  0.1143  0.0407  1.2342
 9261TIP3   OH251977   6.431   1.234   2.258  0.8839 -0.0255  0.2819
 9261TIP3    H151978   6.391   1.319   2.242  2.5824  0.6605 -0.6819
 9261TIP3    H251979   6.447   1.231   2.352 -0.8461 -0.0901  0.5932
 9262TIP3   OH251980   2.204   0.566   2.017  0.4642 -0.0313 -0.0428
 9262TIP3    H151981   2.209   0.528   1.930  1.0856 -2.1695  0.8655
 9262TIP3    H251982   2.184   0.658   2.002  0.3058 -0.3995 -2.4149
 9263TIP3   OH251983   0.271   3.060   4.043 -0.0624 -0.1932  0.4265
 9263TIP3    H151984   0.184   3.088   4.072 -0.7214 -0.5906 -1.0662
 9263TIP3    H251985   0.260   2.968   4.021  0.8238 -0.3228  0.5216
 9264TIP3   OH251986   1.299   4.480   5.572 -0.4093  0.2242 -0.2119
 9264TIP3    H151987   1.284   4.442   5.485 -0.7334 -1.2112  0.4359
 9264TIP3    H251988   1.229   4.444   5.626  0.1823  0.5634  0.8055
 9265TIP3   OH251989   2.243   1.319   4.254 -0.0888  0.7210 -0.3436
 9265TIP3    H151990   2.313   1.287   4.198  0.2622 -0.4434  0.7137
 9265TIP3    H251991   2.166   1.269   4.227 -0.4585  1.7273 -1.2429
 9266TIP3   OH251992   1.457   3.210   3.584 -0.2453 -0.0058 -0.0868
 9266TIP3    H151993   1.448   3.153   3.507  0.2065  1.1448 -1.0163
 9266TIP3    H251994   1.549   3.202   3.608  0.1870  1.4067 -1.1207
 9267TIP3   OH251995   0.734   5.070   3.983  0.2178  0.0437  0.2518
 9267TIP3    H151996   0.820   5.098   4.015  0.1690  0.5425 -0.0420
 9267TIP3    H251997   0.753   4.997   3.924  0.5282  0.7564 -0.5461
 9268TIP3   OH251998   6.446   0.390   3.015 -0.0559 -0.5671  0.2237
 9268TIP3    H151999   6.422   0.481   3.029 -1.0412 -0.9193  0.9532
 9268TIP3    H252000   6.364   0.347   2.991  0.2669 -1.3790  0.5260
 9269TIP3   OH252001   5.131   5.039   4.607  0.5857 -0.3507 -0.4460
 9269TIP3    H152002   5.143   5.112   4.546  0.0494  0.0892 -0.0392
 9269TIP3    H252003   5.146   5.077   4.694 -1.3259 -0.2882 -0.0829
 9270TIP3   OH252004   0.080   5.453   5.442  0.0943 -0.0650 -0.5929
 9270TIP3    H152005   0.173   5.455   5.420  0.5347  1.6552  1.1138
 9270TIP3    H252006   0.066   5.364   5.474  1.8130  0.2950  1.4303
 9271TIP3   OH252007   4.348   3.075   4.224 -0.4972 -0.6152  0.2066
 9271TIP3    H152008   4.267   3.115   4.190  0.2504  0.6359 -0.1675
 9271TIP3    H252009   4.407   3.149   4.240 -0.0533 -1.3301  2.2661
 9272TIP3   OH252010   1.097   5.346   3.575 -0.7344  0.1572  0.3075
 9272TIP3    H152011   1.070   5.341   3.666  0.1590 -0.7821  0.5394
 9272TIP3    H252012   1.089   5.256   3.543 -0.2532  0.3297 -0.3048
 9273TIP3   OH252013   4.636   1.657   1.952 -0.2378 -0.3387  0.2298
 9273TIP3    H152014   4.731   1.649   1.954 -0.1927 -0.0698 -0.3876
 9273TIP3    H252015   4.606   1.579   1.905 -0.3413 -0.5390  0.6251
 9274TIP3   OH252016   6.397   6.848   3.463  0.2310 -0.0335 -0.4795
 9274TIP3    H152017   6.329   6.846   3.395  0.4050 -0.8748 -0.6363
 9274TIP3    H252018   6.439   6.763   3.457  0.5115  0.0367  0.4321
 9275TIP3   OH252019   5.480   4.147   3.732  0.0817 -0.5059 -0.0162
 9275TIP3    H152020   5.546   4.207   3.697 -0.4404  0.3568  0.4462
 9275TIP3    H252021   5.474   4.169   3.825 -0.4000 -1.0152  0.0824
 9276TIP3   OH252022   5.574   4.510   2.833  0.2360  0.0098 -0.2346
 9276TIP3    H152023   5.492   4.527   2.785 -0.3686  0.9150  1.0482
 9276TIP3    H252024   5.584   4.587   2.889  0.0334 -1.6928  2.2764
 9277TIP3   OH252025   4.654   3.403   4.730  0.3192 -0.2535 -0.4713
 9277TIP3    H152026   4.644   3.399   4.825  1.5160 -0.9258 -0.3496
 9277TIP3    H252027   4.649   3.496   4.709 -1.9083 -0.2180 -0.0132
 9278TIP3   OH252028   4.517   3.642   3.146  0.4124 -0.2932 -0.4568
 9278TIP3    H152029   4.508   3.546   3.145  0.5620 -0.3075 -0.5975
 9278TIP3    H252030   4.479   3.670   3.063 -0.4213 -0.1509 -0.0351
 9279TIP3   OH252031   2.137   3.590   4.503  0.1035 -0.3246 -0.0059
 9279TIP3    H152032   2.081   3.646   4.450 -0.2555 -0.5777  0.1061
 9279TIP3    H252033   2.224   3.629   4.495 -0.3030  0.8280  0.8493
 9280TIP3   OH252034   4.009   5.861   1.531 -0.3252 -0.0493  0.0350
 9280TIP3    H152035   4.073   5.918   1.488 -0.1019 -0.2946  0.0406
 9280TIP3    H252036   4.061   5.799   1.581 -0.5742 -0.1129  0.2161
 9281TIP3   OH252037   3.651   6.699   4.926 -0.2273  0.2928 -0.2402
 9281TIP3    H152038   3.605   6.636   4.870  0.4110 -1.8730  1.4996
 9281TIP3    H252039   3.621   6.785   4.896 -4.7498 -0.8795  0.1137
 9282TIP3   OH252040   4.956   0.857   4.364  0.2325  0.4094 -0.0958
 9282TIP3    H152041   4.924   0.784   4.417 -2.6338  0.4886 -1.5286
 9282TIP3    H252042   4.988   0.816   4.284 -1.2582  0.6424 -0.8471
 9283TIP3   OH252043   3.661   3.326   4.438 -0.7602 -0.6377  0.2939
 9283TIP3    H152044   3.719   3.349   4.366 -1.5556  1.0947  0.1490
 9283TIP3    H252045   3.640   3.234   4.424 -0.0054 -0.6294 -1.0384
 9284TIP3   OH252046   6.129   3.297   3.170  0.0585 -0.3248  0.4910
 9284TIP3    H152047   6.088   3.328   3.250  0.1136  0.8774  0.0814
 9284TIP3    H252048   6.075   3.224   3.141 -0.7942  0.1465  0.8739
 9285TIP3   OH252049   3.486   6.423   3.920 -0.7275 -0.4283  0.2042
 9285TIP3    H152050   3.396   6.390   3.917 -0.8801 -0.0155  0.2013
 9285TIP3    H252051   3.486   6.499   3.862 -0.7770  0.5200  1.3995
 9286TIP3   OH252052   1.491   6.659   2.312 -0.2758  0.9165  0.1919
 9286TIP3    H152053   1.546   6.585   2.338  0.6622  0.8951 -1.6540
 9286TIP3    H252054   1.402   6.629   2.329  0.0049 -1.1059 -1.4025
 9287TIP3   OH252055   4.313   0.618   4.668 -0.2153 -0.3179  0.2611
 9287TIP3    H152056   4.258   0.581   4.599  0.7011 -0.1298 -0.5853
 9287TIP3    H252057   4.392   0.648   4.623  0.8069 -1.0304  1.5179
 9288TIP3   OH252058   3.492   4.149   1.996 -0.0210  0.3250 -0.1792
 9288TIP3    H152059   3.445   4.232   1.999  0.9796  0.9954 -1.8495
 9288TIP3    H252060   3.581   4.172   1.972 -0.0953 -1.3308 -2.3425
 9289TIP3   OH252061   4.025   3.366   5.018 -0.3732  0.1004 -0.0376
 9289TIP3    H152062   4.117   3.343   5.005 -0.1858  0.0185  1.3668
 9289TIP3    H252063   4.023   3.461   5.005 -0.0232  0.1573  0.2994
 9290TIP3   OH252064   3.677   5.413   5.365 -0.0314 -0.5564  0.0710
 9290TIP3    H152065   3.700   5.339   5.310 -0.9833 -1.3672  0.7285
 9290TIP3    H252066   3.582   5.408   5.375 -0.2888  1.4341 -0.8141
 9291TIP3   OH252067   2.374   1.280   2.488 -0.5826  0.7603 -0.4669
 9291TIP3    H152068   2.289   1.238   2.498  0.2997 -0.9766  0.1697
 9291TIP3    H252069   2.376   1.349   2.554 -0.5350 -0.8823  1.3218
 9292TIP3   OH252070   2.580   4.418   3.312 -0.2297  0.3252  0.6916
 9292TIP3    H152071   2.549   4.387   3.227 -0.4108  0.7270  0.6087
 9292TIP3    H252072   2.515   4.386   3.375 -0.6906  0.9568  0.5472
 9293TIP3   OH252073   4.214   4.430   2.674  0.6178 -0.0121  0.0540
 9293TIP3    H152074   4.185   4.500   2.731 -0.1394 -0.1757 -0.1270
 9293TIP3    H252075   4.166   4.353   2.703 -0.0674 -0.0136 -1.0470
 9294TIP3   OH252076   5.227   3.984   4.674 -0.2989 -0.1245 -0.4759
 9294TIP3    H152077   5.217   3.893   4.647  0.9930 -0.2783 -0.5280
 9294TIP3    H252078   5.321   3.993   4.692 -0.5822  0.9033  0.6004
 9295TIP3   OH252079   6.343   2.449   3.228 -0.1095 -0.1188 -0.0616
 9295TIP3    H152080   6.433   2.419   3.245  0.3254  1.7532  1.1866
 9295TIP3    H252081   6.292   2.368   3.224  1.2218 -1.1433  1.8662
 9296TIP3   OH252082   5.612   5.961   5.021 -0.6146  0.0064  0.2712
 9296TIP3    H152083   5.571   5.905   5.088 -0.5048 -0.4604 -0.0522
 9296TIP3    H252084   5.612   6.048   5.061 -2.8345  0.2242 -0.1082
 9297TIP3   OH252085   1.095   4.308   3.681 -0.2240 -0.0267  0.5212
 9297TIP3    H152086   1.162   4.353   3.732  0.6969 -0.5182 -0.2199
 9297TIP3    H252087   1.081   4.226   3.729 -1.4505  0.7339  1.5276
 9298TIP3   OH252088   2.467   3.332   4.311  0.1169  0.0560 -0.4507
 9298TIP3    H152089   2.464   3.341   4.407 -1.2222  0.2743 -0.4877
 9298TIP3    H252090   2.385   3.373   4.281  0.6961  0.3376 -1.7226
 9299TIP3   OH252091   4.670   5.598   2.561 -0.0325 -0.1343  0.2186
 9299TIP3    H152092   4.575   5.607   2.571 -0.1300  1.0054 -1.3791
 9299TIP3    H252093   4.705   5.685   2.581  0.6471 -0.4495  0.4339
 9300TIP3   OH252094   5.388   3.938   4.357  0.1502 -0.1565 -0.5432
 9300TIP3    H152095   5.455   3.997   4.393  0.9999  1.1289 -3.8255
 9300TIP3    H252096   5.325   3.997   4.315 -0.1968 -1.4885 -1.9963
 9301TIP3   OH252097   3.835   4.860   4.130  0.1222  0.0364 -0.1170
 9301TIP3    H152098   3.845   4.764   4.134 -0.6339 -0.0776 -0.8769
 9301TIP3    H252099   3.811   4.878   4.040 -0.0416  0.9300  0.0981
 9302TIP3   OH252100   4.601   0.361   3.138  0.0393  0.0416 -0.7265
 9302TIP3    H152101   4.616   0.388   3.047  0.1996 -1.2872 -1.1201
 9302TIP3    H252102   4.639   0.431   3.190  2.4980 -0.4696 -1.7063
 9303TIP3   OH252103   1.720   1.544   3.288 -0.1431 -0.1779  0.1401
 9303TIP3    H152104   1.734   1.612   3.354  0.9453  0.0346 -0.2976
 9303TIP3    H252105   1.779   1.566   3.217 -2.6191  0.6557 -1.7860
 9304TIP3   OH252106   0.369   5.652   5.254  0.2229  0.2244  0.2386
 9304TIP3    H152107   0.345   5.576   5.306  0.6689 -0.1902 -0.1573
 9304TIP3    H252108   0.449   5.627   5.209  1.9345  1.8386  2.1566
 9305TIP3   OH252109   5.260   5.755   3.908  0.0957 -0.8487 -0.1258
 9305TIP3    H152110   5.243   5.770   3.815 -0.5231 -1.2906 -0.0898
 9305TIP3    H252111   5.356   5.753   3.914  0.1477 -0.6313 -0.7169
 9306TIP3   OH252112   5.878   5.282   2.031  0.1523 -0.2563 -0.2934
 9306TIP3    H152113   5.803   5.340   2.019  0.1981 -0.5058 -2.2560
 9306TIP3    H252114   5.922   5.315   2.109 -1.1158  0.8751 -0.0176
 9307TIP3   OH252115   6.047   1.553   5.140 -0.0002  0.5220 -0.1618
 9307TIP3    H152116   6.101   1.624   5.106  0.6559 -0.7130 -1.8443
 9307TIP3    H252117   6.109   1.480   5.152 -0.7683  0.0192  0.8537
 9308TIP3   OH252118   3.264   3.040   3.670 -0.2206 -0.4029 -0.2350
 9308TIP3    H152119   3.251   2.958   3.623 -0.9565 -0.4739  0.0736
 9308TIP3    H252120   3.274   3.106   3.602  1.9164 -0.9328 -0.5183
 9309TIP3   OH252121   1.717   6.459   1.779  0.0120  0.1877 -0.6453
 9309TIP3    H152122   1.626   6.430   1.769  0.3840 -1.1318 -0.4447
 9309TIP3    H252123   1.717   6.549   1.747 -1.7158  0.8175  0.9186
 9310TIP3   OH252124   5.060   0.069   3.744 -0.0538 -0.4927 -0.9498
 9310TIP3    H152125   5.016   0.104   3.666  0.3998 -1.8096 -1.8370
 9310TIP3    H252126   5.074   0.145   3.800  0.4186  0.6564 -2.5523
 9311TIP3   OH252127   3.144   1.512   3.821  0.3561 -0.3387  0.1485
 9311TIP3    H152128   3.094   1.580   3.867  0.5442  0.2560 -0.5064
 9311TIP3    H252129   3.183   1.460   3.891 -1.3412 -0.9507  0.6823
 9312TIP3   OH252130   2.145   1.462   4.879  0.2913  0.4668 -0.1815
 9312TIP3    H152131   2.208   1.410   4.930 -1.0595  0.5149  1.6663
 9312TIP3    H252132   2.063   1.413   4.886 -0.4007  1.5393 -0.5961
 9313TIP3   OH252133   4.743   2.060   3.762 -0.1313 -0.2729 -0.1755
 9313TIP3    H152134   4.648   2.069   3.751 -0.2805 -0.4971  0.8068
 9313TIP3    H252135   4.757   1.965   3.766  0.1014 -0.2341 -0.0742
 9314TIP3   OH252136   2.228   4.349   2.530  0.2683  0.4391  0.4732
 9314TIP3    H152137   2.148   4.383   2.489  1.6982  1.1876 -1.9004
 9314TIP3    H252138   2.202   4.264   2.567 -1.4436  0.2527 -1.0099
 9315TIP3   OH252139   4.333   2.007   3.040  0.1666  0.0180 -0.3959
 9315TIP3    H152140   4.280   2.076   3.080 -0.2651 -0.2786 -0.4387
 9315TIP3    H252141   4.326   1.934   3.102  0.6756  0.0326 -0.3168
 9316TIP3   OH252142   4.918   0.581   3.550  0.2069  0.2850  0.0410
 9316TIP3    H152143   4.838   0.630   3.564 -0.0806  0.0382 -0.6656
 9316TIP3    H252144   4.977   0.608   3.620 -1.4224 -1.5446  2.2507
 9317TIP3   OH252145   3.644   4.192   2.581 -0.3674  0.2838  0.2105
 9317TIP3    H152146   3.631   4.258   2.649 -0.7401  0.7887 -0.3342
 9317TIP3    H252147   3.728   4.215   2.541 -0.3682  0.2679  0.1993
 9318TIP3   OH252148   3.446   4.014   5.690  0.0728  0.4400  0.2122
 9318TIP3    H152149   3.507   3.985   5.622  0.4856 -0.1567  0.8208
 9318TIP3    H252150   3.409   4.096   5.656  0.2766  0.1590 -0.7190
 9319TIP3   OH252151   5.788   3.362   4.243  0.0640  0.0251  0.5105
 9319TIP3    H152152   5.838   3.420   4.186 -2.0122  0.3293 -1.1272
 9319TIP3    H252153   5.743   3.421   4.304  0.8103 -0.1684  1.2668
 9320TIP3   OH252154   3.768   4.716   4.994 -0.0453 -0.6680  0.4250
 9320TIP3    H152155   3.681   4.744   5.019 -0.3894  0.2497 -1.6155
 9320TIP3    H252156   3.761   4.693   4.901  2.3908  2.0260 -0.5910
 9321TIP3   OH252157   0.071   4.527   4.060 -0.3196 -0.2035  0.3627
 9321TIP3    H152158   0.025   4.602   4.098  1.0594  1.2710 -0.7345
 9321TIP3    H252159   0.041   4.524   3.969 -0.1345 -0.8186  0.3165
 9322TIP3   OH252160   2.828   5.866   5.689 -0.1804  0.4888 -0.2567
 9322TIP3    H152161   2.746   5.851   5.734  0.2421 -0.9711  0.0918
 9322TIP3    H252162   2.807   5.857   5.596 -0.0086 -2.6267 -0.1126
 9323TIP3   OH252163   6.736   0.952   3.812  0.3003  0.2677  0.5764
 9323TIP3    H152164   6.748   0.888   3.741 -0.7572  0.6251  0.0547
 9323TIP3    H252165   6.664   1.007   3.782 -1.0721 -0.3722  2.5098
 9324TIP3   OH252166   1.866   4.767   3.439  0.0923 -0.0361 -0.1248
 9324TIP3    H152167   1.889   4.678   3.412 -0.3737 -0.5695  1.1743
 9324TIP3    H252168   1.944   4.800   3.485 -0.6725 -0.8209  1.8277
 9325TIP3   OH252169   5.797   6.467   3.076  0.3317 -0.5741 -0.1156
 9325TIP3    H152170   5.745   6.454   2.997  2.2786  1.3141 -1.8296
 9325TIP3    H252171   5.760   6.546   3.116 -0.4153 -1.3217  0.7277
 9326TIP3   OH252172   2.019   2.798   2.973 -0.8412 -0.2173  0.0282
 9326TIP3    H152173   2.101   2.803   2.924 -0.5842 -0.4508  0.4361
 9326TIP3    H252174   1.975   2.721   2.938 -0.0742 -1.1559  1.0458
 9327TIP3   OH252175   2.799   1.097   3.864  0.6799  0.2401  0.3314
 9327TIP3    H152176   2.873   1.155   3.845  0.2370  0.6293 -0.2392
 9327TIP3    H252177   2.840   1.013   3.888  1.3070  0.4585  0.0532
 9328TIP3   OH252178   3.261   3.923   3.035  0.2356  0.5628  0.3462
 9328TIP3    H152179   3.353   3.947   3.049 -0.4524  4.4018 -0.5267
 9328TIP3    H252180   3.214   3.964   3.108 -0.9835  0.5134 -0.3735
 9329TIP3   OH252181   1.870   5.769   5.138  0.5575 -0.4950 -0.3438
 9329TIP3    H152182   1.779   5.771   5.111 -0.2811 -1.3021  2.1473
 9329TIP3    H252183   1.881   5.683   5.180  1.9068  0.3378  1.1304
 9330TIP3   OH252184   6.784   1.110   3.472  0.2968 -0.1124  0.1314
 9330TIP3    H152185   6.862   1.066   3.506  0.2025 -0.0814  0.3875
 9330TIP3    H252186   6.751   1.162   3.546  0.4028  0.3839 -0.1601
 9331TIP3   OH252187   4.349   0.842   3.761  0.5282  0.2876 -0.2144
 9331TIP3    H152188   4.278   0.902   3.738  0.0667 -0.1734 -0.0031
 9331TIP3    H252189   4.397   0.888   3.830  0.0464  0.3245  0.1012
 9332TIP3   OH252190   5.350   3.059   4.190  0.3697 -0.1158  0.1333
 9332TIP3    H152191   5.364   3.142   4.234 -0.4585  0.3329 -0.4298
 9332TIP3    H252192   5.307   3.004   4.255 -1.5814  0.8029 -0.3234
 9333TIP3   OH252193   2.663   2.981   5.923 -0.1632 -0.6534  0.2614
 9333TIP3    H152194   2.702   2.918   5.983  0.6390 -1.0279 -0.6229
 9333TIP3    H252195   2.738   3.018   5.876 -0.5675  1.2544  1.0202
 9334TIP3   OH252196   6.373   0.649   3.106  0.0675 -0.2300 -0.3368
 9334TIP3    H152197   6.355   0.627   3.198  0.4826 -1.3939 -0.5201
 9334TIP3    H252198   6.295   0.620   3.059  0.4401 -0.9617 -0.5237
 9335TIP3   OH252199   2.172   2.067   4.471 -0.5170  0.7834  0.1936
 9335TIP3    H152200   2.261   2.099   4.458  0.1828  0.3122  3.1454
 9335TIP3    H252201   2.165   1.992   4.411  1.6898 -0.1885  1.0469
 9336TIP3   OH252202   1.960   0.495   2.224 -0.0682 -0.0202 -0.5056
 9336TIP3    H152203   1.988   0.563   2.162 -1.0019  2.2435  1.4299
 9336TIP3    H252204   2.037   0.481   2.279 -0.3641  0.7124  0.1151
 9337TIP3   OH252205   6.149   2.420   2.814  0.2026  0.0805  0.3553
 9337TIP3    H152206   6.192   2.470   2.883  0.1788 -0.4806  0.7748
 9337TIP3    H252207   6.092   2.484   2.770  0.0332  0.3791  1.0059
 9338TIP3   OH252208   0.022   1.749   4.119 -0.2878 -0.7099 -0.3534
 9338TIP3    H152209   0.079   1.693   4.066 -0.8775 -0.3001 -1.4778
 9338TIP3    H252210   0.029   1.835   4.077 -1.8815 -0.7063 -0.6729
 9339TIP3   OH252211   6.226   6.754   3.979  0.1756 -0.0023 -0.2330
 9339TIP3    H152212   6.192   6.831   3.934 -1.9277 -0.2745  0.7931
 9339TIP3    H252213   6.151   6.696   3.989  1.1022 -1.0075  1.4528
 9340TIP3   OH252214   2.610   2.832   2.296  0.0163  0.0101 -0.1110
 9340TIP3    H152215   2.521   2.855   2.323 -0.1127 -1.1901  0.5443
 9340TIP3    H252216   2.655   2.812   2.377  0.8389  0.3977 -0.4606
 9341TIP3   OH252217   6.750   1.767   4.792 -0.4269 -0.0113  0.4126
 9341TIP3    H152218   6.674   1.815   4.758  0.3326  1.9876  1.3314
 9341TIP3    H252219   6.818   1.779   4.726  0.0682  1.1225  1.0828
 9342TIP3   OH252220   0.243   5.670   4.989  0.0077  0.4265  0.1434
 9342TIP3    H152221   0.271   5.664   5.080 -1.9122 -0.5370  0.7202
 9342TIP3    H252222   0.264   5.760   4.963  1.5687  0.3822  1.1609
 9343TIP3   OH252223   1.302   5.336   4.144 -0.3512 -0.5987  0.2052
 9343TIP3    H152224   1.294   5.338   4.240 -1.8107  0.9061  0.1029
 9343TIP3    H252225   1.223   5.380   4.113  0.8863  0.4349 -1.6356
 9344TIP3   OH252226   1.026   3.578   3.349 -0.1560 -0.0376  0.8027
 9344TIP3    H152227   1.005   3.668   3.326  0.0976  0.3613  2.0938
 9344TIP3    H252228   0.944   3.530   3.340 -0.2385  0.2615 -0.1208
 9345TIP3   OH252229   2.024   2.959   3.972 -0.3680 -0.6125  0.1116
 9345TIP3    H152230   2.061   3.037   3.931 -2.4052  0.6793  0.6087
 9345TIP3    H252231   2.100   2.912   4.007  0.8255  1.7045  0.8135
 9346TIP3   OH252232   2.912   1.641   2.522 -0.5216 -0.9814 -0.2927
 9346TIP3    H152233   2.971   1.585   2.573  1.4414  0.6076 -0.7315
 9346TIP3    H252234   2.832   1.645   2.575  0.4987 -1.4900  1.3687
 9347TIP3   OH252235   2.609   6.577   4.059  0.0941  0.2573 -0.6811
 9347TIP3    H152236   2.530   6.632   4.061  0.6012  0.9849 -0.0223
 9347TIP3    H252237   2.677   6.636   4.027  0.9052  0.3621  1.1535
 9348TIP3   OH252238   2.318   4.399   3.213 -0.1555  0.1965 -0.2625
 9348TIP3    H152239   2.244   4.434   3.163 -1.5235 -0.0018  1.5185
 9348TIP3    H252240   2.278   4.361   3.291  1.6846 -1.5663 -0.1018
 9349TIP3   OH252241   1.937   4.942   5.324 -0.3584  0.5699 -0.3144
 9349TIP3    H152242   1.882   4.931   5.246 -1.9844  1.3692  0.6610
 9349TIP3    H252243   1.983   4.859   5.332  0.1909  0.6214 -2.3559
 9350TIP3   OH252244   4.588   2.679   1.891 -0.3826 -0.0712  0.1020
 9350TIP3    H152245   4.505   2.721   1.917  0.3308  0.7716  1.1106
 9350TIP3    H252246   4.652   2.750   1.895  0.4030 -0.7243 -0.6501
 9351TIP3   OH252247   5.188   5.378   3.255  0.4241  0.1494  0.1119
 9351TIP3    H152248   5.254   5.330   3.205 -0.7822  0.4344 -1.8419
 9351TIP3    H252249   5.218   5.468   3.256  1.5073 -0.1745  1.7931
 9352TIP3   OH252250   0.969   3.683   3.624  0.0148 -0.0786  0.6358
 9352TIP3    H152251   0.968   3.656   3.532  0.8101 -1.4579  1.0048
 9352TIP3    H252252   0.988   3.777   3.622  0.7364 -0.2349 -0.5878
 9353TIP3   OH252253   5.413   1.912   2.761 -0.0371 -0.4384  0.4025
 9353TIP3    H152254   5.347   1.916   2.692 -0.8475  0.9624  1.2043
 9353TIP3    H252255   5.492   1.949   2.721  0.4728 -2.5942 -0.7201
 9354TIP3   OH252256   3.334   5.903   4.683  0.1733 -0.2266 -0.0158
 9354TIP3    H152257   3.408   5.851   4.715 -0.0401 -0.9749 -0.6811
 9354TIP3    H252258   3.260   5.873   4.736 -0.4123 -2.2804 -1.8451
 9355TIP3   OH252259   5.792   0.307   2.195 -0.2870 -0.1363  0.4959
 9355TIP3    H152260   5.841   0.387   2.217 -0.4344 -0.2902  1.4145
 9355TIP3    H252261   5.710   0.339   2.158  0.4652  0.1267 -1.0351
 9356TIP3   OH252262   2.677   5.440   4.909  0.1696  0.2536  0.4879
 9356TIP3    H152263   2.771   5.420   4.914  0.2315  0.0872 -0.8770
 9356TIP3    H252264   2.650   5.405   4.824 -1.5787 -1.4831  1.6790
 9357TIP3   OH252265   0.398   2.965   3.684 -1.0789 -0.2322 -0.1132
 9357TIP3    H152266   0.493   2.978   3.683 -1.1688  0.5004  0.4214
 9357TIP3    H252267   0.363   3.042   3.727 -2.0048 -0.0226 -1.1714
 9358TIP3   OH252268   2.452   6.380   3.354 -0.3643 -0.2147  0.0663
 9358TIP3    H152269   2.481   6.315   3.418 -0.2370 -0.3891 -0.1669
 9358TIP3    H252270   2.451   6.334   3.270 -0.2627  0.0849 -0.1045
 9359TIP3   OH252271   2.408   0.218   1.901 -0.4632  0.1505  0.0028
 9359TIP3    H152272   2.432   0.126   1.903 -0.1837  0.1068 -2.4198
 9359TIP3    H252273   2.479   0.263   1.948 -0.0029 -0.7572  0.1904
 9360TIP3   OH252274   0.614   6.654   2.939  0.5525  0.0734 -0.1563
 9360TIP3    H152275   0.529   6.689   2.965  1.9416  1.8151  2.4741
 9360TIP3    H252276   0.593   6.589   2.871 -2.6182  2.1473 -1.4053
 9361TIP3   OH252277   4.804   5.886   2.236  0.2920  0.5098  0.4994
 9361TIP3    H152278   4.864   5.869   2.163  0.4701  1.6340  0.3635
 9361TIP3    H252279   4.855   5.939   2.297  0.1626 -0.4643  1.4933
 9362TIP3   OH252280   6.798   6.440   2.439 -0.7737 -0.5750  0.3993
 9362TIP3    H152281   6.795   6.409   2.349  2.8422 -0.3823  0.0561
 9362TIP3    H252282   6.767   6.366   2.491 -1.3748 -1.2710 -0.9089
 9363TIP3   OH252283   1.407   2.805   3.266 -0.0772 -0.7713 -0.1331
 9363TIP3    H152284   1.337   2.787   3.203 -0.2897 -3.0272  0.6395
 9363TIP3    H252285   1.361   2.817   3.350  0.3747 -0.8356  0.1279
 9364TIP3   OH252286   6.372   0.159   2.253  0.6535  0.0955 -0.2414
 9364TIP3    H152287   6.306   0.227   2.270  0.2489 -0.6370  1.2732
 9364TIP3    H252288   6.335   0.080   2.292  2.0559 -0.5272 -0.1204
 9365TIP3   OH252289   2.405   3.787   5.383 -0.6441 -0.3360  0.4533
 9365TIP3    H152290   2.479   3.847   5.393  0.1366 -1.2289  0.1691
 9365TIP3    H252291   2.328   3.842   5.393  0.0571  0.5541  1.1334
 9366TIP3   OH252292   1.447   2.135   3.135 -1.1670 -0.2583 -0.2876
 9366TIP3    H152293   1.398   2.131   3.218 -0.5416  1.1067  0.1898
 9366TIP3    H252294   1.425   2.221   3.099 -1.7837 -1.0176 -1.7982
 9367TIP3   OH252295   1.711   2.247   2.375  0.1658 -0.3986  0.0581
 9367TIP3    H152296   1.660   2.304   2.319  1.5308 -0.5900 -1.4820
 9367TIP3    H252297   1.693   2.277   2.464 -1.0233  0.8096 -0.5586
 9368TIP3   OH252298   2.650   0.742   4.815 -0.0447  0.1928  0.2680
 9368TIP3    H152299   2.693   0.685   4.879  0.2874  0.7734  0.5649
 9368TIP3    H252300   2.561   0.707   4.808 -0.2030  0.3507  1.3269
 9369TIP3   OH252301   6.451   0.305   2.520  0.3848 -0.4624  0.0329
 9369TIP3    H152302   6.432   0.213   2.535 -2.0228  0.1487  1.2340
 9369TIP3    H252303   6.398   0.351   2.585  1.2578  1.7824 -0.7607
 9370TIP3   OH252304   4.144   1.950   2.629 -0.5724 -0.5002 -0.4128
 9370TIP3    H152305   4.079   1.892   2.669 -1.8214 -0.7759 -2.6603
 9370TIP3    H252306   4.176   1.902   2.553  0.2308  0.7564 -0.9052
 9371TIP3   OH252307   0.516   3.116   4.138  0.8842 -0.2298 -0.2429
 9371TIP3    H152308   0.564   3.158   4.066 -0.8697  3.3668  0.4748
 9371TIP3    H252309   0.431   3.093   4.101  0.1177  1.2789  0.5025
 9372TIP3   OH252310   5.478   3.688   4.538 -0.0852  0.1484  0.0810
 9372TIP3    H152311   5.439   3.648   4.616 -2.9414  0.8627 -0.8518
 9372TIP3    H252312   5.424   3.767   4.523  1.4343  0.9145 -1.6767
 9373TIP3   OH252313   2.577   6.543   2.862 -0.0725  0.5788 -0.5747
 9373TIP3    H152314   2.645   6.476   2.852 -0.4170  0.2481 -0.6796
 9373TIP3    H252315   2.549   6.535   2.954 -0.5296  0.1834 -0.7473
 9374TIP3   OH252316   3.793   3.328   3.380 -0.1153 -0.3726 -0.4724
 9374TIP3    H152317   3.879   3.288   3.369 -0.2506 -0.5996 -0.7035
 9374TIP3    H252318   3.748   3.270   3.442  0.1947  0.2062  0.3045
 9375TIP3   OH252319   1.535   1.255   3.282 -0.7067 -0.1581 -0.2617
 9375TIP3    H152320   1.526   1.327   3.343  0.5576  0.6254 -0.9604
 9375TIP3    H252321   1.451   1.252   3.236 -0.2211  2.0386 -1.4386
 9376TIP3   OH252322   4.558   4.961   4.494 -0.3804  0.2509 -0.0122
 9376TIP3    H152323   4.563   4.869   4.469 -0.2190  0.0169  0.8561
 9376TIP3    H252324   4.552   4.960   4.589 -0.6124  1.1330 -0.0051
 9377TIP3   OH252325   2.146   6.453   1.870 -0.4087 -0.4183 -0.0537
 9377TIP3    H152326   2.057   6.420   1.864 -0.5006 -0.5079  1.3633
 9377TIP3    H252327   2.197   6.378   1.901  0.2612 -0.5034 -1.3119
 9378TIP3   OH252328   0.426   3.596   2.914 -0.2508  0.1043  0.3025
 9378TIP3    H152329   0.371   3.624   2.988 -0.6067 -2.3814  1.0683
 9378TIP3    H252330   0.364   3.589   2.841  0.4004  4.3984 -0.9156
 9379TIP3   OH252331   5.570   6.017   4.283 -0.0262 -0.5084 -0.1383
 9379TIP3    H152332   5.645   6.005   4.342  0.9403 -0.5186 -1.3276
 9379TIP3    H252333   5.520   5.936   4.293 -0.1212 -0.3361  0.9761
 9380TIP3   OH252334   4.446   4.362   3.452 -0.0749 -0.1670 -0.0175
 9380TIP3    H152335   4.509   4.425   3.487 -0.6402  0.5859 -0.3370
 9380TIP3    H252336   4.364   4.383   3.496 -0.1129 -1.1810  0.4418
 9381TIP3   OH252337   3.533   2.441   3.726 -0.0496 -0.2315 -0.3228
 9381TIP3    H152338   3.444   2.465   3.752 -0.6301 -1.2833 -1.2967
 9381TIP3    H252339   3.571   2.403   3.805 -1.0734 -1.4185 -0.3782
 9382TIP3   OH252340   6.286   4.458   3.536  0.0017  0.4592 -0.1874
 9382TIP3    H152341   6.314   4.436   3.447  0.4346  0.1923  0.0131
 9382TIP3    H252342   6.258   4.549   3.530 -1.5877 -0.0444 -0.9762
 9383TIP3   OH252343   6.234   0.178   4.850 -0.3771  0.3972 -0.3646
 9383TIP3    H152344   6.292   0.252   4.869 -1.6807  0.7783  2.6028
 9383TIP3    H252345   6.169   0.213   4.790  0.0080  1.1685 -0.3393
 9384TIP3   OH252346   2.837   5.296   4.441  0.0830  0.2714  0.0057
 9384TIP3    H152347   2.786   5.354   4.384 -0.4825  0.5687  0.7948
 9384TIP3    H252348   2.811   5.208   4.414  0.0143  0.4006 -0.3629
 9385TIP3   OH252349   4.198   2.264   1.953  0.3583 -0.2255 -0.1757
 9385TIP3    H152350   4.249   2.289   2.030 -1.2849 -0.3094  1.0101
 9385TIP3    H252351   4.222   2.173   1.937 -0.0525 -0.5480  0.9248
 9386TIP3   OH252352   1.901   3.135   3.406  0.6208  0.2517 -0.6206
 9386TIP3    H152353   1.884   3.104   3.317 -0.9127  1.4097 -0.7742
 9386TIP3    H252354   1.946   3.218   3.395  2.5514 -0.6789 -0.2376
 9387TIP3   OH252355   3.741   0.184   2.946  0.2224  0.2873  0.5321
 9387TIP3    H152356   3.746   0.116   2.878 -0.8062 -0.6101  1.3250
 9387TIP3    H252357   3.791   0.148   3.019 -0.6380  0.2064  1.0934
 9388TIP3   OH252358   5.709   3.899   2.625  0.5616  0.4021 -0.3355
 9388TIP3    H152359   5.653   3.824   2.605  0.8386 -0.1711  0.9933
 9388TIP3    H252360   5.673   3.970   2.570 -0.6145 -0.3015 -0.5194
 9389TIP3   OH252361   0.358   3.530   4.339  0.6247  0.3148  0.0527
 9389TIP3    H152362   0.338   3.461   4.402 -1.0959  1.0502  0.3852
 9389TIP3    H252363   0.304   3.509   4.263  0.7600  0.8052 -0.1824
 9390TIP3   OH252364   5.928   4.875   3.821 -0.2003  0.1149  0.2366
 9390TIP3    H152365   6.000   4.852   3.762  2.0552  0.1062  2.8005
 9390TIP3    H252366   5.909   4.967   3.801  0.4461  0.0997 -0.5231
 9391TIP3   OH252367   6.472   3.066   2.749  0.7855 -0.6515 -0.2984
 9391TIP3    H152368   6.516   3.101   2.671  0.9683 -1.3050 -0.4980
 9391TIP3    H252369   6.449   2.976   2.725 -2.2036  0.1549 -0.8301
 9392TIP3   OH252370   1.386   3.757   3.488  0.0026  0.1012  0.1860
 9392TIP3    H152371   1.436   3.677   3.474 -1.5885 -0.6826 -1.3139
 9392TIP3    H252372   1.332   3.739   3.565  1.2742  0.6183  1.2462
 9393TIP3   OH252373   5.948   6.492   2.256 -0.2400 -0.3093 -0.0123
 9393TIP3    H152374   5.940   6.552   2.182 -0.0310 -0.6858 -0.3494
 9393TIP3    H252375   5.984   6.412   2.217 -0.8598 -0.7787  0.3648
 9394TIP3   OH252376   3.982   6.014   3.311 -0.2174 -0.2606  0.3224
 9394TIP3    H152377   4.070   6.026   3.275 -0.5220 -1.8359 -1.0858
 9394TIP3    H252378   3.989   5.934   3.363 -1.0219 -1.0204 -0.6833
 9395TIP3   OH252379   5.377   0.242   3.069 -0.6787 -0.3163 -0.4511
 9395TIP3    H152380   5.310   0.185   3.106 -0.3599 -0.6814 -0.4241
 9395TIP3    H252381   5.399   0.202   2.985 -3.3263  1.9586 -2.4098
 9396TIP3   OH252382   4.375   3.826   2.262  0.4230 -0.2498  0.6193
 9396TIP3    H152383   4.462   3.796   2.290  0.8848 -0.0912 -0.5795
 9396TIP3    H252384   4.318   3.750   2.274  0.9767 -0.7207  0.3393
 9397TIP3   OH252385   5.742   0.296   3.608  0.1843  0.2555  0.1252
 9397TIP3    H152386   5.648   0.284   3.597  0.0740 -1.2787  2.2121
 9397TIP3    H252387   5.750   0.364   3.675  0.3161 -3.0151  3.7279
 9398TIP3   OH252388   4.167   5.179   3.139  0.1334 -0.1972 -0.2486
 9398TIP3    H152389   4.186   5.092   3.103  2.4713 -0.1769  0.7102
 9398TIP3    H252390   4.212   5.179   3.224  0.0302  1.8998 -0.1502
 9399TIP3   OH252391   2.526   1.118   2.671  0.4474  0.0732 -0.6723
 9399TIP3    H152392   2.617   1.104   2.646  0.7486  1.5438 -0.5045
 9399TIP3    H252393   2.486   1.161   2.595 -0.0051 -0.2109 -0.6014
 9400TIP3   OH252394   3.293   2.004   4.457  0.8922 -0.4408  0.2322
 9400TIP3    H152395   3.304   1.958   4.540  0.6553 -0.9743 -0.0318
 9400TIP3    H252396   3.379   1.998   4.415  0.9964 -0.2192  0.4093
 9401TIP3   OH252397   5.699   0.386   2.922 -0.0008 -0.0337 -0.1081
 9401TIP3    H152398   5.639   0.313   2.905  0.3335 -0.3263 -0.0298
 9401TIP3    H252399   5.644   0.452   2.964 -0.2350 -0.3596  0.1016
 9402TIP3   OH252400   5.974   5.485   3.524  0.4760  0.2337  0.0381
 9402TIP3    H152401   6.022   5.447   3.598 -0.5228 -1.2584 -0.0380
 9402TIP3    H252402   5.883   5.490   3.554 -0.0902 -1.1220 -1.2956
 9403TIP3   OH252403   2.774   4.636   3.754  0.0590 -0.2895 -0.0462
 9403TIP3    H152404   2.703   4.685   3.795  0.2963  1.2717 -1.4061
 9403TIP3    H252405   2.764   4.652   3.660  1.3470 -1.2330 -0.3759
 9404TIP3   OH252406   3.416   4.421   2.391 -0.2130 -0.4341  0.1780
 9404TIP3    H152407   3.504   4.396   2.417  0.5667  3.2161  1.6928
 9404TIP3    H252408   3.426   4.461   2.304 -0.5011 -0.6313  0.0513
 9405TIP3   OH252409   2.413   4.343   4.962 -0.1311 -0.1623  0.3041
 9405TIP3    H152410   2.351   4.392   4.908 -0.1606 -0.6634 -0.1217
 9405TIP3    H252411   2.436   4.266   4.909  0.5033 -0.2166  0.6446
 9406TIP3   OH252412   1.439   5.318   3.515  0.1445 -0.1616  0.1821
 9406TIP3    H152413   1.439   5.255   3.587 -1.0339 -0.7186 -0.2786
 9406TIP3    H252414   1.349   5.317   3.482  0.7726 -0.3396 -1.6643
 9407TIP3   OH252415   3.392   0.242   2.713  0.1080 -0.0894 -0.0201
 9407TIP3    H152416   3.305   0.206   2.728  0.6178 -0.9223  1.1375
 9407TIP3    H252417   3.424   0.263   2.801  0.8741  0.6966 -0.4697
 9408TIP3   OH252418   5.236   1.248   3.756  0.3973 -0.1431 -0.1118
 9408TIP3    H152419   5.235   1.195   3.836  2.4057  0.2670  0.2438
 9408TIP3    H252420   5.237   1.339   3.788  1.6994  0.0205 -0.5454
 9409TIP3   OH252421   0.125   4.339   4.229  0.1714  0.3640 -0.5415
 9409TIP3    H152422   0.128   4.267   4.166 -1.7979  0.8765 -1.3226
 9409TIP3    H252423   0.132   4.418   4.175 -1.0381  0.7959 -0.1019
 9410TIP3   OH252424   5.515   4.172   4.498  0.5259 -0.0678 -0.4757
 9410TIP3    H152425   5.504   4.114   4.573 -0.6263 -0.4825 -0.9358
 9410TIP3    H252426   5.472   4.254   4.525 -1.8099 -0.8999 -1.3947
 9411TIP3   OH252427   4.560   2.761   2.607  0.4575 -0.5560 -0.2479
 9411TIP3    H152428   4.606   2.844   2.595  0.2599  0.0336  2.4464
 9411TIP3    H252429   4.478   2.771   2.559 -0.3513  1.5610  1.3918
 9412TIP3   OH252430   0.851   5.803   5.269 -0.1098 -0.3622  0.2079
 9412TIP3    H152431   0.833   5.711   5.284  0.1810 -0.8052 -1.8690
 9412TIP3    H252432   0.786   5.849   5.321  0.0822 -1.7008  1.7027
 9413TIP3   OH252433   5.418   5.318   5.039 -0.3133  0.0550  0.4857
 9413TIP3    H152434   5.407   5.301   4.945  0.8468  0.4627  0.2670
 9413TIP3    H252435   5.493   5.264   5.064 -2.3394 -2.3588  1.8457
 9414TIP3   OH252436   0.146   3.715   3.332  0.2252  0.2478  0.5501
 9414TIP3    H152437   0.158   3.784   3.397 -2.0269  1.2466  0.0035
 9414TIP3    H252438   0.077   3.659   3.369  1.5542 -1.4052  0.6882
 9415TIP3   OH252439   2.052   1.569   4.654 -0.6398 -0.0306  0.3815
 9415TIP3    H152440   2.090   1.512   4.720 -0.9027  0.7203  1.2023
 9415TIP3    H252441   2.000   1.633   4.704  0.0242  1.2164 -0.4571
 9416TIP3   OH252442   0.188   2.276   4.548  0.1375  0.1666 -0.5674
 9416TIP3    H152443   0.209   2.231   4.630  0.9600 -0.3163 -1.0303
 9416TIP3    H252444   0.234   2.360   4.554  0.4974 -0.0208 -0.6866
 9417TIP3   OH252445   1.292   6.555   2.836 -0.3990  0.4182 -0.8898
 9417TIP3    H152446   1.343   6.479   2.805 -1.0031  0.0467 -0.9956
 9417TIP3    H252447   1.355   6.627   2.837  0.2700 -0.1529 -0.4774
 9418TIP3   OH252448   4.339   4.238   2.472  0.2324  0.0612  0.7839
 9418TIP3    H152449   4.331   4.290   2.392  0.0056  1.5298  1.7368
 9418TIP3    H252450   4.312   4.296   2.542 -0.4662 -1.4891  1.8619
 9419TIP3   OH252451   5.802   2.804   4.271  0.6503 -0.1470  0.1848
 9419TIP3    H152452   5.829   2.776   4.184 -2.7520 -0.0848 -1.0444
 9419TIP3    H252453   5.830   2.895   4.277  0.6324 -0.0426 -1.0179
 9420TIP3   OH252454   3.741   2.685   2.106 -0.1146 -0.2011  0.9954
 9420TIP3    H152455   3.655   2.711   2.140  0.3908  0.7883  1.5475
 9420TIP3    H252456   3.726   2.670   2.012 -0.6644  1.0733  0.8579
 9421TIP3   OH252457   4.446   6.514   2.232 -0.0750 -0.3286  0.4191
 9421TIP3    H152458   4.407   6.435   2.270  0.8282 -0.7133  0.5685
 9421TIP3    H252459   4.526   6.483   2.190 -0.1964  0.3613 -0.3514
 9422TIP3   OH252460   6.153   1.331   2.055 -0.5207  0.7004  0.0059
 9422TIP3    H152461   6.216   1.380   2.002  1.0153  0.0544  1.1807
 9422TIP3    H252462   6.187   1.241   2.057 -1.1320  0.4716  1.1701
 9423TIP3   OH252463   6.224   6.787   2.313 -0.2043 -0.2652 -0.4803
 9423TIP3    H152464   6.194   6.761   2.226 -1.4095 -1.2295  0.1810
 9423TIP3    H252465   6.146   6.782   2.368  0.7113 -0.6340  0.8576
 9424TIP3   OH252466   1.625   6.241   3.103 -0.3325  0.3046  0.1614
 9424TIP3    H152467   1.629   6.337   3.097 -3.5296  0.6336  1.5532
 9424TIP3    H252468   1.665   6.221   3.188 -0.8740  0.5344  0.4711
 9425TIP3   OH252469   1.010   3.918   3.374  0.0848  0.4629 -0.0074
 9425TIP3    H152470   1.095   3.962   3.370  0.6776 -0.7355 -1.0844
 9425TIP3    H252471   0.947   3.990   3.383  1.0910  1.4779 -0.7800
 9426TIP3   OH252472   1.570   5.160   2.050 -0.0303  0.0135 -0.0198
 9426TIP3    H152473   1.514   5.143   2.126 -0.0401 -0.5581 -0.1459
 9426TIP3    H252474   1.654   5.119   2.074 -0.3089 -0.9695 -0.6830
 9427TIP3   OH252475   4.702   0.006   3.109 -0.1500 -0.2061 -0.7044
 9427TIP3    H152476   4.676  -0.069   3.055 -2.5845  0.1748 -0.1508
 9427TIP3    H252477   4.654   0.080   3.072 -0.7640  0.3369  1.1089
 9428TIP3   OH252478   3.830   3.949   3.798 -0.1441 -0.5381 -0.0728
 9428TIP3    H152479   3.885   4.004   3.742 -1.5533  0.4417 -0.5548
 9428TIP3    H252480   3.769   3.907   3.738  0.8447 -2.6410  0.2963
 9429TIP3   OH252481   3.992   0.786   3.164  0.7029 -0.2950  0.0304
 9429TIP3    H152482   3.994   0.752   3.075  0.0515  0.4471 -0.2782
 9429TIP3    H252483   4.004   0.709   3.220  0.2639 -0.8816 -0.6711
 9430TIP3   OH252484   4.060   2.839   3.145  0.1489 -0.2047 -0.1630
 9430TIP3    H152485   4.144   2.846   3.191  0.0093 -0.6376  0.1641
 9430TIP3    H252486   4.000   2.804   3.211  0.2621 -2.1763 -1.0625
 9431TIP3   OH252487   4.986   2.267   3.883  0.1309 -0.4587  0.6436
 9431TIP3    H152488   4.947   2.181   3.896 -0.7689  0.0182  1.1399
 9431TIP3    H252489   4.940   2.325   3.943  0.4536  0.4550  0.0396
 9432TIP3   OH252490   4.678   0.942   3.313  0.4244 -0.0800  0.7890
 9432TIP3    H152491   4.652   0.919   3.402  0.3595  1.5942  1.2480
 9432TIP3    H252492   4.766   0.906   3.302  0.4025 -0.3568  1.5129
 9433TIP3   OH252493   5.650   1.776   3.670 -0.2396 -0.0017  0.1150
 9433TIP3    H152494   5.667   1.742   3.583  1.0588  2.9942 -0.9216
 9433TIP3    H252495   5.737   1.796   3.706 -0.7825 -0.5221  1.8327
 9434TIP3   OH252496   5.256   6.324   1.942 -0.5179  0.7813 -0.3219
 9434TIP3    H152497   5.327   6.272   1.980 -2.3226 -1.1848  0.5685
 9434TIP3    H252498   5.267   6.411   1.980  1.1504  0.4185  0.1092
 9435TIP3   OH252499   2.952   5.559   3.257  0.6526 -0.4398 -0.0836
 9435TIP3    H152500   2.870   5.567   3.208 -0.0118 -0.1831  1.0548
 9435TIP3    H252501   3.001   5.639   3.235  0.7165 -0.6964 -0.9333
 9436TIP3   OH252502   2.582   6.546   3.173  0.2412  0.2393  0.3307
 9436TIP3    H152503   2.493   6.548   3.207 -0.7938  1.1037 -2.1739
 9436TIP3    H252504   2.618   6.463   3.202 -0.8416  0.5022  2.5962
 9437TIP3   OH252505   6.222   0.169   2.717 -0.0017 -0.4192 -0.1523
 9437TIP3    H152506   6.191   0.154   2.628 -1.5034 -0.5704  0.3725
 9437TIP3    H252507   6.303   0.119   2.723  0.9693  0.8234 -1.8898
 9438TIP3   OH252508   5.044   6.129   2.032  0.3196 -0.4230 -0.3859
 9438TIP3    H152509   4.981   6.179   2.084  0.0921 -0.8803 -0.2165
 9438TIP3    H252510   5.117   6.189   2.020 -0.2365  0.1927 -0.7722
 9439TIP3   OH252511   5.806   5.768   3.109  0.3209 -0.0378 -0.0816
 9439TIP3    H152512   5.792   5.719   3.028  0.0828 -0.0868 -0.0099
 9439TIP3    H252513   5.872   5.717   3.157  0.2250 -0.1777 -0.0999
 9440TIP3   OH252514   0.743   4.146   2.803  0.1327  0.2144  0.3148
 9440TIP3    H152515   0.721   4.239   2.795  0.7071  0.3248 -0.0623
 9440TIP3    H252516   0.800   4.142   2.880  0.6542  0.2826 -0.0613
 9441TIP3   OH252517   3.401   4.395   1.957  0.4073  0.3482 -0.7070
 9441TIP3    H152518   3.485   4.430   1.988  0.1961  2.4252 -2.2405
 9441TIP3    H252519   3.337   4.462   1.982 -1.0984 -1.7806  1.5908
 9442TIP3   OH252520   1.585   0.423   2.426 -0.4317  0.1015  0.3472
 9442TIP3    H152521   1.592   0.392   2.516  0.5426 -0.4665  0.0950
 9442TIP3    H252522   1.509   0.376   2.390  0.2408 -1.0211  0.3632
 9443TIP3   OH252523   3.529   1.448   3.556 -0.2173 -0.9821  0.1246
 9443TIP3    H152524   3.462   1.387   3.585 -0.5149 -0.8535 -0.2957
 9443TIP3    H252525   3.537   1.511   3.628 -1.0789 -0.5588 -0.1498
 9444TIP3   OH252526   1.367   5.332   1.979  0.3017  0.0147 -0.2166
 9444TIP3    H152527   1.380   5.321   1.885  0.2698  1.4287 -0.4076
 9444TIP3    H252528   1.443   5.288   2.019  1.0287  0.5569 -0.9596
 9445TIP3   OH252529   4.082   5.723   2.468 -0.5452  0.5596  0.1100
 9445TIP3    H152530   4.100   5.645   2.415  0.5160  1.4797 -0.9315
 9445TIP3    H252531   4.061   5.791   2.405 -0.3179  1.4185  0.9391
 9446TIP3   OH252532   1.592   5.347   3.803 -0.1415 -0.6560 -0.1241
 9446TIP3    H152533   1.678   5.342   3.761 -0.3141 -0.4008 -0.5118
 9446TIP3    H252534   1.548   5.266   3.776 -0.2728 -0.4665 -0.4860
 9447TIP3   OH252535   4.076   1.728   3.256 -0.3049  0.4611  0.5465
 9447TIP3    H152536   3.985   1.718   3.229 -0.2013 -4.1051  1.1069
 9447TIP3    H252537   4.073   1.790   3.329 -2.8686  0.7710  0.2476
 9448TIP3   OH252538   6.134   5.414   3.715 -0.1197 -0.7302  0.4980
 9448TIP3    H152539   6.211   5.410   3.659  0.2802  0.6218  0.9246
 9448TIP3    H252540   6.146   5.342   3.777  0.4140 -0.9928  0.1000
 9449TIP3   OH252541   6.532   3.515   4.383  0.1222  0.0703  0.5698
 9449TIP3    H152542   6.494   3.553   4.462 -0.9585 -2.0561  1.1475
 9449TIP3    H252543   6.472   3.445   4.359  1.9135 -1.1739 -0.5054
 9450TIP3   OH252544   6.058   6.188   3.986 -0.4348 -0.7339 -0.2152
 9450TIP3    H152545   6.007   6.256   4.029 -0.2217 -1.8448  1.9365
 9450TIP3    H252546   6.059   6.116   4.048 -0.6854 -2.7644 -2.4238
 9451TIP3   OH252547   5.315   2.090   4.553  0.3483 -0.1068 -0.1583
 9451TIP3    H152548   5.256   2.059   4.621  0.4465 -0.1417 -0.0888
 9451TIP3    H252549   5.317   2.018   4.489  0.1441 -0.0147 -0.2695
 9452TIP3   OH252550   1.498   2.848   4.427 -0.2287 -0.3504 -0.0381
 9452TIP3    H152551   1.477   2.936   4.458 -1.3921 -0.3848 -0.6530
 9452TIP3    H252552   1.586   2.855   4.390  0.3538  0.1512  1.3850
 9453TIP3   OH252553   0.601   3.973   2.204  0.1740  0.5716  0.3278
 9453TIP3    H152554   0.588   3.908   2.274 -1.1295 -0.3057 -0.6786
 9453TIP3    H252555   0.696   3.981   2.198  0.3587 -0.6675  1.0178
 9454TIP3   OH252556   0.557   1.220   3.140  0.3158 -0.1746 -0.2511
 9454TIP3    H152557   0.538   1.251   3.052  0.5454  0.3025 -0.1357
 9454TIP3    H252558   0.503   1.275   3.197  0.1763 -0.4718 -0.0906
 9455TIP3   OH252559   3.176   4.561   2.029  0.0213  0.0784  0.0943
 9455TIP3    H152560   3.241   4.630   2.015 -1.0572  0.9363 -0.9425
 9455TIP3    H252561   3.105   4.603   2.077 -0.4512 -0.4158 -0.1508
 9456TIP3   OH252562   2.858   0.033   3.670  0.5046 -0.2288 -0.0354
 9456TIP3    H152563   2.777   0.071   3.704  0.9287  0.0805  0.6588
 9456TIP3    H252564   2.926   0.095   3.697  0.9752 -0.4827 -0.6163
 9457TIP3   OH252565   2.862   5.172   3.542  0.1919 -0.0776 -0.4278
 9457TIP3    H152566   2.771   5.200   3.528  0.5205  0.6957 -1.1277
 9457TIP3    H252567   2.907   5.199   3.462  0.8783 -1.1792 -0.4257
 9458TIP3   OH252568   1.586   4.780   2.133 -0.5441 -0.2862  0.5681
 9458TIP3    H152569   1.612   4.689   2.146  0.5600 -0.0861 -0.0835
 9458TIP3    H252570   1.553   4.808   2.219 -0.7293 -1.2420  0.8166
 9459TIP3   OH252571   0.306   4.157   3.626 -0.0708  0.2109  0.1905
 9459TIP3    H152572   0.250   4.150   3.549 -1.3259 -1.8122  1.2133
 9459TIP3    H252573   0.332   4.249   3.628 -0.2613  0.3949 -2.4286
 9460TIP3   OH252574   2.840   4.846   4.610  0.4491  0.3712  0.2077
 9460TIP3    H152575   2.794   4.801   4.681  0.2113 -0.5849 -0.5249
 9460TIP3    H252576   2.907   4.784   4.582  0.6718  0.8219 -0.2672
 9461TIP3   OH252577   2.068   6.656   2.929  0.4162 -0.6430  0.1464
 9461TIP3    H152578   2.103   6.613   2.852  0.0954  0.0094 -0.3787
 9461TIP3    H252579   2.141   6.709   2.963  0.2196  0.0109 -0.4216
 9462TIP3   OH252580   2.601   2.276   4.529 -0.2625 -0.0565  0.3565
 9462TIP3    H152581   2.526   2.221   4.506  0.2498 -1.4469  1.8111
 9462TIP3    H252582   2.628   2.244   4.615  1.6228  0.8297  0.1358
 9463TIP3   OH252583   4.780   1.807   2.186 -0.2450 -0.2314 -0.1566
 9463TIP3    H152584   4.839   1.832   2.256 -0.2819  0.6745 -0.4346
 9463TIP3    H252585   4.797   1.714   2.172 -0.5193 -0.5311  1.3169
 9464TIP3   OH252586   6.124   1.289   4.374  0.5533  0.0339  0.1452
 9464TIP3    H152587   6.159   1.378   4.368 -0.8375  0.5276 -1.4661
 9464TIP3    H252588   6.153   1.257   4.459 -2.7509  3.7359  3.0759
 9465TIP3   OH252589   1.588   2.543   4.817 -0.6680 -0.2013  0.0859
 9465TIP3    H152590   1.630   2.529   4.901  1.2019 -1.1172 -0.9383
 9465TIP3    H252591   1.596   2.638   4.802  0.8205 -0.3099  0.0595
 9466TIP3   OH252592   4.437   1.607   3.574 -0.2026  0.5440 -0.2508
 9466TIP3    H152593   4.458   1.690   3.530  0.4820  0.1997 -0.5922
 9466TIP3    H252594   4.342   1.602   3.571 -0.2450  1.2637 -0.3343
 9467TIP3   OH252595   4.553   3.754   3.875  0.0614  0.2507 -0.7607
 9467TIP3    H152596   4.579   3.774   3.785 -0.9716  0.8595 -0.9341
 9467TIP3    H252597   4.570   3.660   3.884  0.5044  0.2521 -1.4732
 9468TIP3   OH252598   1.455   1.872   2.849  0.8493 -0.0177  0.5894
 9468TIP3    H152599   1.500   1.807   2.795 -2.3667 -2.1189  0.1158
 9468TIP3    H252600   1.422   1.936   2.786 -0.3711 -0.8501  0.3353
 9469TIP3   OH252601   3.901   6.560   3.134  0.2209  0.1807  0.1559
 9469TIP3    H152602   3.908   6.469   3.104  1.0801  0.4203 -0.3861
 9469TIP3    H252603   3.834   6.557   3.203  0.5881 -0.9484  0.4866
 9470TIP3   OH252604   5.345   3.291   3.659 -0.2024 -0.3140  0.6212
 9470TIP3    H152605   5.296   3.368   3.687 -0.7136 -0.7903  1.0560
 9470TIP3    H252606   5.322   3.223   3.722 -1.5013 -1.4762 -0.9976
 9471TIP3   OH252607   1.191   6.239   3.418  0.2730  0.1610  0.1351
 9471TIP3    H152608   1.170   6.146   3.409  0.9410  0.0805 -0.6743
 9471TIP3    H252609   1.159   6.279   3.337 -0.6263  0.7680  0.7688
 9472TIP3   OH252610   5.891   6.189   2.410  0.0127 -0.7021  0.1783
 9472TIP3    H152611   5.959   6.122   2.414  1.8087  1.0495  0.2879
 9472TIP3    H252612   5.868   6.194   2.318  1.2711 -0.1461 -0.1233
 9473TIP3   OH252613   3.144   6.638   4.007  0.1716  0.5319 -0.1516
 9473TIP3    H152614   3.122   6.731   4.003 -1.4790  0.1844 -0.0406
 9473TIP3    H252615   3.214   6.632   4.071  0.0948  1.6585  0.0613
 9474TIP3   OH252616   2.384   1.011   2.209  0.4084 -0.1470  0.1680
 9474TIP3    H152617   2.451   1.079   2.213  3.7512 -3.1784  0.9198
 9474TIP3    H252618   2.305   1.055   2.240  1.9975  3.6124 -0.4389
 9475TIP3   OH252619   2.097   1.898   5.050 -0.4461 -0.0880  0.1469
 9475TIP3    H152620   2.101   1.988   5.081  0.5911 -0.7679  2.1537
 9475TIP3    H252621   2.080   1.845   5.128  1.7642 -1.8564 -0.4370
 9476TIP3   OH252622   5.840   5.870   3.914 -0.0797  0.3937 -0.0405
 9476TIP3    H152623   5.888   5.793   3.884 -0.5147 -0.1891  0.7315
 9476TIP3    H252624   5.893   5.944   3.884  0.2508 -0.1880 -0.9474
 9477TIP3   OH252625   6.773   0.969   4.444  0.0295 -0.1152  0.7309
 9477TIP3    H152626   6.753   1.048   4.394 -1.8072 -0.0068  1.5714
 9477TIP3    H252627   6.794   0.904   4.378 -0.0131  0.6512 -0.0538
 9478TIP3   OH252628   5.518   5.444   3.964  0.2239 -0.2950 -0.2649
 9478TIP3    H152629   5.430   5.410   3.977  0.4114 -0.0037  2.1502
 9478TIP3    H252630   5.506   5.523   3.911 -0.9087 -0.4841 -0.3075
 9479TIP3   OH252631   1.144   0.915   4.114  0.1795 -0.3414  0.2399
 9479TIP3    H152632   1.211   0.857   4.078  1.0722  0.6139  0.2956
 9479TIP3    H252633   1.083   0.857   4.159 -1.4145 -1.7318 -3.3110
 9480TIP3   OH252634   2.798   1.967   4.847  0.2556  0.8235 -0.1952
 9480TIP3    H152635   2.757   1.986   4.932 -3.1127  1.5635 -1.7838
 9480TIP3    H252636   2.821   1.874   4.851  0.1560  0.8446  1.5151
 9481TIP3   OH252637   2.193   2.292   4.269  0.0218 -0.4524  0.1592
 9481TIP3    H152638   2.118   2.247   4.309 -0.4199 -0.4280 -0.6103
 9481TIP3    H252639   2.242   2.223   4.225 -0.3962 -0.2711 -0.6215
 9482TIP3   OH252640   6.176   6.419   3.167  0.2186  0.2245  0.0265
 9482TIP3    H152641   6.266   6.411   3.134  0.0813  1.2540 -0.6584
 9482TIP3    H252642   6.121   6.388   3.096  0.0096 -0.1736  0.3544
 9483TIP3   OH252643   6.236   6.498   3.679  0.2953  0.3694 -0.1360
 9483TIP3    H152644   6.219   6.589   3.703 -0.2424 -0.0342  1.1145
 9483TIP3    H252645   6.219   6.494   3.585 -2.0313  1.0779  0.1933
 9484TIP3   OH252646   2.957   3.971   4.699 -0.3862  0.3422  0.6696
 9484TIP3    H152647   2.951   3.883   4.736 -3.0671 -0.5575 -1.4896
 9484TIP3    H252648   2.905   4.025   4.758 -4.1617 -0.9601 -1.1421
 9485TIP3   OH252649   6.646   6.011   3.908  0.7626  0.1969  0.3824
 9485TIP3    H152650   6.623   5.922   3.883 -1.2413  0.3962  1.3920
 9485TIP3    H252651   6.605   6.066   3.841  3.0095  0.3899 -0.9519
 9486TIP3   OH252652   2.214   3.003   2.820  0.7060 -0.5938  0.4101
 9486TIP3    H152653   2.292   2.959   2.855  1.5486  2.1336  2.2486
 9486TIP3    H252654   2.244   3.091   2.799 -1.0756 -0.5421 -2.4617
 9487TIP3   OH252655   6.300   3.337   4.648  0.0196  0.2612 -0.5366
 9487TIP3    H152656   6.328   3.425   4.672 -1.5701  0.9052 -0.9182
 9487TIP3    H252657   6.275   3.296   4.731 -1.4802  1.0259 -0.5687
 9488TIP3   OH252658   6.762   3.973   2.366 -0.1659 -0.1274  0.1726
 9488TIP3    H152659   6.844   3.997   2.322 -0.9645 -0.0817 -1.3663
 9488TIP3    H252660   6.696   4.030   2.326 -1.1866 -1.1493  0.3562
 9489TIP3   OH252661   3.877   2.695   3.316 -0.0519  0.8666  0.4684
 9489TIP3    H152662   3.805   2.749   3.348 -2.0006 -0.4242 -1.4917
 9489TIP3    H252663   3.872   2.616   3.370  1.4282  1.6775  1.8750
 9490TIP3   OH252664   4.744   2.915   1.974  0.2586  0.2168 -0.6300
 9490TIP3    H152665   4.809   2.978   2.006 -0.3083 -0.3552  1.8581
 9490TIP3    H252666   4.663   2.939   2.018  0.1607 -2.5830  0.9407
 9491TIP3   OH252667   5.353   0.816   3.598 -0.1930 -0.5661 -0.5233
 9491TIP3    H152668   5.419   0.747   3.600  0.9507  0.4430 -1.4396
 9491TIP3    H252669   5.402   0.897   3.616 -1.7413 -0.1097  2.1216
 9492TIP3   OH252670   1.104   0.230   4.917  0.3360 -0.1730 -0.6527
 9492TIP3    H152671   1.190   0.228   4.960 -0.3761 -1.7640  0.8536
 9492TIP3    H252672   1.053   0.293   4.969 -0.2590 -1.4527  0.4057
 9493TIP3   OH252673   5.434   3.369   4.535 -0.4800 -0.3046  0.0729
 9493TIP3    H152674   5.461   3.303   4.599  0.5506  1.2035  1.2822
 9493TIP3    H252675   5.360   3.414   4.576 -0.4385  0.0400 -0.2257
 9494TIP3   OH252676   5.873   4.055   4.145 -0.0793 -0.2516  0.1469
 9494TIP3    H152677   5.799   3.995   4.153  0.2350 -1.1569 -2.4841
 9494TIP3    H252678   5.938   4.006   4.094  1.3960  1.3122  0.4266
 9495TIP3   OH252679   2.779   5.920   2.246  0.5400 -0.3164  0.0869
 9495TIP3    H152680   2.784   6.016   2.238 -2.2424 -0.1676 -0.9739
 9495TIP3    H252681   2.739   5.891   2.165  2.6976 -2.6320 -0.2641
 9496TIP3   OH252682   2.968   3.375   3.581  0.1832  0.5724  0.2223
 9496TIP3    H152683   2.966   3.397   3.675 -0.6409 -0.2289  0.4086
 9496TIP3    H252684   3.041   3.315   3.572  1.2142  1.8074  0.0627
 9497TIP3   OH252685   0.672   3.010   3.556 -0.3394  0.4904  0.4840
 9497TIP3    H152686   0.627   2.937   3.515  0.4407 -0.0152  0.5112
 9497TIP3    H252687   0.692   3.070   3.485  1.8260 -0.8026 -0.0940
 9498TIP3   OH252688   4.872   2.115   3.463 -0.1102  0.5111 -0.3091
 9498TIP3    H152689   4.846   2.026   3.488 -0.0961  0.2000 -1.3222
 9498TIP3    H252690   4.949   2.134   3.517  1.4146 -1.0849 -1.7844
 9499TIP3   OH252691   0.766   5.118   3.367  0.6685 -0.2365  0.4428
 9499TIP3    H152692   0.815   5.199   3.355 -1.1583  1.1498  1.6721
 9499TIP3    H252693   0.793   5.085   3.453  1.9681 -1.3925 -0.3773
 9500TIP3   OH252694   4.641   4.653   3.975 -0.2993 -0.0340  0.0976
 9500TIP3    H152695   4.670   4.660   4.066 -1.0027  1.1250  0.2584
 9500TIP3    H252696   4.684   4.574   3.942 -2.8096 -2.6323  2.4642
 9501TIP3   OH252697   3.447   4.799   2.309 -0.0494 -0.3557  0.1018
 9501TIP3    H152698   3.466   4.705   2.312  2.4688  0.0893  0.6699
 9501TIP3    H252699   3.370   4.810   2.364  0.7778 -1.8965  1.6820
 9502TIP3   OH252700   5.368   1.887   4.884 -0.5120  0.5698 -0.9703
 9502TIP3    H152701   5.388   1.927   4.968 -0.6642  0.3242 -0.8188
 9502TIP3    H252702   5.443   1.830   4.866  0.2106  1.6860 -1.6726
 9503TIP3   OH252703   5.559   3.170   2.689  0.5586 -0.0087  0.6864
 9503TIP3    H152704   5.632   3.204   2.740  0.5983  1.1446 -0.1067
 9503TIP3    H252705   5.584   3.184   2.597 -0.0091 -0.9842  0.3568
 9504TIP3   OH252706   4.956   6.062   2.391  0.0186  0.0678 -0.2054
 9504TIP3    H152707   5.042   6.047   2.428  0.0708 -0.2127 -0.4387
 9504TIP3    H252708   4.899   6.077   2.466  0.1437 -0.3897 -0.0197
 9505TIP3   OH252709   0.174   1.474   3.062 -0.5431 -0.4743 -0.5964
 9505TIP3    H152710   0.161   1.524   2.982 -0.0167  0.0177 -0.3850
 9505TIP3    H252711   0.090   1.430   3.077 -1.6704  1.7417  0.1559
 9506TIP3   OH252712   0.367   0.766   3.899 -0.2751  0.0808 -0.0803
 9506TIP3    H152713   0.398   0.678   3.918 -0.4052  0.1723  0.5673
 9506TIP3    H252714   0.445   0.814   3.872  0.3280  0.4871  2.1618
 9507TIP3   OH252715   0.597   5.813   2.410  0.2324  0.1568 -0.1381
 9507TIP3    H152716   0.621   5.905   2.425 -1.8154  0.6083  0.6252
 9507TIP3    H252717   0.508   5.817   2.377 -0.6339 -1.6403  1.7885
 9508TIP3   OH252718   5.256   2.343   2.884  0.0002  0.2298  0.3864
 9508TIP3    H152719   5.164   2.359   2.907  0.5598  1.0745  2.2537
 9508TIP3    H252720   5.287   2.427   2.850  0.7523  0.8389  2.3846
 9509TIP3   OH252721   4.624   4.009   5.201 -0.0821 -0.2804 -0.0681
 9509TIP3    H152722   4.632   4.050   5.287  0.7845  3.8075 -1.8587
 9509TIP3    H252723   4.537   3.968   5.202 -0.4444  0.3774  2.4120
 9510TIP3   OH252724   2.244   0.322   3.906 -0.8750 -0.0708 -0.5578
 9510TIP3    H152725   2.156   0.359   3.907 -1.1505 -0.6861  1.6481
 9510TIP3    H252726   2.236   0.239   3.952  0.8796 -0.0625 -0.1697
 9511TIP3   OH252727   5.480   6.230   3.895 -0.4507 -0.8281 -0.7068
 9511TIP3    H152728   5.504   6.142   3.924  2.7227 -0.2595 -1.2791
 9511TIP3    H252729   5.563   6.278   3.890 -2.1272  2.6311  0.8358
 9512TIP3   OH252730   5.202   6.338   2.532  0.1379  0.3367 -0.1467
 9512TIP3    H152731   5.212   6.248   2.501 -0.2346 -0.0651  0.8670
 9512TIP3    H252732   5.225   6.392   2.456 -1.0672 -0.6070 -1.2371
 9513TIP3   OH252733   0.564   0.069   3.239 -0.1232 -0.3198  0.2274
 9513TIP3    H152734   0.560   0.163   3.223 -0.5178 -0.2894  0.4741
 9513TIP3    H252735   0.656   0.046   3.230 -0.3512 -0.4874 -3.0452
 9514TIP3   OH252736   0.062   1.911   3.886 -0.0891  0.5400 -0.4399
 9514TIP3    H152737   0.126   1.981   3.873  2.7685 -1.7670  0.0038
 9514TIP3    H252738   0.063   1.861   3.804 -0.0359 -0.4752  0.1539
 9515TIP3   OH252739   5.075   4.327   2.430 -0.0704 -0.2802 -0.2380
 9515TIP3    H152740   5.101   4.401   2.485  0.7893 -0.5864 -0.2205
 9515TIP3    H252741   5.018   4.365   2.363  1.8641  0.7391 -1.3765
 9516TIP3   OH252742   1.171   1.943   3.824 -0.1723  0.8003  0.1463
 9516TIP3    H152743   1.247   1.888   3.806 -1.5855 -1.1200 -0.2708
 9516TIP3    H252744   1.149   1.924   3.916  0.2113  1.8307  0.4607
 9517TIP3   OH252745   3.731   1.175   2.678  0.0365  0.1671 -0.2256
 9517TIP3    H152746   3.756   1.173   2.770 -1.4811  1.0962  0.2612
 9517TIP3    H252747   3.796   1.122   2.633  1.2629  0.3480  1.2733
 9518TIP3   OH252748   0.148   5.974   3.679 -0.2536  0.1290  0.7811
 9518TIP3    H152749   0.130   6.026   3.758  0.8004  1.2908  0.2933
 9518TIP3    H252750   0.233   6.005   3.649  0.0597 -1.3848  0.0296
 9519TIP3   OH252751   0.253   1.703   2.646 -0.0171  0.3795 -0.2964
 9519TIP3    H152752   0.311   1.691   2.571 -1.0406  1.3449 -1.3078
 9519TIP3    H252753   0.307   1.747   2.712  1.4478 -2.2063  0.3558
 9520TIP3   OH252754   3.188   4.993   5.346  0.3078 -0.4453  0.1422
 9520TIP3    H152755   3.273   4.962   5.376  0.5480  0.3331  0.2968
 9520TIP3    H252756   3.148   5.031   5.424 -1.0296 -2.5334  0.5560
 9521TIP3   OH252757   6.042   5.981   2.734 -0.5278 -0.2714 -0.6769
 9521TIP3    H152758   5.975   6.002   2.800 -0.0977 -1.8138  0.3111
 9521TIP3    H252759   6.123   6.016   2.770  0.0226 -2.6083  0.5268
 9522TIP3   OH252760   5.601   6.243   5.151  0.1691 -0.2440  0.2052
 9522TIP3    H152761   5.654   6.268   5.227  0.0907 -0.8853  0.4831
 9522TIP3    H252762   5.519   6.211   5.189 -0.7003  1.3405 -0.2415
 9523TIP3   OH252763   5.896   0.486   4.163  0.1055 -0.6383 -0.2051
 9523TIP3    H152764   5.955   0.561   4.172 -0.6393 -0.0361 -0.2903
 9523TIP3    H252765   5.808   0.524   4.165 -0.2839 -1.5207 -0.1435
 9524TIP3   OH252766   0.104   1.436   3.421 -0.2309 -0.2240  0.1376
 9524TIP3    H152767   0.118   1.343   3.402 -0.3362 -1.1489  3.7621
 9524TIP3    H252768   0.102   1.440   3.517  1.0816  3.7354  0.1682
 9525TIP3   OH252769   1.640   5.065   3.522 -0.1235 -0.2633 -0.7326
 9525TIP3    H152770   1.547   5.044   3.518 -0.1033 -0.3074 -0.9800
 9525TIP3    H252771   1.666   5.080   3.431  0.2562 -0.8848 -0.7298
 9526TIP3   OH252772   6.503   4.429   3.230 -0.7337 -0.1341  0.7399
 9526TIP3    H152773   6.449   4.353   3.252 -1.9019  0.3286 -0.4094
 9526TIP3    H252774   6.454   4.474   3.162  0.7924  0.7017  0.1592
 9527TIP3   OH252775   1.906   6.467   4.010  0.0320  0.1275  0.0380
 9527TIP3    H152776   1.900   6.436   4.101 -0.7972  0.1629  0.0069
 9527TIP3    H252777   1.885   6.560   4.016  0.7295  0.2947 -0.0978
 9528TIP3   OH252778   6.280   3.133   5.597  0.1147 -0.0555  0.4454
 9528TIP3    H152779   6.218   3.189   5.550  2.4056  1.7489 -0.6300
 9528TIP3    H252780   6.308   3.186   5.672  0.7147 -0.6150  0.6228
 9529TIP3   OH252781   3.325   0.406   2.066 -0.7759  0.0303  0.1011
 9529TIP3    H152782   3.253   0.343   2.067  0.3489 -1.3194  1.2192
 9529TIP3    H252783   3.388   0.371   2.130  0.3961  1.7148 -0.0660
 9530TIP3   OH252784   4.234   4.898   4.100 -0.4495 -0.2585 -0.2842
 9530TIP3    H152785   4.242   4.907   4.194 -0.3061  1.3599 -0.4312
 9530TIP3    H252786   4.323   4.878   4.070  0.0564  1.8247 -0.3081
 9531TIP3   OH252787   4.100   5.464   2.713  0.0376 -0.0387  0.2001
 9531TIP3    H152788   4.122   5.454   2.806 -0.0654 -1.6812  0.0717
 9531TIP3    H252789   4.165   5.412   2.667  1.4025  2.4283 -0.8604
 9532TIP3   OH252790   5.409   0.309   3.551 -0.1626 -0.7637  0.3837
 9532TIP3    H152791   5.470   0.308   3.477 -0.3306  1.9433  0.0996
 9532TIP3    H252792   5.347   0.239   3.533  0.0157 -0.3928 -1.8559
 9533TIP3   OH252793   5.082   1.538   3.218  0.7502  0.2869 -0.1597
 9533TIP3    H152794   5.030   1.553   3.297  1.5238 -1.8761  0.8412
 9533TIP3    H252795   5.046   1.458   3.180 -0.1003  1.6749 -2.5138
 9534TIP3   OH252796   1.881   3.188   3.872  0.2313 -0.5929 -0.2009
 9534TIP3    H152797   1.900   3.127   3.944 -0.6967 -1.2259 -0.4666
 9534TIP3    H252798   1.820   3.251   3.910  3.0979  1.7850  0.8231
 9535TIP3   OH252799   2.481   6.144   3.567 -0.6636  0.5882  0.7510
 9535TIP3    H152800   2.491   6.059   3.610  0.4959  0.7587  0.8437
 9535TIP3    H252801   2.422   6.194   3.624 -2.4977 -0.6035 -0.0019
 9536TIP3   OH252802   5.162   1.458   4.462 -0.3753  0.2673  0.0117
 9536TIP3    H152803   5.087   1.404   4.439 -2.3026  2.1732  1.5109
 9536TIP3    H252804   5.209   1.406   4.528 -0.6836 -0.6967 -0.5151
 9537TIP3   OH252805   1.625   4.303   3.957  0.1797  0.5882  0.0942
 9537TIP3    H152806   1.642   4.209   3.951 -0.8857  0.2491  1.7104
 9537TIP3    H252807   1.551   4.310   4.017 -0.7817  2.3777 -1.2197
 9538TIP3   OH252808   5.849   0.150   5.408  0.1634  0.9231 -0.4908
 9538TIP3    H152809   5.888   0.072   5.448  3.3103  1.6223 -1.8242
 9538TIP3    H252810   5.841   0.213   5.480  0.9247  0.4952 -0.0132
 9539TIP3   OH252811   6.484   5.717   2.685  0.2215  0.1313  0.6886
 9539TIP3    H152812   6.390   5.701   2.695  0.2789  0.7551  2.5395
 9539TIP3    H252813   6.525   5.635   2.710  0.1660 -0.4740 -1.1082
 9540TIP3   OH252814   1.045   6.129   4.742  0.2404 -0.1859 -0.2862
 9540TIP3    H152815   0.987   6.203   4.759  0.7184  0.5890 -1.8404
 9540TIP3    H252816   1.013   6.092   4.659  2.3265  0.7028 -1.5614
 9541TIP3   OH252817   1.192   3.546   3.801  0.2977  0.3468  0.2937
 9541TIP3    H152818   1.131   3.510   3.865  0.8273 -1.1062  0.0044
 9541TIP3    H252819   1.137   3.567   3.725  0.2285 -1.7789 -0.3030
 9542TIP3   OH252820   1.194   5.693   3.866  0.1220 -0.0856  0.1576
 9542TIP3    H152821   1.285   5.667   3.855  1.0619  0.6292  4.5153
 9542TIP3    H252822   1.144   5.612   3.858  1.5511 -1.0858  0.9848
 9543TIP3   OH252823   6.041   4.474   3.161  0.0789  0.0364  0.3928
 9543TIP3    H152824   5.986   4.459   3.238 -1.3029  0.8540 -0.3940
 9543TIP3    H252825   5.981   4.506   3.094  1.7591  2.8073  0.0343
 9544TIP3   OH252826   1.261   1.428   3.332 -0.0728 -0.6702  0.7595
 9544TIP3    H152827   1.223   1.395   3.251  2.0678 -0.5690 -0.3835
 9544TIP3    H252828   1.256   1.355   3.393  2.7013 -2.6130 -1.0706
 9545TIP3   OH252829   2.507   5.186   2.744  0.4240 -0.4989 -0.2394
 9545TIP3    H152830   2.569   5.147   2.682  1.7186 -0.0325  0.7204
 9545TIP3    H252831   2.561   5.240   2.801 -0.9426  0.2580  0.3739
 9546TIP3   OH252832   5.427   5.399   3.644  0.5994  0.1792 -0.1748
 9546TIP3    H152833   5.368   5.363   3.710  2.0148 -0.1818  0.9465
 9546TIP3    H252834   5.414   5.344   3.567 -0.2495 -0.1216  0.1769
 9547TIP3   OH252835   6.553   6.001   5.616  0.5552 -0.7188 -0.2514
 9547TIP3    H152836   6.473   5.956   5.591  0.2937  0.5567 -1.7899
 9547TIP3    H252837   6.540   6.092   5.591  1.8818 -0.1613  0.9091
 9548TIP3   OH252838   6.207   0.653   3.944 -0.0876  0.2959  0.2691
 9548TIP3    H152839   6.127   0.601   3.949 -0.7551  1.4270  3.0594
 9548TIP3    H252840   6.192   0.713   3.871 -1.2835 -0.2681  0.0247
 9549TIP3   OH252841   5.595   2.378   2.920 -0.2306 -0.0032  0.5384
 9549TIP3    H152842   5.538   2.343   2.988 -0.0280 -1.3544  0.0401
 9549TIP3    H252843   5.561   2.466   2.903 -0.2364  0.4129  2.4205
 9550TIP3   OH252844   1.765   6.267   2.693  0.0674  0.5149  0.2523
 9550TIP3    H152845   1.731   6.231   2.611 -0.9579 -0.6741  1.1455
 9550TIP3    H252846   1.858   6.283   2.676 -0.1468  0.3981 -1.1624
 9551TIP3   OH252847   4.492   4.484   2.361 -0.6162 -0.3863  0.8816
 9551TIP3    H152848   4.498   4.444   2.448  0.4795  0.0955  1.0393
 9551TIP3    H252849   4.555   4.556   2.362 -2.0716  0.9605  0.3770
 9552TIP3   OH252850   4.533   2.229   3.094 -0.2876  0.3248  0.4221
 9552TIP3    H152851   4.461   2.167   3.082 -0.8549  1.0426 -0.0092
 9552TIP3    H252852   4.592   2.186   3.155  0.7217 -1.8272 -1.8594
 9553TIP3   OH252853   2.108   5.431   5.395 -0.1716  0.6311  0.2935
 9553TIP3    H152854   2.118   5.398   5.485 -0.6486  0.3065  0.2279
 9553TIP3    H252855   2.100   5.526   5.406  1.3805  0.7813  0.4706
 9554TIP3   OH252856   2.857   4.690   3.303 -0.3224  0.0397 -0.1530
 9554TIP3    H152857   2.878   4.742   3.226 -0.3480 -0.1377 -0.2819
 9554TIP3    H252858   2.920   4.718   3.369 -0.5863  0.5055 -0.0998
 9555TIP3   OH252859   3.439   3.053   4.329  0.3721 -0.1036 -0.3148
 9555TIP3    H152860   3.345   3.073   4.335  0.2337 -0.8658  0.1582
 9555TIP3    H252861   3.451   3.023   4.239 -0.1068 -1.3044  0.0102
 9556TIP3   OH252862   5.031   2.900   5.076 -0.5182  0.4976  0.2337
 9556TIP3    H152863   5.093   2.838   5.038  0.3597  1.6149 -0.2068
 9556TIP3    H252864   5.079   2.939   5.149 -0.7479  1.2897 -0.0388
 9557TIP3   OH252865   3.870   6.488   2.555  0.2059  0.1625 -0.2657
 9557TIP3    H152866   3.858   6.562   2.495  0.7495  0.3855 -0.1054
 9557TIP3    H252867   3.950   6.509   2.603  0.2853 -0.4630 -0.1171
 9558TIP3   OH252868   2.518   2.038   3.356  0.3655  0.2507 -0.3634
 9558TIP3    H152869   2.518   2.110   3.293  0.6826  1.1680  0.6258
 9558TIP3    H252870   2.438   2.051   3.407 -0.1875 -0.8226 -0.9314
 9559TIP3   OH252871   2.736   6.819   3.366  0.0863  0.1844 -0.5303
 9559TIP3    H152872   2.811   6.840   3.310  0.3353  0.6117 -0.0430
 9559TIP3    H252873   2.679   6.765   3.310 -0.0354  1.2286 -1.4426
 9560TIP3   OH252874   0.436   1.696   2.446  0.8916 -0.1122 -0.0451
 9560TIP3    H152875   0.436   1.713   2.352  0.1888  0.5929  0.0682
 9560TIP3    H252876   0.528   1.698   2.472  1.0318  0.4368 -0.5877
 9561TIP3   OH252877   3.443   2.993   2.089  0.1303  0.0705  0.3670
 9561TIP3    H152878   3.350   3.002   2.068 -0.1366 -0.4102  1.3032
 9561TIP3    H252879   3.465   3.073   2.136  0.7257  1.1396 -1.5822
 9562TIP3   OH252880   6.417   0.689   2.056 -0.2273 -0.0840 -0.2251
 9562TIP3    H152881   6.440   0.648   1.973  1.4434 -0.1565  0.2267
 9562TIP3    H252882   6.420   0.618   2.120 -0.1594  0.2047  0.1000
 9563TIP3   OH252883   4.238   2.254   5.017  0.1808 -0.3431  0.0597
 9563TIP3    H152884   4.305   2.237   5.083  1.3789 -1.3159 -1.3352
 9563TIP3    H252885   4.155   2.244   5.063  0.9855 -0.9372  1.4208
 9564TIP3   OH252886   1.119   4.434   3.010 -0.1401 -0.3092 -0.2735
 9564TIP3    H152887   1.033   4.398   3.030 -0.5470  0.5287 -0.4813
 9564TIP3    H252888   1.109   4.528   3.025  0.7724 -0.2191 -0.1848
 9565TIP3   OH252889   4.952   2.119   2.124 -0.2033 -0.0289 -0.3352
 9565TIP3    H152890   4.866   2.082   2.103  0.2148 -0.2309 -1.8022
 9565TIP3    H252891   4.936   2.175   2.200 -1.3395 -1.2004  0.3349
 9566TIP3   OH252892   4.874   6.562   4.556  0.0101 -0.0417 -0.5905
 9566TIP3    H152893   4.931   6.496   4.594 -0.2919 -0.3204 -0.6164
 9566TIP3    H252894   4.848   6.617   4.630  1.2005  0.7686 -0.7559
 9567TIP3   OH252895   5.762   2.312   2.328  0.1681 -0.2258  0.2866
 9567TIP3    H152896   5.711   2.385   2.293 -1.0865 -0.7372  0.9959
 9567TIP3    H252897   5.696   2.247   2.354  1.2595 -2.3502 -1.8567
 9568TIP3   OH252898   6.680   0.422   2.139 -0.5999  0.0637  0.4750
 9568TIP3    H152899   6.630   0.446   2.061  0.8500  0.5108 -0.3539
 9568TIP3    H252900   6.771   0.424   2.110 -0.1238 -1.3481  1.7665
 9569TIP3   OH252901   1.390   5.573   4.541  0.2197  0.7423  0.1449
 9569TIP3    H152902   1.370   5.543   4.630 -1.2400  1.4407  0.0916
 9569TIP3    H252903   1.485   5.564   4.533  0.0573 -2.8182  0.4905
 9570TIP3   OH252904   1.622   3.113   3.098  1.0107  0.2355 -0.6132
 9570TIP3    H152905   1.576   3.049   3.043 -1.0462  1.3787 -0.3255
 9570TIP3    H252906   1.707   3.073   3.114  0.1803 -1.9867 -1.2655
 9571TIP3   OH252907   4.435   5.156   4.153  0.0651  0.0643  0.3765
 9571TIP3    H152908   4.461   5.247   4.148  0.4942  0.0907  2.1667
 9571TIP3    H252909   4.517   5.107   4.144 -0.3536 -0.2829 -2.3214
 9572TIP3   OH252910   5.547   0.380   2.095  0.1537 -0.2474 -0.1052
 9572TIP3    H152911   5.563   0.286   2.091  1.2449 -0.3232  3.0945
 9572TIP3    H252912   5.465   0.393   2.048 -1.7605 -3.3099  2.0447
 9573TIP3   OH252913   3.695   2.017   3.159 -0.6827  0.1812  0.1665
 9573TIP3    H152914   3.628   2.034   3.093 -1.7030  1.1249  1.4011
 9573TIP3    H252915   3.646   2.002   3.240  0.5668  0.0272  0.9242
 9574TIP3   OH252916   5.094   3.215   2.289 -0.0335  0.3466  0.0556
 9574TIP3    H152917   5.180   3.255   2.277  0.7431 -0.8751  1.2280
 9574TIP3    H252918   5.076   3.223   2.383 -0.1670 -1.3356  0.2184
 9575TIP3   OH252919   2.272   2.539   4.539  0.1991  0.8253 -0.3742
 9575TIP3    H152920   2.216   2.462   4.537 -0.4777  1.3150 -0.4150
 9575TIP3    H252921   2.351   2.512   4.492 -0.0889  0.2056 -0.5116
 9576TIP3   OH252922   1.190   6.124   2.103 -0.0826 -0.0781  0.0025
 9576TIP3    H152923   1.158   6.118   2.193 -0.3691  1.0050 -0.0098
 9576TIP3    H252924   1.178   6.036   2.067 -0.9842 -0.2491  0.6942
 9577TIP3   OH252925   2.165   3.760   2.997  0.9251  0.2225 -0.0525
 9577TIP3    H152926   2.237   3.779   3.057  2.3903 -0.2093 -1.5882
 9577TIP3    H252927   2.207   3.717   2.923 -1.2175 -2.0371 -0.0751
 9578TIP3   OH252928   5.208   0.455   5.855  0.4792 -0.2394 -0.1752
 9578TIP3    H152929   5.234   0.370   5.819 -0.8620 -1.2738  1.1729
 9578TIP3    H252930   5.204   0.513   5.778  0.8536 -1.5231 -1.2108
 9579TIP3   OH252931   5.763   4.138   2.200  0.4531  0.2137  0.1413
 9579TIP3    H152932   5.736   4.207   2.261  2.5017  0.4690  0.8081
 9579TIP3    H252933   5.683   4.087   2.185 -0.9458  2.2710  0.1898
 9580TIP3   OH252934   0.410   2.613   4.908  0.4054 -0.0495  0.1436
 9580TIP3    H152935   0.433   2.666   4.832 -1.6983  0.6264 -0.0963
 9580TIP3    H252936   0.404   2.676   4.980 -1.4056 -0.0168  0.0095
 9581TIP3   OH252937   4.148   1.407   2.495  0.4511  0.7250 -0.3670
 9581TIP3    H152938   4.126   1.329   2.445 -0.0092  1.2778 -1.0415
 9581TIP3    H252939   4.064   1.446   2.519  0.6277  0.0168  1.6069
 9582TIP3   OH252940   4.229   0.742   2.775 -0.1967 -0.0082 -0.0851
 9582TIP3    H152941   4.276   0.825   2.779 -0.6315  0.2657 -0.6062
 9582TIP3    H252942   4.179   0.746   2.694  0.2363 -1.0293 -0.4192
 9583TIP3   OH252943   2.707   1.434   4.357 -0.1345  0.0582  0.0384
 9583TIP3    H152944   2.702   1.354   4.305 -0.6118 -0.7146  1.2221
 9583TIP3    H252945   2.618   1.469   4.357  0.4977  1.8745 -2.3474
 9584TIP3   OH252946   0.183   6.425   2.724 -0.1457  0.4993 -0.1975
 9584TIP3    H152947   0.121   6.428   2.797  0.0955  0.7924 -0.0008
 9584TIP3    H252948   0.241   6.500   2.739  1.3650 -0.7708  0.6162
 9585TIP3   OH252949   6.690   2.281   3.814  0.4004 -0.3274  0.1763
 9585TIP3    H152950   6.687   2.360   3.868  3.7655  1.1624 -1.4733
 9585TIP3    H252951   6.679   2.209   3.876 -0.6500  1.3539  2.0684
 9586TIP3   OH252952   2.870   2.984   4.674  0.0087  0.2438 -0.1564
 9586TIP3    H152953   2.921   3.056   4.711  0.8899 -0.5220  0.1362
 9586TIP3    H252954   2.786   2.989   4.718  0.3947  0.5120  0.5620
 9587TIP3   OH252955   0.117   6.835   2.674  0.6617 -0.1631  0.3559
 9587TIP3    H152956   0.035   6.805   2.635  0.8952 -0.1583 -0.1510
 9587TIP3    H252957   0.177   6.841   2.600  0.1793  3.1510  0.0732
 9588TIP3   OH252958   6.226   4.388   2.539  0.1100  0.1941  0.0139
 9588TIP3    H152959   6.315   4.362   2.565 -0.2421 -0.2643  0.8029
 9588TIP3    H252960   6.182   4.407   2.622 -1.2642 -1.9835 -0.1364
 9589TIP3   OH252961   2.245   2.661   2.552 -0.0106 -0.1786  0.3338
 9589TIP3    H152962   2.166   2.607   2.543 -0.4305  0.5378 -0.3643
 9589TIP3    H252963   2.300   2.637   2.477 -1.0034  1.6534 -1.0423
 9590TIP3   OH252964   4.271   6.377   1.738  0.4824 -0.3968  0.7273
 9590TIP3    H152965   4.307   6.426   1.813 -0.2369  1.0963  0.1381
 9590TIP3    H252966   4.337   6.388   1.670  0.7761 -1.1018  0.8923
 9591TIP3   OH252967   4.719   1.508   3.119  0.8591 -0.3787 -0.0048
 9591TIP3    H152968   4.760   1.422   3.130  2.1166  0.2952  0.6973
 9591TIP3    H252969   4.660   1.496   3.045  1.9743 -1.5025 -0.7560
 9592TIP3   OH252970   1.719   4.889   2.712 -0.2096  0.3541  0.2171
 9592TIP3    H152971   1.644   4.918   2.765  0.1304  1.4481  0.1301
 9592TIP3    H252972   1.787   4.954   2.731  0.5240 -0.2933 -0.1617
 9593TIP3   OH252973   3.503   0.811   3.936  0.3963  0.3806 -0.2880
 9593TIP3    H152974   3.539   0.896   3.909 -0.2406  0.8526  0.3003
 9593TIP3    H252975   3.544   0.793   4.021  1.6499 -0.6286 -1.0687
 9594TIP3   OH252976   4.651   6.193   3.671  0.3254 -0.0394  0.6627
 9594TIP3    H152977   4.689   6.248   3.602  1.3609 -1.0730  0.3643
 9594TIP3    H252978   4.699   6.218   3.750  0.0921  0.1866  0.7339
 9595TIP3   OH252979   6.518   6.783   2.989 -0.1523  0.4255  0.2651
 9595TIP3    H152980   6.435   6.754   2.952  0.2419 -0.7526  0.2607
 9595TIP3    H252981   6.493   6.838   3.064 -0.9398 -0.3597  0.5905
 9596TIP3   OH252982   0.079   6.297   4.065  0.0292 -0.3156 -0.5640
 9596TIP3    H152983   0.017   6.325   4.132 -0.7815 -2.1342 -0.4749
 9596TIP3    H252984   0.144   6.367   4.061  0.6079 -0.4964  2.7376
 9597TIP3   OH252985   1.569   4.750   3.515 -0.1663 -0.0094 -0.2431
 9597TIP3    H152986   1.581   4.680   3.580  1.2321  1.1026  0.7586
 9597TIP3    H252987   1.656   4.763   3.478 -0.5832  0.6568 -1.0221
 9598TIP3   OH252988   0.623   6.092   3.566  0.2172  0.0456  0.2531
 9598TIP3    H152989   0.646   6.052   3.482 -0.7399  0.3993 -0.1948
 9598TIP3    H252990   0.666   6.177   3.565 -1.1148  0.7556 -0.6349
 9599TIP3   OH252991   4.426   5.523   4.693 -0.2393  1.0219 -0.0170
 9599TIP3    H152992   4.356   5.484   4.746 -2.2079  3.5845 -0.5099
 9599TIP3    H252993   4.505   5.511   4.746 -1.3222 -0.5083  1.3696
 9600TIP3   OH252994   0.247   1.678   3.978 -0.0870  0.6311  0.2074
 9600TIP3    H152995   0.323   1.721   4.018  0.0590  0.9186 -0.3699
 9600TIP3    H252996   0.222   1.736   3.905 -0.3861  0.1461 -0.0804
 9601TIP3   OH252997   0.392   3.836   3.280 -0.2247  0.1902 -0.3535
 9601TIP3    H152998   0.332   3.908   3.262  0.2375  0.3831 -1.1356
 9601TIP3    H252999   0.357   3.762   3.229 -1.1168 -0.3691  1.0107
 9602TIP3   OH253000   4.070   0.800   3.533  0.6454  0.3028  0.3858
 9602TIP3    H153001   4.082   0.885   3.490 -0.4644 -0.1579 -0.9006
 9602TIP3    H253002   4.141   0.746   3.498  0.6051  0.3464  0.2343
 9603TIP3   OH253003   4.858   0.320   4.458  0.3231 -0.2826  0.7060
 9603TIP3    H153004   4.835   0.250   4.397 -0.6171  0.1949  0.4896
 9603TIP3    H253005   4.924   0.282   4.515 -0.3666 -1.4361  0.7701
 9604TIP3   OH253006   5.527   5.575   4.876  0.6131  0.1272  0.6698
 9604TIP3    H153007   5.519   5.664   4.842 -0.9968 -0.1453  0.2443
 9604TIP3    H253008   5.461   5.525   4.828  1.3898 -1.2808  0.9955
 9605TIP3   OH253009   1.671   2.025   2.979  0.2946  0.5262 -0.2624
 9605TIP3    H153010   1.601   2.083   3.010  0.6321  0.0721  1.4828
 9605TIP3    H253011   1.640   1.937   2.999  0.5432  0.2063 -1.2584
 9606TIP3   OH253012   1.290   1.400   2.530  0.2737 -0.2160  0.2388
 9606TIP3    H153013   1.237   1.320   2.534 -1.2441  0.7369  0.1742
 9606TIP3    H253014   1.380   1.370   2.537 -0.3280 -1.7991  1.9257
 9607TIP3   OH253015   2.271   3.507   5.050 -0.4983  0.4557  0.5439
 9607TIP3    H153016   2.199   3.508   5.113 -0.2198  0.5183  0.8637
 9607TIP3    H253017   2.319   3.588   5.067  0.1405  0.0097  0.9094
 9608TIP3   OH253018   3.091   3.871   3.864  0.2224  0.1569 -0.1109
 9608TIP3    H153019   3.179   3.839   3.845 -0.6535 -1.3793 -1.9874
 9608TIP3    H253020   3.067   3.828   3.946  0.9257 -0.0388 -0.0046
 9609TIP3   OH253021   4.738   5.919   5.509 -0.0212  0.2045 -0.1879
 9609TIP3    H153022   4.723   6.003   5.465  0.1730 -0.2371 -1.1238
 9609TIP3    H253023   4.778   5.863   5.441 -1.5436 -1.1264 -0.0591
 9610TIP3   OH253024   2.385   2.382   4.977  0.4945 -0.4733  0.2642
 9610TIP3    H153025   2.325   2.401   5.049  0.1169  0.0167 -0.1687
 9610TIP3    H253026   2.397   2.287   4.979 -1.1097 -0.7149 -0.2657
 9611TIP3   OH253027   5.362   3.107   2.976 -0.1989  0.2621  0.5611
 9611TIP3    H153028   5.393   3.102   2.885  2.0019  0.8105  1.2102
 9611TIP3    H253029   5.267   3.104   2.969 -0.0953  0.3766 -1.7697
 9612TIP3   OH253030   5.798   6.283   5.359  0.5545  0.4788  0.3626
 9612TIP3    H153031   5.859   6.310   5.427  1.9513  1.7939 -1.3026
 9612TIP3    H253032   5.849   6.286   5.278 -0.8376 -1.6787 -0.7079
 9613TIP3   OH253033   4.291   1.503   2.110 -0.1518 -0.0694 -0.1800
 9613TIP3    H153034   4.331   1.563   2.173 -0.3856 -0.6466  0.5315
 9613TIP3    H253035   4.365   1.469   2.059 -0.0890  1.3408 -1.0665
 9614TIP3   OH253036   1.015   1.642   3.206 -0.1618 -0.2835 -0.0687
 9614TIP3    H153037   1.065   1.623   3.285 -0.3396 -1.3551 -0.2040
 9614TIP3    H253038   0.954   1.569   3.198 -0.2580 -0.1031 -1.1059
 9615TIP3   OH253039   2.096   4.361   4.581  0.2282  0.3581 -0.0438
 9615TIP3    H153040   2.185   4.364   4.616  0.5819  0.3619 -0.9157
 9615TIP3    H253041   2.058   4.281   4.619  0.0171  1.2343  1.6644
 9616TIP3   OH253042   2.160   3.748   4.950  0.2200  0.7076  0.1711
 9616TIP3    H153043   2.142   3.658   4.921  1.2993 -0.4796  2.8152
 9616TIP3    H253044   2.245   3.769   4.911 -0.2186  0.7709 -0.7817
 9617TIP3   OH253045   5.159   1.269   4.077  0.2827  0.1249 -0.6071
 9617TIP3    H153046   5.250   1.298   4.063 -0.0030  1.4157  0.0300
 9617TIP3    H253047   5.107   1.348   4.063 -0.6701 -0.4181 -0.1776
 9618TIP3   OH253048   5.556   2.455   2.560  0.3731 -0.0984 -0.7030
 9618TIP3    H153049   5.545   2.368   2.599  0.1636  0.1808 -0.1334
 9618TIP3    H253050   5.535   2.442   2.468  0.5154 -0.6909 -0.6586
 9619TIP3   OH253051   0.811   1.458   4.315  0.1787 -0.0933 -0.1736
 9619TIP3    H153052   0.869   1.392   4.277  1.3443  0.5921  0.3913
 9619TIP3    H253053   0.862   1.498   4.385 -0.0184  2.2814 -1.2833
 9620TIP3   OH253054   2.859   4.662   4.332 -0.2996 -0.4511 -0.2003
 9620TIP3    H153055   2.809   4.604   4.390 -1.5906  1.1044  0.3098
 9620TIP3    H253056   2.803   4.673   4.255 -0.2261  0.3738 -0.1436
 9621TIP3   OH253057   5.403   6.496   4.529  0.3267  0.1365 -0.0480
 9621TIP3    H153058   5.342   6.485   4.456  0.0282 -1.9212  0.4583
 9621TIP3    H253059   5.362   6.564   4.583 -1.6296 -1.2121  0.3005
 9622TIP3   OH253060   6.332   5.562   4.497 -0.8407  0.4279  0.4561
 9622TIP3    H153061   6.275   5.495   4.537 -0.7646  1.0114  1.5929
 9622TIP3    H253062   6.287   5.644   4.514 -0.5726  0.7376 -0.2999
 9623TIP3   OH253063   0.558   0.937   3.530  0.4302  0.2242  0.1361
 9623TIP3    H153064   0.528   1.027   3.545 -2.0268 -0.5478  0.3853
 9623TIP3    H253065   0.596   0.939   3.443 -1.3865  1.1397 -0.6902
 9624TIP3   OH253066   1.230   5.118   3.381  0.3369 -0.2838 -0.7504
 9624TIP3    H153067   1.165   5.048   3.381  0.6757 -0.6997  1.9116
 9624TIP3    H253068   1.308   5.078   3.420  0.1690  1.8144  1.9837
 9625TIP3   OH253069   5.733   1.699   4.132  0.7171 -0.2925  0.4214
 9625TIP3    H153070   5.813   1.657   4.101  1.9062  0.9638  1.6217
 9625TIP3    H253071   5.705   1.755   4.060  0.3329 -1.4772 -0.3746
 9626TIP3   OH253072   1.106   4.364   2.728  0.1689  0.2836  0.6419
 9626TIP3    H153073   1.154   4.414   2.662  1.8891 -1.5657  0.3917
 9626TIP3    H253074   1.113   4.416   2.808 -0.8017  1.9159 -0.3067
 9627TIP3   OH253075   4.476   5.713   4.959 -0.1532 -0.5997 -0.2972
 9627TIP3    H153076   4.489   5.640   5.019 -0.1453 -0.8669 -0.6184
 9627TIP3    H253077   4.551   5.710   4.900  0.4648  0.3935  0.4093
 9628TIP3   OH253078   0.281   5.767   4.513  0.2077 -0.4044  0.1907
 9628TIP3    H153079   0.188   5.763   4.534 -0.1121  0.2607 -0.9654
 9628TIP3    H253080   0.319   5.690   4.554 -1.5135 -2.8124 -2.4047
 9629TIP3   OH253081   0.419   2.455   2.184  0.0048  0.0755 -0.0392
 9629TIP3    H153082   0.415   2.375   2.238 -0.9723 -0.7955 -1.3177
 9629TIP3    H253083   0.403   2.424   2.095  0.7741  1.5775 -0.7285
 9630TIP3   OH253084   3.182   6.621   2.025 -0.1137  0.1706 -0.0626
 9630TIP3    H153085   3.167   6.529   2.004 -2.3442  0.5879 -0.4618
 9630TIP3    H253086   3.230   6.655   1.950  1.3488 -0.7722  0.3874
 9631TIP3   OH253087   6.213   3.849   3.966  0.1830 -0.2725 -0.0108
 9631TIP3    H153088   6.163   3.824   3.888 -1.4769 -0.6267  1.1319
 9631TIP3    H253089   6.273   3.917   3.934  0.5367 -1.3828 -1.8777
 9632TIP3   OH253090   5.252   4.801   5.173 -0.2622 -0.5184  0.0119
 9632TIP3    H153091   5.187   4.840   5.232 -1.9578 -0.6958 -1.6379
 9632TIP3    H253092   5.309   4.874   5.148 -2.0949  0.5134 -1.3674
 9633TIP3   OH253093   2.024   0.146   2.407  0.8077  0.0631  0.6912
 9633TIP3    H153094   1.931   0.164   2.425  0.6420  1.2978 -1.1994
 9633TIP3    H253095   2.040   0.184   2.321  3.8995  2.8031  2.2560
 9634TIP3   OH253096   4.669   5.328   2.411  0.4016 -0.1850 -0.6290
 9634TIP3    H153097   4.666   5.269   2.486 -2.4013  1.4402  0.6755
 9634TIP3    H253098   4.716   5.405   2.443 -1.6708  0.9314 -0.1069
 9635TIP3   OH253099   1.899   3.999   2.275  0.1569  0.2532  0.1967
 9635TIP3    H153100   1.835   4.068   2.257  0.4520  0.6552  0.6809
 9635TIP3    H253101   1.913   3.956   2.190 -0.1934  0.6428 -0.0597
 9636TIP3   OH253102   3.960   5.725   2.731 -0.1449  0.1598 -0.6895
 9636TIP3    H153103   4.016   5.653   2.759  0.4143  0.9407  0.2997
 9636TIP3    H253104   3.967   5.726   2.636  1.0295 -0.1602 -0.6194
 9637TIP3   OH253105   0.342   1.725   3.730  0.3978  0.0457  0.4057
 9637TIP3    H153106   0.350   1.818   3.712 -0.6828  0.1992  0.6328
 9637TIP3    H253107   0.432   1.692   3.730  0.7126  0.8054 -1.1339
 9638TIP3   OH253108   1.514   1.544   2.257 -0.0243  0.5191  0.5474
 9638TIP3    H153109   1.422   1.566   2.269  0.0197  0.4936  0.9217
 9638TIP3    H253110   1.547   1.529   2.345  0.1642 -0.1678  0.3649
 9639TIP3   OH253111   2.109   6.302   3.021  0.3291 -0.6928  0.3632
 9639TIP3    H153112   2.079   6.338   3.104  1.5969  0.9184  0.1764
 9639TIP3    H253113   2.034   6.254   2.987 -1.3946  1.5340  0.8114
 9640TIP3   OH253114   5.029   4.321   3.166 -0.0617 -0.5936  0.1069
 9640TIP3    H153115   4.982   4.374   3.103 -0.5573 -1.1794 -0.0228
 9640TIP3    H253116   5.091   4.382   3.207 -1.7898  0.5133  1.2117
 9641TIP3   OH253117   4.650   4.076   4.860  0.0076  0.6468 -0.4279
 9641TIP3    H153118   4.734   4.064   4.816 -0.0488  1.2797 -0.7126
 9641TIP3    H253119   4.633   3.991   4.902 -0.5432 -0.4479 -2.6980
 9642TIP3   OH253120   2.309   1.986   4.165 -0.6769  0.3952  0.1209
 9642TIP3    H153121   2.297   1.891   4.172 -0.4906  0.2176 -1.5381
 9642TIP3    H253122   2.276   2.008   4.077 -0.3635  1.8058  0.3312
 9643TIP3   OH253123   0.177   6.694   3.411  0.4198 -0.2721  0.1209
 9643TIP3    H153124   0.170   6.602   3.385  2.7438 -0.9503  1.6246
 9643TIP3    H253125   0.269   6.717   3.396 -0.2257  2.0706 -0.8500
 9644TIP3   OH253126   5.853   4.216   2.835  0.3024 -0.5857 -0.7810
 9644TIP3    H153127   5.813   4.263   2.762  1.8838 -0.5224 -1.6454
 9644TIP3    H253128   5.790   4.147   2.856 -1.4211  1.0168 -0.3906
 9645TIP3   OH253129   0.677   2.077   4.268 -0.2148 -0.3837 -0.2938
 9645TIP3    H153130   0.673   1.993   4.313 -1.6355 -0.1419  0.0455
 9645TIP3    H253131   0.605   2.128   4.304  0.2834  0.7886 -0.9030
 9646TIP3   OH253132   1.108   1.791   2.993  0.2324  0.1657  0.3634
 9646TIP3    H153133   1.165   1.721   2.961 -0.1423  0.2153 -0.4340
 9646TIP3    H253134   1.054   1.750   3.060  0.5913 -0.1035  0.4873
 9647TIP3   OH253135   5.249   2.710   4.379 -0.3008  0.3012  0.4569
 9647TIP3    H153136   5.249   2.796   4.421 -0.7705  0.4683  0.1304
 9647TIP3    H253137   5.315   2.660   4.426 -0.5455  0.6055  1.1353
 9648TIP3   OH253138   1.862   5.404   2.315  0.0049 -0.1275  0.1604
 9648TIP3    H153139   1.884   5.355   2.236  4.8651  0.3874  0.8867
 9648TIP3    H253140   1.870   5.340   2.386  1.5163  0.5668  0.6604
 9649TIP3   OH253141   3.309   1.229   4.699  0.4136 -0.1221 -0.8298
 9649TIP3    H153142   3.358   1.303   4.737  0.1601  0.3241 -1.3660
 9649TIP3    H253143   3.224   1.232   4.742  0.6783 -0.6226 -0.2353
 9650TIP3   OH253144   0.880   0.630   4.101  0.0066 -0.5514 -0.4207
 9650TIP3    H153145   0.857   0.648   4.010 -0.6911 -0.1742 -0.1823
 9650TIP3    H253146   0.823   0.556   4.126  0.4270 -0.8651 -0.3866
 9651TIP3   OH253147   0.766   2.315   3.602 -0.1085 -0.3324 -0.2886
 9651TIP3    H153148   0.793   2.236   3.650  1.4099  0.2752 -0.0966
 9651TIP3    H253149   0.782   2.387   3.663 -0.7250  0.2111 -0.7521
 9652TIP3   OH253150   4.563   4.219   2.255 -0.2980 -0.3368 -0.5462
 9652TIP3    H153151   4.513   4.275   2.313 -0.0980 -0.0843 -0.6157
 9652TIP3    H253152   4.581   4.140   2.307 -0.0775 -0.0926 -0.2467
 9653TIP3   OH253153   2.153   6.811   2.207  0.1051  0.1200 -0.7398
 9653TIP3    H153154   2.220   6.878   2.194  0.3151  0.3531  1.2090
 9653TIP3    H253155   2.079   6.859   2.245 -0.0254 -0.6374 -0.0303
 9654TIP3   OH253156   0.904   6.595   2.959  0.1194 -0.2606  0.1954
 9654TIP3    H153157   0.813   6.619   2.946 -0.0431 -0.0169  1.6912
 9654TIP3    H253158   0.931   6.560   2.874 -0.9463  0.9516 -0.6895
 9655TIP3   OH253159   6.445   6.400   3.854 -0.1734  0.1764  0.2805
 9655TIP3    H153160   6.367   6.431   3.808  0.4633  1.1809 -0.1630
 9655TIP3    H253161   6.479   6.330   3.799 -0.0891  0.5624 -0.1651
 9656TIP3   OH253162   1.835   4.632   3.104  0.1241 -0.0364  0.2200
 9656TIP3    H153163   1.756   4.584   3.077 -0.7672  1.6362 -0.2518
 9656TIP3    H253164   1.803   4.719   3.128  1.8698  0.7695 -0.2477
 9657TIP3   OH253165   3.377   6.187   4.392  0.1843 -0.4395  0.0938
 9657TIP3    H153166   3.442   6.167   4.458  1.2624 -0.8444 -1.0464
 9657TIP3    H253167   3.368   6.106   4.341 -1.4827 -0.5086  0.4350
 9658TIP3   OH253168   3.042   0.551   2.389  0.1205  0.4567 -0.2843
 9658TIP3    H153169   2.947   0.547   2.378  0.1475 -0.0176 -0.3544
 9658TIP3    H253170   3.073   0.463   2.367  0.6934  0.9227 -1.4430
 9659TIP3   OH253171   0.510   5.375   2.248  0.3090  0.2048 -0.0008
 9659TIP3    H153172   0.438   5.420   2.204 -0.7351 -2.1243 -0.8685
 9659TIP3    H253173   0.538   5.435   2.317 -2.7529  1.0493  0.6505
 9660TIP3   OH253174   1.879   1.835   2.780  0.3105  0.3727  0.0355
 9660TIP3    H153175   1.851   1.925   2.765  1.9097  1.0227  0.8090
 9660TIP3    H253176   1.972   1.835   2.760  0.5312 -0.8882  0.9724
 9661TIP3   OH253177   3.065   2.016   4.690 -0.0097 -0.0479 -0.0628
 9661TIP3    H153178   3.041   2.100   4.649 -0.5993 -0.8121 -1.3298
 9661TIP3    H253179   2.982   1.978   4.718  0.1279 -0.7664 -0.6088
 9662TIP3   OH253180   0.828   1.504   5.017  0.2446 -0.4566  0.2604
 9662TIP3    H153181   0.809   1.565   5.088 -0.7548 -1.2818  0.7268
 9662TIP3    H253182   0.866   1.428   5.060 -1.0641 -1.2749  0.0396
 9663TIP3   OH253183   3.133   3.143   5.514  0.0755 -0.5781  0.1735
 9663TIP3    H153184   3.040   3.163   5.521  0.1454 -0.3058  0.3624
 9663TIP3    H253185   3.172   3.185   5.591  0.5249  0.3681 -0.5562
 9664TIP3   OH253186   4.455   5.331   3.065 -0.1198 -0.2079 -0.2183
 9664TIP3    H153187   4.456   5.242   3.101 -2.0833  0.0542  0.6481
 9664TIP3    H253188   4.440   5.387   3.142 -0.4825  0.7296 -0.9565
 9665TIP3   OH253189   3.850   6.611   2.838 -0.6278 -0.5984  0.4546
 9665TIP3    H153190   3.893   6.590   2.921  1.6873 -0.1969 -0.5683
 9665TIP3    H253191   3.804   6.531   2.814 -0.3341 -1.1079  1.5343
 9666TIP3   OH253192   1.751   6.727   4.566  0.0347 -0.0645  0.2490
 9666TIP3    H153193   1.774   6.691   4.651  0.0988  2.7724  1.5522
 9666TIP3    H253194   1.834   6.761   4.532 -0.1448 -0.4167 -0.5588
 9667TIP3   OH253195   1.039   0.544   4.461  0.3043 -0.1726  0.1511
 9667TIP3    H153196   1.029   0.455   4.494  0.1291  0.3894  1.7016
 9667TIP3    H253197   0.950   0.573   4.442  0.3611 -0.3082 -0.3517
 9668TIP3   OH253198   5.096   4.560   2.570 -0.4844  0.0987 -0.4556
 9668TIP3    H153199   5.146   4.613   2.508  1.5169 -0.6742  0.4116
 9668TIP3    H253200   5.129   4.587   2.656 -2.3146  0.2619  0.2260
 9669TIP3   OH253201   1.955   1.751   4.838 -0.2614  0.1948 -0.5522
 9669TIP3    H153202   1.997   1.810   4.900  2.0037 -1.7693 -0.0682
 9669TIP3    H253203   1.887   1.707   4.890 -0.2595  0.5657 -0.2297
 9670TIP3   OH253204   0.810   4.277   4.309  0.5407 -0.0333  0.3078
 9670TIP3    H153205   0.757   4.256   4.231  2.2560 -1.0141 -0.6519
 9670TIP3    H253206   0.876   4.339   4.277  2.4481 -1.8857  0.4628
 9671TIP3   OH253207   6.016   5.737   4.184  0.1625  0.2403 -0.3737
 9671TIP3    H153208   6.060   5.689   4.114  0.2798 -0.4245  0.1465
 9671TIP3    H253209   6.064   5.819   4.192  1.1250 -0.3423 -0.0242
 9672TIP3   OH253210   5.228   3.698   3.003 -0.0597  0.0192  0.6237
 9672TIP3    H153211   5.302   3.639   3.017  0.3099  0.2260 -0.4217
 9672TIP3    H253212   5.163   3.669   3.067  0.2436 -1.2990  0.3697
 9673TIP3   OH253213   2.294   6.810   2.730 -0.0712 -0.3031 -0.6096
 9673TIP3    H153214   2.222   6.870   2.748 -0.7566 -1.5295  1.0124
 9673TIP3    H253215   2.279   6.780   2.641  0.7546  2.4746 -1.7818
 9674TIP3   OH253216   2.993   3.525   2.749  0.1643 -0.1596 -0.5181
 9674TIP3    H153217   2.984   3.619   2.735 -0.6008 -0.2369 -0.6021
 9674TIP3    H253218   2.968   3.486   2.666  0.9824 -0.4242 -0.6459
 9675TIP3   OH253219   3.968   2.893   5.336  0.1140 -0.2248  0.3211
 9675TIP3    H153220   3.884   2.857   5.363 -1.4529  1.6142 -1.7187
 9675TIP3    H253221   3.997   2.946   5.410 -0.2177 -1.3436  1.2662
 9676TIP3   OH253222   6.546   1.518   2.474  0.2136  0.1629 -0.6030
 9676TIP3    H153223   6.503   1.492   2.392 -0.7416 -1.2947  0.3011
 9676TIP3    H253224   6.475   1.541   2.532  0.7893 -0.0568  0.2088
 9677TIP3   OH253225   4.959   4.541   4.507  0.1460 -0.1349  0.3160
 9677TIP3    H153226   4.952   4.609   4.574 -0.6633 -0.7503  0.8893
 9677TIP3    H253227   5.052   4.519   4.504  0.2672  0.2933  0.8402
 9678TIP3   OH253228   1.223   3.208   3.265 -0.2516 -0.3224  0.0882
 9678TIP3    H153229   1.314   3.177   3.272 -0.4003 -0.5570  1.1679
 9678TIP3    H253230   1.225   3.296   3.303 -0.2834  0.0972 -0.8527
 9679TIP3   OH253231   0.445   4.864   4.555 -0.3023  0.1932  0.0760
 9679TIP3    H153232   0.423   4.829   4.641  0.1038 -0.0367  0.0887
 9679TIP3    H253233   0.418   4.796   4.494 -0.4801  0.3062  0.0279
 9680TIP3   OH253234   2.477   5.776   2.986  0.8695 -0.3529 -0.1167
 9680TIP3    H153235   2.401   5.768   3.044  0.0363  0.1912 -1.0914
 9680TIP3    H253236   2.529   5.698   3.005  0.2631 -0.5503  0.8416
 9681TIP3   OH253237   2.649   5.884   3.256 -0.0601  0.5346 -0.2008
 9681TIP3    H153238   2.558   5.876   3.282 -0.3346 -0.0513 -1.2812
 9681TIP3    H253239   2.692   5.926   3.331 -1.1320  0.4765  0.4658
 9682TIP3   OH253240   4.174   2.933   1.927  0.3245 -0.4571  0.7383
 9682TIP3    H153241   4.243   2.994   1.899 -0.7891  0.2890 -0.5387
 9682TIP3    H253242   4.186   2.923   2.021  1.4186  0.6202  0.7264
 9683TIP3   OH253243   5.957   0.640   3.878 -0.1646  0.6880 -0.2403
 9683TIP3    H153244   5.890   0.657   3.945  1.6830  0.7990  1.6674
 9683TIP3    H253245   5.959   0.720   3.825 -1.6776  0.5858 -0.5000
 9684TIP3   OH253246   4.203   2.850   2.193  0.0202 -0.1579 -0.0977
 9684TIP3    H153247   4.214   2.887   2.281  0.4744  0.5948 -0.4605
 9684TIP3    H253248   4.147   2.774   2.206 -0.9208  0.6325  0.6931
 9685TIP3   OH253249   0.589   5.268   3.693  0.4236  0.6896  0.4346
 9685TIP3    H153250   0.654   5.199   3.708 -0.8059 -0.5219  0.3713
 9685TIP3    H253251   0.574   5.307   3.780  0.4254  0.2382  0.6368
 9686TIP3   OH253252   2.985   1.422   2.943  0.6599  0.4443  0.1745
 9686TIP3    H153253   2.977   1.460   3.030 -1.7430  0.7187 -0.1081
 9686TIP3    H253254   3.009   1.330   2.958 -0.1991  0.3689  1.1631
 9687TIP3   OH253255   6.096   6.813   4.458 -0.2059  0.0354  0.4289
 9687TIP3    H153256   6.113   6.868   4.381 -0.1283 -0.6391 -0.0424
 9687TIP3    H253257   6.002   6.795   4.454 -0.0954 -0.4961  0.1513
 9688TIP3   OH253258   6.617   3.635   2.640  0.4186  0.5120  0.4936
 9688TIP3    H153259   6.656   3.551   2.616 -0.2510 -0.4649  2.6090
 9688TIP3    H253260   6.662   3.659   2.721 -0.4968  1.4136  0.7428
 9689TIP3   OH253261   4.814   4.934   3.435 -0.7244  0.0855 -0.0442
 9689TIP3    H153262   4.741   4.875   3.419 -1.0747  0.0927  1.3949
 9689TIP3    H253263   4.796   4.971   3.522  0.6312  0.6008  0.0370
 9690TIP3   OH253264   1.409   6.249   4.080  0.1392 -0.4599 -0.6531
 9690TIP3    H153265   1.481   6.308   4.099  0.3903 -0.8015 -0.5368
 9690TIP3    H253266   1.330   6.303   4.090  0.3460 -0.2488 -0.1525
 9691TIP3   OH253267   1.065   4.804   3.727  0.3795  0.2609 -0.1496
 9691TIP3    H153268   1.016   4.818   3.807  0.1377 -1.9328  0.1416
 9691TIP3    H253269   1.039   4.717   3.697  1.0357  0.7149 -2.1999
 9692TIP3   OH253270   5.765   0.103   3.295 -0.2129  0.0325  0.0511
 9692TIP3    H153271   5.701   0.164   3.332 -1.1782 -2.0154  2.0088
 9692TIP3    H253272   5.849   0.148   3.305 -0.9895  1.4796  0.3673
 9693TIP3   OH253273   2.984   2.944   3.610  0.4191  0.3633 -0.2582
 9693TIP3    H153274   3.074   2.917   3.590 -0.5413 -0.6251 -3.9916
 9693TIP3    H253275   2.950   2.977   3.527 -2.8973  0.0466  0.8423
 9694TIP3   OH253276   3.069   1.103   3.772  0.0921 -0.1569  0.2614
 9694TIP3    H153277   3.147   1.046   3.771  2.0950  2.3401  2.1238
 9694TIP3    H253278   3.065   1.139   3.684  1.2142 -0.1746  0.1831
 9695TIP3   OH253279   6.455   3.644   2.420 -0.1770 -1.0276  0.2559
 9695TIP3    H153280   6.522   3.678   2.360 -0.6733  0.2629  0.4112
 9695TIP3    H253281   6.504   3.617   2.498  0.1216  0.4068  0.5859
 9696TIP3   OH253282   3.781   2.493   5.487 -0.5830  1.0237 -0.3737
 9696TIP3    H153283   3.826   2.568   5.525  0.2923  0.6006 -0.5599
 9696TIP3    H253284   3.819   2.483   5.400 -0.0126 -0.2050 -0.0065
 9697TIP3   OH253285   4.487   4.844   4.945 -0.5576 -0.4559  0.5179
 9697TIP3    H153286   4.548   4.881   4.881  0.3973 -1.7441  0.6585
 9697TIP3    H253287   4.435   4.782   4.895  0.4336 -1.7378  1.0215
 9698TIP3   OH253288   4.734   6.845   2.121  0.3347 -0.2993  0.7284
 9698TIP3    H153289   4.647   6.825   2.153  0.6592 -1.9606  0.6368
 9698TIP3    H253290   4.763   6.919   2.175 -1.0583  0.1971  0.8364
 9699TIP3   OH253291   2.995   0.696   5.453 -0.4588  0.0030  0.0357
 9699TIP3    H153292   3.058   0.729   5.517  0.2493  0.4163 -0.8490
 9699TIP3    H253293   2.967   0.612   5.488  0.8482 -0.3479  0.2849
 9700TIP3   OH253294   2.835   2.904   2.988  0.1090 -0.0145 -0.2260
 9700TIP3    H153295   2.801   2.957   3.061  1.0865  0.2402  0.0527
 9700TIP3    H253296   2.905   2.957   2.950  1.8142 -1.5237  0.6984
 9701TIP3   OH253297   5.764   4.126   3.446  0.8255 -0.1112 -0.1841
 9701TIP3    H153298   5.682   4.083   3.472  0.6940  1.1986  1.7690
 9701TIP3    H253299   5.737   4.195   3.386 -0.0342  2.4174  2.8586
 9702TIP3   OH253300   0.279   3.366   4.541 -0.3155  0.6082  0.1435
 9702TIP3    H153301   0.294   3.426   4.615 -1.3290  2.3233 -0.9713
 9702TIP3    H253302   0.195   3.324   4.562 -0.4003  0.7882  0.1712
 9703TIP3   OH253303   4.733   3.189   2.389 -0.0383  0.5010 -0.2490
 9703TIP3    H153304   4.677   3.246   2.335 -1.5491 -0.9550 -0.2914
 9703TIP3    H253305   4.795   3.249   2.431 -0.5060  1.9731 -1.5624
 9704TIP3   OH253306   0.157   1.004   3.632 -0.5112 -0.0047  0.0975
 9704TIP3    H153307   0.158   0.908   3.640  0.0407  0.1248  2.0967
 9704TIP3    H253308   0.163   1.035   3.722  0.3882  1.9315 -0.5912
 9705TIP3   OH253309   6.008   2.503   3.280 -0.3725  0.3079 -0.2505
 9705TIP3    H153310   6.051   2.422   3.252  0.4750  0.3031  0.9960
 9705TIP3    H253311   5.958   2.479   3.357  0.3755  1.0719  0.5012
 9706TIP3   OH253312   4.595   3.764   2.010  0.2506  0.0046 -0.1811
 9706TIP3    H153313   4.651   3.687   2.003  0.2563 -0.1281  1.1367
 9706TIP3    H253314   4.523   3.736   2.067  0.2764  0.9800  0.3466
 9707TIP3   OH253315   2.221   2.838   3.219 -0.2150 -0.0075 -0.2065
 9707TIP3    H153316   2.151   2.822   3.282 -0.1652  0.1036 -0.1232
 9707TIP3    H253317   2.259   2.922   3.246  0.8069 -0.6934  0.5246
 9708TIP3   OH253318   5.042   5.686   2.392  0.5473  0.2265  0.1179
 9708TIP3    H153319   4.985   5.742   2.445  2.8386  0.5742  2.4027
 9708TIP3    H253320   5.117   5.742   2.371  1.2122 -0.9305 -0.7198
 9709TIP3   OH253321   1.671   5.549   4.528 -0.1875 -0.0586  0.0161
 9709TIP3    H153322   1.689   5.505   4.611  0.7336  0.0633 -0.1099
 9709TIP3    H253323   1.745   5.525   4.472 -0.6460  0.1123 -0.6687
 9710TIP3   OH253324   2.070   3.509   5.226 -0.4430 -0.4968  0.4224
 9710TIP3    H153325   2.072   3.564   5.305 -1.9793 -2.0316  1.6122
 9710TIP3    H253326   1.981   3.518   5.193  0.0504 -0.2595 -0.8660
 9711TIP3   OH253327   5.361   3.047   3.811 -0.8466  0.0578  0.0501
 9711TIP3    H153328   5.408   2.995   3.876  0.5135 -1.0886 -1.7758
 9711TIP3    H253329   5.268   3.034   3.833 -0.4206 -0.3390  1.7080
 9712TIP3   OH253330   6.416   3.877   4.640 -0.4813  0.5965 -0.0997
 9712TIP3    H153331   6.371   3.916   4.565 -3.3089 -1.0318  0.6226
 9712TIP3    H253332   6.375   3.917   4.717  1.0845  0.8750  0.6426
 9713TIP3   OH253333   6.189   3.143   2.659 -0.4957  0.1350 -0.2485
 9713TIP3    H153334   6.200   3.231   2.622 -0.4907 -0.1917 -1.0424
 9713TIP3    H253335   6.223   3.151   2.749  1.1776  0.5204 -0.8726
 9714TIP3   OH253336   0.310   6.633   2.297  0.3037  0.2401  0.2969
 9714TIP3    H153337   0.389   6.582   2.309 -0.3375 -0.6950  0.6268
 9714TIP3    H253338   0.274   6.644   2.385  0.0612  0.6571  0.1533
 9715TIP3   OH253339   6.720   5.176   3.216 -0.0586 -0.0189  0.2441
 9715TIP3    H153340   6.742   5.085   3.237 -0.2295 -0.4779 -1.4382
 9715TIP3    H253341   6.716   5.178   3.120  0.8938  1.9809  0.2048
 9716TIP3   OH253342   5.935   1.195   3.300 -0.1470  0.4605 -0.5859
 9716TIP3    H153343   5.990   1.269   3.326  1.4152 -1.2423  1.2269
 9716TIP3    H253344   5.920   1.146   3.381 -1.9137 -0.7584 -1.5620
 9717TIP3   OH253345   2.411   3.907   4.467  0.1742 -0.0099  0.0243
 9717TIP3    H153346   2.317   3.910   4.486  0.2055 -2.2913  0.8031
 9717TIP3    H253347   2.424   3.825   4.420  1.8249  0.1381  0.1608
 9718TIP3   OH253348   0.737   3.366   3.672  0.4478 -0.2650  0.5845
 9718TIP3    H153349   0.647   3.378   3.644  0.1117  1.8166  2.3039
 9718TIP3    H253350   0.777   3.311   3.604 -0.9105  2.3531 -2.5707
 9719TIP3   OH253351   1.009   6.031   3.047 -0.2554  0.2271 -0.1303
 9719TIP3    H153352   1.033   6.110   3.096 -0.0415 -0.1968  0.4596
 9719TIP3    H253353   0.936   6.058   2.992 -1.2256  0.4568  1.2077
 9720TIP3   OH253354   0.297   4.621   2.678 -0.0468  0.0710 -0.3003
 9720TIP3    H153355   0.322   4.567   2.754  1.5613  1.9325  0.5736
 9720TIP3    H253356   0.223   4.673   2.709  0.9537  1.2251  0.2221
 9721TIP3   OH253357   4.370   2.299   2.157  0.1663 -0.1645  0.6467
 9721TIP3    H153358   4.369   2.230   2.223 -0.8003 -1.8148 -1.0244
 9721TIP3    H253359   4.446   2.279   2.103 -1.2406 -1.1633 -1.0479
 9722TIP3   OH253360   3.360   2.557   3.499 -0.2401 -0.5016  0.1292
 9722TIP3    H153361   3.300   2.483   3.490 -1.3041  0.2459  0.8392
 9722TIP3    H253362   3.444   2.523   3.468 -1.1266 -1.4165 -1.4327
 9723TIP3   OH253363   5.774   0.026   3.672  0.2879  0.1206  0.3085
 9723TIP3    H153364   5.798   0.104   3.622 -0.1130 -0.7388 -1.3255
 9723TIP3    H253365   5.857  -0.018   3.690  0.3481 -1.4590 -2.9705
 9724TIP3   OH253366   3.757   0.829   4.971  0.4907 -0.2452  0.7789
 9724TIP3    H153367   3.710   0.762   5.021 -0.6128  0.9550  1.4178
 9724TIP3    H253368   3.846   0.826   5.006 -0.1164  0.1787  2.4579
 9725TIP3   OH253369   4.110   6.254   2.734 -0.0552  0.4725  0.2326
 9725TIP3    H153370   4.030   6.204   2.715 -0.5404  1.0148  0.7752
 9725TIP3    H253371   4.106   6.270   2.828  0.8023  0.3356  0.2947
 9726TIP3   OH253372   4.565   5.942   5.233 -0.3319  0.3837  0.3833
 9726TIP3    H153373   4.509   5.958   5.157  0.4355  1.0068 -0.0670
 9726TIP3    H253374   4.571   6.026   5.277 -1.0972 -0.0637  1.3848
 9727TIP3   OH253375   2.864   2.538   4.580  0.1232 -0.1980 -0.2118
 9727TIP3    H153376   2.949   2.580   4.590  0.3961 -0.4527 -1.2992
 9727TIP3    H253377   2.806   2.586   4.638  1.0896 -0.2731  0.8543
 9728TIP3   OH253378   3.908   3.228   4.811 -0.2016 -0.1579 -0.2509
 9728TIP3    H153379   3.900   3.318   4.778  2.4617 -0.3280 -1.6112
 9728TIP3    H253380   3.953   3.236   4.894  0.6164 -0.2448 -0.6757
 9729TIP3   OH253381   2.500   3.407   2.812  0.2912 -0.4001  1.1076
 9729TIP3    H153382   2.590   3.373   2.818  0.2032 -1.2620 -1.1621
 9729TIP3    H253383   2.510   3.498   2.787  0.5191 -0.1363  2.1267
 9730TIP3   OH253384   3.575   6.648   1.998 -0.1956  0.4571 -0.3531
 9730TIP3    H153385   3.534   6.571   1.957 -0.1063  0.3240 -0.1893
 9730TIP3    H253386   3.543   6.647   2.088  0.2268  0.3109 -0.2030
 9731TIP3   OH253387   2.871   3.166   4.061  0.0642 -0.0014  0.3861
 9731TIP3    H153388   2.854   3.147   3.968  0.6652  1.0193  0.0459
 9731TIP3    H253389   2.785   3.186   4.098  0.0379  1.8040 -0.5098
 9732TIP3   OH253390   4.437   0.362   4.749  0.3174 -0.1613  0.4265
 9732TIP3    H153391   4.386   0.346   4.669 -0.1940 -0.4391  0.8049
 9732TIP3    H253392   4.376   0.406   4.808  0.2286 -1.2969  1.2128
 9733TIP3   OH253393   2.122   4.714   2.635 -0.1883  0.3136  0.2029
 9733TIP3    H153394   2.197   4.772   2.624 -0.2915  0.4304  0.1197
 9733TIP3    H253395   2.076   4.747   2.712 -1.5353  1.7509 -1.1640
 9734TIP3   OH253396   0.767   0.643   4.489 -0.1043  0.3435  0.3230
 9734TIP3    H153397   0.705   0.667   4.420 -1.9018 -2.2262  0.9234
 9734TIP3    H253398   0.718   0.652   4.570  0.7073 -0.5109  0.9315
 9735TIP3   OH253399   1.537   1.271   2.504 -0.6719 -0.3907 -0.5102
 9735TIP3    H153400   1.536   1.218   2.425  2.1856 -0.2814 -0.7048
 9735TIP3    H253401   1.629   1.278   2.528 -1.0941  2.6909  0.7303
 9736TIP3   OH253402   4.297   6.116   2.562  0.0076 -0.2369 -0.1730
 9736TIP3    H153403   4.230   6.109   2.494 -0.4022 -0.0720  0.2134
 9736TIP3    H253404   4.262   6.179   2.624  1.2658  1.1815 -0.8284
 9737TIP3   OH253405   0.289   4.815   5.051 -0.7979  0.6391  0.3752
 9737TIP3    H153406   0.198   4.806   5.023 -1.2018 -1.9964  2.0980
 9737TIP3    H253407   0.299   4.907   5.076 -2.4816  1.3322 -1.3067
 9738TIP3   OH253408   1.444   5.995   2.638 -0.5102  0.0950  0.3075
 9738TIP3    H153409   1.534   5.997   2.672 -0.4129  0.3336  0.0402
 9738TIP3    H253410   1.418   5.904   2.646 -0.2337  0.0190  0.3654
 9739TIP3   OH253411   5.427   3.597   4.813 -0.8669  0.1992  0.2046
 9739TIP3    H153412   5.393   3.609   4.901 -0.1614  1.0627  0.3793
 9739TIP3    H253413   5.468   3.510   4.814  1.0666  1.0658  1.4099
 9740TIP3   OH253414   2.643   2.255   1.916  0.1410 -0.5244 -0.3336
 9740TIP3    H153415   2.657   2.348   1.900  2.7700 -0.5711  1.1425
 9740TIP3    H253416   2.655   2.213   1.831 -1.0741  0.4328 -1.0107
 9741TIP3   OH253417   4.938   5.760   4.678  0.4231  0.0044  0.4385
 9741TIP3    H153418   5.003   5.828   4.661  0.0885  0.2632  0.1798
 9741TIP3    H253419   4.965   5.687   4.622 -0.3111  0.6232 -0.7468
 9742TIP3   OH253420   6.354   4.236   3.339  0.4913 -0.3010 -0.2075
 9742TIP3    H153421   6.273   4.209   3.297  0.0953  0.5008  0.0281
 9742TIP3    H253422   6.382   4.160   3.389 -1.2089  0.0757  1.3976
 9743TIP3   OH253423   0.586   0.087   2.411 -0.0042  0.4069  0.2010
 9743TIP3    H153424   0.591   0.120   2.322  0.1621  0.1881  0.1300
 9743TIP3    H253425   0.645   0.011   2.413 -1.1164 -0.4859  0.0977
 9744TIP3   OH253426   0.518   5.634   2.029 -0.0647 -0.0916  0.4101
 9744TIP3    H153427   0.507   5.727   2.045  0.5799 -0.0900  0.8778
 9744TIP3    H253428   0.606   5.626   1.993  0.4396 -0.6628  1.7150
 9745TIP3   OH253429   3.800   2.605   4.697  0.5854 -0.2673  0.1919
 9745TIP3    H153430   3.865   2.576   4.761  0.6921 -1.5224 -0.4574
 9745TIP3    H253431   3.752   2.675   4.742  0.5460 -1.2277  1.7254
 9746TIP3   OH253432   4.232   4.426   2.280  0.4933  0.3846 -0.3626
 9746TIP3    H153433   4.313   4.474   2.298  1.1245 -0.0616 -1.8567
 9746TIP3    H253434   4.205   4.455   2.192 -0.8787  0.3846  0.0245
 9747TIP3   OH253435   0.481   4.340   2.735  0.1446  0.2825  0.1559
 9747TIP3    H153436   0.454   4.306   2.820 -0.4328 -1.0746 -0.5472
 9747TIP3    H253437   0.400   4.343   2.683  0.2036  2.5037  0.0778
 9748TIP3   OH253438   1.806   4.287   3.073  0.2247  0.2713 -0.0778
 9748TIP3    H153439   1.878   4.264   3.132  2.1137  0.7691 -2.0670
 9748TIP3    H253440   1.752   4.348   3.124  2.0366  1.0630  0.9800
 9749TIP3   OH253441   1.065   5.593   4.444 -0.4230  0.3009 -0.1896
 9749TIP3    H153442   1.107   5.650   4.509 -2.8050 -0.4362  2.1870
 9749TIP3    H253443   0.988   5.559   4.489 -1.6043 -1.1847 -3.0979
 9750TIP3   OH253444   0.675   4.308   4.995 -0.4135  0.0000 -0.4421
 9750TIP3    H153445   0.703   4.225   4.957  0.1408  0.5201 -1.2042
 9750TIP3    H253446   0.644   4.360   4.920  2.7720  1.8859 -0.6232
 9751TIP3   OH253447   2.131   1.574   3.537 -0.1731 -0.1428 -0.2170
 9751TIP3    H153448   2.167   1.644   3.591 -1.3367 -0.2522  0.7447
 9751TIP3    H253449   2.094   1.618   3.461 -0.4578  0.2325  0.1408
 9752TIP3   OH253450   2.948   2.847   4.059 -0.1477 -0.4228 -0.1801
 9752TIP3    H153451   2.988   2.822   3.976 -1.5392 -0.9317 -0.7308
 9752TIP3    H253452   2.909   2.933   4.042  0.0412 -0.2800  0.1078
 9753TIP3   OH253453   4.018   1.663   4.036  0.1645 -0.0996 -0.3238
 9753TIP3    H153454   3.999   1.598   4.104  0.3632 -1.6084 -1.6405
 9753TIP3    H253455   4.078   1.724   4.078 -0.3505 -0.5132  1.0952
 9754TIP3   OH253456   6.580   2.935   5.085  0.2696  0.2240 -0.3876
 9754TIP3    H153457   6.647   2.886   5.131  0.5394  0.1897 -0.8154
 9754TIP3    H253458   6.608   3.027   5.090 -0.2040  0.3322  0.3614
 9755TIP3   OH253459   0.586   1.319   2.083 -0.0610  0.4067  0.0629
 9755TIP3    H153460   0.648   1.271   2.138  0.5784 -0.0743 -1.0512
 9755TIP3    H253461   0.637   1.345   2.006 -0.9632  0.9818 -0.3621
 9756TIP3   OH253462   3.804   4.452   5.419  0.0433 -0.8494  0.3124
 9756TIP3    H153463   3.710   4.459   5.401 -0.0961 -1.9532  0.5631
 9756TIP3    H253464   3.845   4.514   5.358 -0.9237  0.6007  1.0758
 9757TIP3   OH253465   0.763   5.166   2.824 -0.4521 -0.5412  0.2514
 9757TIP3    H153466   0.682   5.218   2.819  0.7130  1.2805 -1.1793
 9757TIP3    H253467   0.749   5.094   2.763  0.1256  1.5753 -2.5671
 9758TIP3   OH253468   6.413   5.905   3.466 -0.0985 -0.2851  0.5801
 9758TIP3    H153469   6.367   5.833   3.509  0.3486 -0.9941 -0.1215
 9758TIP3    H253470   6.501   5.903   3.503 -0.2109  0.2076  0.8986
 9759TIP3   OH253471   5.878   0.006   2.858 -0.2210  0.0191 -0.0617
 9759TIP3    H153472   5.791  -0.027   2.833  0.3276 -2.9402  1.4833
 9759TIP3    H253473   5.932  -0.009   2.781 -0.3706 -1.3200  0.0623
 9760TIP3   OH253474   1.199   3.470   5.161 -0.6204 -0.3281  0.3215
 9760TIP3    H153475   1.203   3.529   5.086 -0.3435 -0.2056  0.4317
 9760TIP3    H253476   1.135   3.510   5.219  3.2687  2.8759  2.9192
 9761TIP3   OH253477   6.031   1.225   3.867  0.2732 -0.0584  0.1076
 9761TIP3    H153478   6.114   1.272   3.866 -0.0580  0.5273  0.0744
 9761TIP3    H253479   6.032   1.177   3.951  0.6172 -0.0107  0.1323
 9762TIP3   OH253480   6.534   1.951   3.623 -0.2425  0.1021 -0.4505
 9762TIP3    H153481   6.601   2.013   3.594 -0.9201  2.0349  1.8062
 9762TIP3    H253482   6.459   2.005   3.647 -2.0089 -1.8567 -1.1522
 9763TIP3   OH253483   2.502   1.269   2.232  0.3489 -0.1168  0.0903
 9763TIP3    H153484   2.443   1.282   2.305 -0.5007  1.1730 -0.7962
 9763TIP3    H253485   2.589   1.261   2.272 -0.1824 -0.1222  1.2659
 9764TIP3   OH253486   1.252   5.780   2.714 -0.4145  0.0586 -0.3492
 9764TIP3    H153487   1.291   5.725   2.646 -1.3494 -0.0837 -0.7843
 9764TIP3    H253488   1.270   5.734   2.796 -0.2319 -0.3232 -0.6033
 9765TIP3   OH253489   5.880   1.294   5.188 -0.5362 -0.1031 -0.1354
 9765TIP3    H153490   5.941   1.367   5.196 -0.4696 -0.2541  0.8693
 9765TIP3    H253491   5.804   1.331   5.144  0.6720 -0.1631 -2.4282
 9766TIP3   OH253492   3.297   5.825   5.004  0.3549  0.2313  0.4096
 9766TIP3    H153493   3.213   5.784   4.984  1.5822 -3.3289  1.7873
 9766TIP3    H253494   3.275   5.896   5.065 -1.7140  0.2324 -0.2553
 9767TIP3   OH253495   0.371   6.482   4.532 -0.3748  0.7375  0.0599
 9767TIP3    H153496   0.318   6.412   4.570  2.6349 -0.9522  1.5997
 9767TIP3    H253497   0.375   6.549   4.600 -2.6520  2.2148 -1.1348
 9768TIP3   OH253498   5.437   1.024   3.844  0.0608  0.2552  0.3415
 9768TIP3    H153499   5.361   0.983   3.883  0.8776 -0.5150  1.1662
 9768TIP3    H253500   5.491   1.052   3.918  1.1427 -0.2956 -0.2015
 9769TIP3   OH253501   5.336   2.230   2.639 -0.4482 -0.0972  0.4817
 9769TIP3    H153502   5.278   2.295   2.599 -0.1302 -1.5937 -2.7219
 9769TIP3    H253503   5.304   2.221   2.729 -2.4033  2.2304  0.1097
 9770TIP3   OH253504   6.682   5.859   2.998  0.1262 -0.3027  0.3316
 9770TIP3    H153505   6.722   5.913   2.931 -1.2452  0.4585  0.0843
 9770TIP3    H253506   6.756   5.820   3.046  1.1875  2.0225  0.7183
 9771TIP3   OH253507   1.798   4.370   4.662  0.2926  0.7577  0.1286
 9771TIP3    H153508   1.847   4.314   4.722  0.4695  0.8276  0.0517
 9771TIP3    H253509   1.717   4.392   4.709  0.4255  0.8038  0.3357
 9772TIP3   OH253510   4.973   2.785   3.459 -0.8048  0.6201  0.3030
 9772TIP3    H153511   5.058   2.829   3.469 -0.8856  0.5281  1.6154
 9772TIP3    H253512   4.964   2.771   3.365  0.6251  0.6700  0.1312
 9773TIP3   OH253513   1.011   1.418   3.886  0.0053 -0.8440  0.3604
 9773TIP3    H153514   0.991   1.502   3.844  0.7525 -0.9511 -0.2286
 9773TIP3    H253515   0.925   1.382   3.910 -0.3187  0.1282  0.7165
 9774TIP3   OH253516   4.075   2.232   2.240  0.0781 -0.1327  0.2323
 9774TIP3    H153517   4.143   2.289   2.205 -0.7961 -0.2275 -1.7367
 9774TIP3    H253518   4.055   2.269   2.326  1.0153  1.2437 -0.1054
 9775TIP3   OH253519   3.146   5.141   3.591 -0.0357 -0.4451 -0.0164
 9775TIP3    H153520   3.055   5.132   3.619 -0.3604  0.2302 -0.8196
 9775TIP3    H253521   3.175   5.052   3.572 -0.8198 -0.5788 -0.6269
 9776TIP3   OH253522   2.896   1.122   4.555  0.2126 -0.0717  0.5800
 9776TIP3    H153523   2.870   1.035   4.585  0.0360 -0.1059  0.3312
 9776TIP3    H253524   2.896   1.115   4.460  1.8532 -0.2956  0.5531
 9777TIP3   OH253525   0.392   4.535   4.952  0.1265 -0.0883  0.1542
 9777TIP3    H153526   0.335   4.607   4.980  0.0032  0.0831 -0.5052
 9777TIP3    H253527   0.343   4.492   4.882  1.6049  1.2952 -1.8494
 9778TIP3   OH253528   4.655   3.674   4.647 -0.1757  0.3337  0.2503
 9778TIP3    H153529   4.560   3.683   4.656  0.0569  1.0386  2.5565
 9778TIP3    H253530   4.682   3.753   4.600 -0.8355 -0.5915 -1.8138
 9779TIP3   OH253531   1.523   6.071   3.535 -0.0359 -0.5648  0.1488
 9779TIP3    H153532   1.568   6.114   3.462 -1.4651 -0.0159 -0.4555
 9779TIP3    H253533   1.530   5.978   3.516 -1.2294 -0.4128 -1.2788
 9780TIP3   OH253534   5.984   6.363   3.735 -0.4969 -0.1986  0.0542
 9780TIP3    H153535   6.001   6.431   3.670 -2.2638  0.8808  0.6475
 9780TIP3    H253536   6.070   6.342   3.771  0.2866  0.5305 -1.2909
 9781TIP3   OH253537   6.427   5.082   3.052  0.2585 -0.5254 -0.1336
 9781TIP3    H153538   6.423   5.013   3.119 -0.7198 -1.1059 -0.7599
 9781TIP3    H253539   6.338   5.087   3.018  0.3071  1.0718 -0.1058
 9782TIP3   OH253540   3.569   2.397   2.597  0.3539  0.1592  0.3170
 9782TIP3    H153541   3.557   2.484   2.560 -1.6283 -0.1177  0.1887
 9782TIP3    H253542   3.608   2.346   2.526  1.0772  0.8130  0.2345
 9783TIP3   OH253543   4.326   5.629   2.540 -0.2571  0.5094 -0.4582
 9783TIP3    H153544   4.348   5.654   2.630  0.1699  1.0210 -0.6999
 9783TIP3    H253545   4.253   5.686   2.517 -0.1525  0.6075 -0.5481
 9784TIP3   OH253546   4.913   5.245   4.362 -0.3752 -0.0787 -0.2500
 9784TIP3    H153547   4.996   5.280   4.395 -0.2116  0.1253 -0.8597
 9784TIP3    H253548   4.929   5.151   4.352  0.4517  0.2337 -2.2519
 9785TIP3   OH253549   5.312   3.982   2.971  0.4708 -0.3879  0.4602
 9785TIP3    H153550   5.326   4.005   2.879  0.2483 -0.5338  0.3904
 9785TIP3    H253551   5.294   3.888   2.970 -0.0728 -0.2865  0.5987
 9786TIP3   OH253552   0.553   2.837   5.286 -0.4080  0.3714  0.0080
 9786TIP3    H153553   0.497   2.898   5.333 -0.6203  0.7172 -0.6786
 9786TIP3    H253554   0.626   2.820   5.345 -0.1600  1.5686  0.0700
 9787TIP3   OH253555   4.776   1.668   3.905  0.0229  0.2133 -0.3700
 9787TIP3    H153556   4.809   1.579   3.915  2.1979  0.8288 -1.3865
 9787TIP3    H253557   4.682   1.658   3.897  0.2195 -2.0125 -0.5125
 9788TIP3   OH253558   3.963   3.851   1.820 -0.3648  0.2351  0.0135
 9788TIP3    H153559   3.901   3.909   1.775 -1.3152 -0.4206  0.4411
 9788TIP3    H253560   4.049   3.880   1.790 -0.8718  1.1934 -0.5682
 9789TIP3   OH253561   4.669   5.404   4.787  0.0589  0.1402 -0.2786
 9789TIP3    H153562   4.680   5.312   4.814 -0.0224  0.2371  0.0862
 9789TIP3    H253563   4.646   5.450   4.867 -1.2204  0.2584 -0.6956
 9790TIP3   OH253564   3.895   4.493   3.300  0.6367  0.5720 -0.5591
 9790TIP3    H153565   3.986   4.518   3.289  1.2311 -0.6942  1.0663
 9790TIP3    H253566   3.867   4.536   3.381 -0.0315  0.5067 -0.7428
 9791TIP3   OH253567   4.572   0.133   4.451  0.4786 -0.2709 -0.6519
 9791TIP3    H153568   4.572   0.038   4.465 -2.1738 -0.4456 -1.3037
 9791TIP3    H253569   4.569   0.142   4.355 -0.3570  0.4189 -0.5708
 9792TIP3   OH253570   6.213   0.670   2.334  0.1722  0.7034 -0.1117
 9792TIP3    H153571   6.218   0.756   2.292 -0.3762  0.4348 -0.7501
 9792TIP3    H253572   6.302   0.634   2.325 -0.3437 -0.1218 -2.7812
 9793TIP3   OH253573   4.019   1.177   2.014  0.2541  0.4442 -0.2678
 9793TIP3    H153574   4.006   1.261   2.058 -0.0435  0.1156  0.2937
 9793TIP3    H253575   3.937   1.163   1.966 -0.0399  0.0879  0.3206
 9794TIP3   OH253576   2.350   0.015   4.697  0.7245 -0.0044  0.6599
 9794TIP3    H153577   2.318   0.005   4.607 -0.3079 -0.5503  1.0747
 9794TIP3    H253578   2.445   0.020   4.687  0.5621  1.3658 -0.5719
 9795TIP3   OH253579   3.722   3.412   1.894  0.1809 -0.7118  0.3656
 9795TIP3    H153580   3.799   3.456   1.930 -1.1534  0.8732  1.3969
 9795TIP3    H253581   3.751   3.321   1.880  1.5085 -0.8134  3.1517
 9796TIP3   OH253582   5.485   4.270   1.861 -0.1814  0.3882 -0.0388
 9796TIP3    H153583   5.411   4.300   1.809 -1.6069 -1.5404  0.7622
 9796TIP3    H253584   5.527   4.350   1.892 -2.2612  1.5448 -0.0619
 9797TIP3   OH253585   5.102   3.999   2.038 -0.3821  0.3619 -0.0735
 9797TIP3    H153586   5.121   4.076   2.092 -1.3745  0.5772 -0.0260
 9797TIP3    H253587   5.009   3.984   2.049 -0.3976 -0.2246 -0.9175
 9798TIP3   OH253588   2.638   4.412   2.673  0.8040  0.0447 -0.6638
 9798TIP3    H153589   2.574   4.375   2.734  2.3020 -0.5039  0.6420
 9798TIP3    H253590   2.588   4.428   2.593 -1.1292  0.3629  0.5348
 9799TIP3   OH253591   5.578   0.661   2.209  0.1022  0.6047  0.5758
 9799TIP3    H153592   5.592   0.574   2.170 -0.5678  1.0017 -0.5600
 9799TIP3    H253593   5.664   0.685   2.244  0.5227 -0.1076  0.0549
 9800TIP3   OH253594   3.778   6.230   2.459 -0.5396  0.2640  0.4408
 9800TIP3    H153595   3.695   6.230   2.508  0.1853 -1.9457  1.7877
 9800TIP3    H253596   3.829   6.300   2.498 -0.7438 -0.1712  1.5216
 9801TIP3   OH253597   1.841   1.646   3.078  0.6368  0.4000 -0.2861
 9801TIP3    H153598   1.895   1.655   3.000  0.5548 -0.9980 -0.5164
 9801TIP3    H253599   1.751   1.656   3.046  0.5596 -0.8785 -0.5046
 9802TIP3   OH253600   4.293   5.949   4.467  0.2642  0.0773  0.0163
 9802TIP3    H153601   4.263   5.872   4.516  0.5896 -0.8211 -1.1409
 9802TIP3    H253602   4.369   5.980   4.516 -1.3236  1.2186  1.9002
 9803TIP3   OH253603   3.975   0.043   2.573 -0.1912  0.1707 -0.2397
 9803TIP3    H153604   3.979  -0.035   2.517  0.3765  0.0612 -0.0516
 9803TIP3    H253605   3.916   0.019   2.644 -0.4836  0.1190 -0.4979
 9804TIP3   OH253606   5.575   3.669   3.660 -0.2889 -0.5056 -0.0510
 9804TIP3    H153607   5.522   3.673   3.739  0.2835 -1.1231  0.3756
 9804TIP3    H253608   5.532   3.604   3.605 -0.6854 -0.0773 -0.2561
 9805TIP3   OH253609   1.239   0.336   4.239 -0.1991  0.9260  0.3102
 9805TIP3    H153610   1.236   0.284   4.320 -1.3751  0.9465  0.3036
 9805TIP3    H253611   1.312   0.299   4.190 -0.6676 -0.3887  0.5463
 9806TIP3   OH253612   5.161   3.732   4.559 -0.1525  0.4142  0.4740
 9806TIP3    H153613   5.092   3.678   4.520 -0.9083  0.7771  1.2880
 9806TIP3    H253614   5.200   3.677   4.627  0.7997 -0.0153 -0.3774
 9807TIP3   OH253615   5.097   1.070   4.396  0.2825  0.1935 -0.8564
 9807TIP3    H153616   5.046   0.989   4.389 -0.6976  0.4481  1.9216
 9807TIP3    H253617   5.182   1.042   4.431  0.5071  0.2108 -1.3844
 9808TIP3   OH253618   5.592   1.519   2.389 -0.2332 -0.2861 -0.1399
 9808TIP3    H153619   5.520   1.506   2.451 -0.4901  0.7646 -0.2022
 9808TIP3    H253620   5.550   1.539   2.306  0.1293  0.2752 -0.1911
 9809TIP3   OH253621   4.554   1.499   2.898 -0.1805 -0.1105  0.2043
 9809TIP3    H153622   4.583   1.585   2.866  1.0858 -0.6499 -0.1561
 9809TIP3    H253623   4.459   1.508   2.907 -0.4698  0.4845 -2.5223
 9810TIP3   OH253624   3.685   3.565   3.613  0.2244 -0.4692 -0.7153
 9810TIP3    H153625   3.745   3.631   3.577  1.8553 -1.3572  0.3013
 9810TIP3    H253626   3.606   3.574   3.559  1.2789  0.6631 -2.1678
 9811TIP3   OH253627   1.272   6.120   2.379  0.2446 -0.3164  0.0777
 9811TIP3    H153628   1.336   6.105   2.309  1.8479 -0.4361  1.5061
 9811TIP3    H253629   1.292   6.052   2.444 -1.7960 -0.7712  0.2962
 9812TIP3   OH253630   2.683   6.666   3.611 -0.1298 -0.2564  0.6221
 9812TIP3    H153631   2.683   6.706   3.524 -2.0521 -1.8087 -0.1748
 9812TIP3    H253632   2.759   6.704   3.655  0.7245  0.8132 -1.6182
 9813TIP3   OH253633   2.864   3.524   2.481 -0.1860  0.1840  0.7473
 9813TIP3    H153634   2.803   3.470   2.431  1.1057 -2.3864  1.7606
 9813TIP3    H253635   2.916   3.569   2.415  0.7932 -2.3161 -0.2983
 9814TIP3   OH253636   3.723   6.174   3.906  0.8525 -0.2301 -0.1090
 9814TIP3    H153637   3.717   6.263   3.872  1.3153 -0.9213 -2.1293
 9814TIP3    H253638   3.741   6.185   4.000 -1.3077  1.7700  0.1638
 9815TIP3   OH253639   2.026   2.508   2.516  0.1719 -0.3733  0.2513
 9815TIP3    H153640   1.942   2.553   2.511 -0.4491 -1.5554 -0.3249
 9815TIP3    H253641   2.003   2.415   2.517  1.5487 -0.8829 -3.0946
 9816TIP3   OH253642   5.445   1.114   3.579 -0.1577  0.3046  0.0793
 9816TIP3    H153643   5.383   1.184   3.562  0.4857  1.3727  1.8909
 9816TIP3    H253644   5.428   1.088   3.669 -1.2112 -2.7867 -0.8871
 9817TIP3   OH253645   1.729   6.835   2.963 -0.0472  0.5260  0.1385
 9817TIP3    H153646   1.753   6.827   2.871  1.9648  0.4165  0.6413
 9817TIP3    H253647   1.810   6.817   3.012 -0.8432  1.4603  1.9147
 9818TIP3   OH253648   2.602   2.068   4.043  0.0705  0.0021  0.2825
 9818TIP3    H153649   2.561   1.997   4.092 -1.2071  0.9412  0.6139
 9818TIP3    H253650   2.693   2.068   4.073  0.2966 -1.9443 -0.2593
 9819TIP3   OH253651   3.204   4.905   5.798 -0.0837 -0.0833  0.2172
 9819TIP3    H153652   3.127   4.879   5.849 -0.9315  1.4619 -0.2192
 9819TIP3    H253653   3.277   4.897   5.859 -0.6348 -1.1727  0.7667
 9820TIP3   OH253654   0.746   4.648   5.227 -0.5663 -0.0268  0.3227
 9820TIP3    H153655   0.727   4.713   5.159  2.4171 -0.7213 -1.3441
 9820TIP3    H253656   0.757   4.699   5.307  0.0674  1.3566 -0.6138
 9821TIP3   OH253657   0.908   4.509   5.583 -0.0646 -0.4092 -0.4465
 9821TIP3    H153658   0.824   4.553   5.575 -0.2841 -0.6459  0.4132
 9821TIP3    H253659   0.949   4.549   5.660  0.5185 -0.4487 -0.7287
 9822TIP3   OH253660   5.942   1.747   2.238 -0.2979  0.2191  0.1553
 9822TIP3    H153661   5.868   1.772   2.183 -0.9729 -0.0008  0.9391
 9822TIP3    H253662   5.978   1.830   2.269  1.3490  0.4630 -2.1613
 9823TIP3   OH253663   6.225   2.935   4.416  0.1959  0.3419 -0.0966
 9823TIP3    H153664   6.133   2.954   4.432 -0.6080 -2.5420 -0.6958
 9823TIP3    H253665   6.243   2.974   4.331  0.3477  3.1532  1.1363
 9824TIP3   OH253666   0.811   4.258   3.831  0.0768  0.8476 -0.2082
 9824TIP3    H153667   0.889   4.202   3.831 -1.4893 -1.4933  0.7355
 9824TIP3    H253668   0.765   4.236   3.750 -1.1395 -0.2107  0.7224
 9825TIP3   OH253669   5.033   1.947   4.989  0.3971 -0.1419 -0.2362
 9825TIP3    H153670   5.098   1.992   5.043  0.4963 -1.4886  0.8518
 9825TIP3    H253671   4.952   1.952   5.040  0.3235 -0.8384 -0.2706
 9826TIP3   OH253672   2.705   6.447   4.818 -0.1002  0.2964 -0.1484
 9826TIP3    H153673   2.677   6.433   4.908  1.4996 -0.9528  0.1992
 9826TIP3    H253674   2.687   6.539   4.801 -2.1339  0.1155  0.8032
 9827TIP3   OH253675   4.596   4.826   2.352 -0.4314  0.2366 -0.1372
 9827TIP3    H153676   4.634   4.905   2.388 -0.5425 -0.0399  0.6106
 9827TIP3    H253677   4.590   4.842   2.258 -1.4959  1.5597  0.1286
 9828TIP3   OH253678   4.619   5.738   4.499  0.1784  0.3893  0.2596
 9828TIP3    H153679   4.704   5.712   4.461 -0.3675  0.6536 -1.2251
 9828TIP3    H253680   4.554   5.690   4.447 -0.5754 -0.9177  2.2851
 9829TIP3   OH253681   4.579   0.591   4.887 -0.1886 -0.0941  0.5289
 9829TIP3    H153682   4.657   0.596   4.942  0.4206  1.1541 -0.3921
 9829TIP3    H253683   4.611   0.555   4.804 -0.8539 -0.7724  0.5558
 9830TIP3   OH253684   1.341   2.804   2.730 -0.0120  0.3500  0.1365
 9830TIP3    H153685   1.393   2.835   2.656  0.0855  1.3378  0.6031
 9830TIP3    H253686   1.295   2.882   2.761 -2.0679 -0.5336 -0.4757
 9831TIP3   OH253687   1.930   1.784   2.093  0.5119  0.8429 -0.1063
 9831TIP3    H153688   1.874   1.851   2.130  1.5349  1.7108 -0.0743
 9831TIP3    H253689   1.879   1.703   2.099 -0.7261  1.6052 -0.1244
 9832TIP3   OH253690   5.955   4.288   2.003 -0.0386  0.4886  0.3399
 9832TIP3    H153691   5.950   4.203   2.045 -0.2968  0.3111 -0.0381
 9832TIP3    H253692   5.881   4.289   1.941  0.8379  0.3870 -0.7469
 9833TIP3   OH253693   0.868   2.077   4.567  0.1194  0.4410  0.1568
 9833TIP3    H153694   0.815   2.062   4.645 -0.4757  0.1276 -0.2987
 9833TIP3    H253695   0.940   2.015   4.575 -1.0346 -1.0622 -0.5270
 9834TIP3   OH253696   3.472   1.914   3.789 -0.2292 -0.5758 -0.1541
 9834TIP3    H153697   3.490   2.006   3.809  1.0389 -0.5131 -1.4448
 9834TIP3    H253698   3.501   1.867   3.867 -1.0992  0.1082  0.6157
 9835TIP3   OH253699   6.672   0.189   2.365 -0.0933 -0.0319  0.4565
 9835TIP3    H153700   6.589   0.198   2.413 -0.1138  1.2258  0.2026
 9835TIP3    H253701   6.664   0.250   2.292  0.3637 -1.1625 -0.5710
 9836TIP3   OH253702   4.262   3.945   3.664  0.4277  0.1413 -0.5620
 9836TIP3    H153703   4.305   3.942   3.750 -0.5585 -0.0753 -0.0603
 9836TIP3    H253704   4.317   4.002   3.612  1.5622 -0.4718 -0.0770
 9837TIP3   OH253705   0.804   3.686   4.977 -0.2999  0.1473 -0.3875
 9837TIP3    H153706   0.858   3.699   5.054 -0.9809 -1.2136  0.3484
 9837TIP3    H253707   0.715   3.679   5.010 -0.8872  1.5877 -1.5094
 9838TIP3   OH253708   2.957   4.311   4.139 -0.1496  0.2412  0.0731
 9838TIP3    H153709   2.899   4.257   4.193  0.7744 -1.0503 -0.1970
 9838TIP3    H253710   3.016   4.249   4.097  1.6074  1.5444  0.5281
 9839TIP3   OH253711   1.929   1.218   4.605 -0.4383  0.5861  0.0931
 9839TIP3    H153712   2.023   1.217   4.624 -0.9314  0.4972  3.1899
 9839TIP3    H253713   1.891   1.268   4.678 -2.8606 -0.1462 -0.5673
 9840TIP3   OH253714   3.150   5.388   4.703  0.1823  0.0438 -0.0427
 9840TIP3    H153715   3.157   5.427   4.616 -0.1649  0.3723  0.0723
 9840TIP3    H253716   3.137   5.295   4.687  0.4277  0.0570 -0.3343
 9841TIP3   OH253717   6.251   1.084   2.093 -0.5344  0.1920  0.4014
 9841TIP3    H153718   6.269   0.997   2.058 -1.6407  0.0779  0.0619
 9841TIP3    H253719   6.322   1.101   2.154  0.4588 -0.3687 -0.5620
 9842TIP3   OH253720   1.624   5.742   5.010 -0.1382 -0.4318 -0.3604
 9842TIP3    H153721   1.581   5.772   4.930 -0.0213  1.3767  0.2033
 9842TIP3    H253722   1.552   5.731   5.073 -0.0305  0.1230 -0.1389
 9843TIP3   OH253723   0.950   4.856   2.405  0.3178 -0.3626  0.0365
 9843TIP3    H153724   0.862   4.892   2.395  0.1802 -0.5203  0.6815
 9843TIP3    H253725   0.978   4.840   2.315 -0.6978 -1.2399 -0.1468
 9844TIP3   OH253726   1.360   2.059   3.515  0.2547 -0.2705  0.0521
 9844TIP3    H153727   1.372   1.964   3.508  1.4122 -0.0600 -1.1269
 9844TIP3    H253728   1.293   2.079   3.449 -1.1564 -0.4358  1.3718
 9845TIP3   OH253729   4.045   6.646   3.725  0.1931  0.3890  0.1555
 9845TIP3    H153730   4.010   6.576   3.670 -1.9325  0.3588  1.4039
 9845TIP3    H253731   4.104   6.695   3.668  3.2465 -3.3618 -0.3291
 9846TIP3   OH253732   5.873   6.641   3.796 -0.2892  0.4013  0.0306
 9846TIP3    H153733   5.917   6.598   3.723 -0.0692 -0.3094  0.5786
 9846TIP3    H253734   5.781   6.645   3.770 -0.7537 -2.5505  0.9420
 9847TIP3   OH253735   1.691   2.379   4.620  0.1907 -0.7629  0.2973
 9847TIP3    H153736   1.733   2.302   4.658  1.9187  0.1401  0.3349
 9847TIP3    H253737   1.681   2.440   4.693 -0.0506 -0.4887  0.0382
 9848TIP3   OH253738   2.422   0.862   2.647 -0.1593  0.3230 -0.1708
 9848TIP3    H153739   2.440   0.956   2.648 -0.5909  0.5932  4.1719
 9848TIP3    H253740   2.328   0.856   2.666  0.2391 -0.8455  1.7519
 9849TIP3   OH253741   4.888   6.045   2.961 -0.3549  0.0388  0.4460
 9849TIP3    H153742   4.823   5.995   3.010 -0.1393  0.7338  1.4729
 9849TIP3    H253743   4.953   5.979   2.935 -0.5668 -0.3755  0.9421
 9850TIP3   OH253744   5.038   1.551   4.211 -0.3879 -0.2108 -0.2470
 9850TIP3    H153745   5.045   1.646   4.211  0.9578 -0.2755  0.9228
 9850TIP3    H253746   5.041   1.527   4.304  1.3993 -1.4982 -0.5890
 9851TIP3   OH253747   1.620   5.697   2.693 -0.2909 -0.5634 -0.2474
 9851TIP3    H153748   1.655   5.614   2.661 -0.7930 -1.2872  1.0321
 9851TIP3    H253749   1.555   5.723   2.628  0.8159 -0.4613 -1.3563
 9852TIP3   OH253750   3.452   3.094   4.863  0.3222 -0.4110  0.0211
 9852TIP3    H153751   3.370   3.048   4.848  1.6705 -2.5315 -1.4701
 9852TIP3    H253752   3.509   3.067   4.791  1.9532  1.9789  0.2699
 9853TIP3   OH253753   3.381   3.758   4.943  0.2232 -0.3219 -0.1140
 9853TIP3    H153754   3.463   3.710   4.949  0.4635  0.1897  0.9245
 9853TIP3    H253755   3.406   3.844   4.908  0.7097  1.0217  3.1390
 9854TIP3   OH253756   1.962   1.281   3.980 -0.0587  0.6365 -0.3138
 9854TIP3    H153757   2.035   1.322   3.934  0.7579  1.6157  1.7376
 9854TIP3    H253758   1.889   1.343   3.969 -0.1238  0.4519 -0.9760
 9855TIP3   OH253759   0.535   5.325   4.670 -0.8864 -0.1398  0.2643
 9855TIP3    H153760   0.586   5.244   4.674  3.1578  1.7819 -3.7095
 9855TIP3    H253761   0.499   5.327   4.581 -1.3733  2.1057  0.4416
 9856TIP3   OH253762   6.228   5.217   3.307 -0.6443 -0.3591 -0.3702
 9856TIP3    H153763   6.312   5.191   3.342 -0.6656 -0.1690 -0.1804
 9856TIP3    H253764   6.241   5.307   3.277 -0.7956 -0.3086 -0.2853
 9857TIP3   OH253765   4.546   0.913   3.563  0.2884 -0.0999  0.0800
 9857TIP3    H153766   4.535   1.008   3.555 -0.0441 -0.1595 -0.2091
 9857TIP3    H253767   4.471   0.885   3.616  1.0897 -0.0400  1.2945
 9858TIP3   OH253768   2.635   5.091   4.843 -0.5645 -0.2141  0.4954
 9858TIP3    H153769   2.643   4.999   4.870  1.2826 -0.1036  0.4780
 9858TIP3    H253770   2.579   5.088   4.765  0.5382 -1.5179 -0.2962
 9859TIP3   OH253771   5.700   2.778   2.201  0.2650  0.4205 -0.4687
 9859TIP3    H153772   5.631   2.733   2.152  0.6553  0.3375 -0.9490
 9859TIP3    H253773   5.661   2.794   2.287  0.2751 -1.3141 -0.0999
 9860TIP3   OH253774   5.624   5.747   3.393 -0.6161 -0.2077  0.1151
 9860TIP3    H153775   5.591   5.833   3.369 -0.1386  0.1290  0.6277
 9860TIP3    H253776   5.716   5.748   3.366 -0.7786 -0.8120 -0.4985
 9861TIP3   OH253777   1.702   5.891   3.038 -0.0153  0.2740  0.3258
 9861TIP3    H153778   1.673   5.950   2.968  0.7345  2.4570  1.7305
 9861TIP3    H253779   1.652   5.811   3.024 -2.7669  1.9720 -0.4485
 9862TIP3   OH253780   1.750   5.493   2.589  0.6012  0.8489  0.3592
 9862TIP3    H153781   1.799   5.440   2.651 -0.5932  0.1977  0.7738
 9862TIP3    H253782   1.785   5.470   2.503  1.5415  0.9811  0.7000
 9863TIP3   OH253783   3.575   3.881   3.434 -0.3974 -0.3975  0.1044
 9863TIP3    H153784   3.576   3.919   3.522 -0.5120  0.1530 -0.1311
 9863TIP3    H253785   3.664   3.846   3.422 -0.1407  0.2326  0.1373
 9864TIP3   OH253786   1.905   3.287   4.594 -0.5616 -0.1371 -0.0266
 9864TIP3    H153787   1.971   3.317   4.531  0.1250 -1.6513 -0.0664
 9864TIP3    H253788   1.947   3.298   4.679 -0.3257 -0.9008 -0.0383
 9865TIP3   OH253789   4.829   5.526   3.767  0.1408  0.0649  0.0247
 9865TIP3    H153790   4.891   5.557   3.701 -2.4379 -0.2604 -2.7479
 9865TIP3    H253791   4.770   5.601   3.781 -2.6314 -1.4509 -2.3612
 9866TIP3   OH253792   1.124   2.534   3.334 -0.3552  0.8685 -0.0437
 9866TIP3    H153793   1.169   2.610   3.370 -0.6295  0.6260  0.8342
 9866TIP3    H253794   1.061   2.570   3.272 -0.2502  1.3291  0.1165
 9867TIP3   OH253795   1.940   3.599   4.715 -0.1532 -0.3911 -0.8495
 9867TIP3    H153796   2.017   3.599   4.659 -0.5386 -1.0001 -1.3932
 9867TIP3    H253797   1.870   3.636   4.661 -0.7431 -1.8306 -1.1050
 9868TIP3   OH253798   6.254   6.584   3.361  0.9701 -0.2442 -0.2250
 9868TIP3    H153799   6.347   6.568   3.374  0.6983 -1.6029  0.2851
 9868TIP3    H253800   6.231   6.532   3.284  0.2759 -1.4885  0.7840
 9869TIP3   OH253801   1.214   3.260   2.979  0.2418  0.0247  0.1230
 9869TIP3    H153802   1.168   3.342   2.993  2.7390  1.6824 -0.7015
 9869TIP3    H253803   1.242   3.233   3.067  0.3303  0.6553  0.2917
 9870TIP3   OH253804   2.553   0.407   2.648  0.1033  0.3338  0.3483
 9870TIP3    H153805   2.610   0.349   2.599  0.5643  2.1896 -1.4137
 9870TIP3    H253806   2.532   0.358   2.728  1.7812 -1.5455 -0.2925
 9871TIP3   OH253807   5.420   0.231   4.936  1.0851  0.4294  0.2867
 9871TIP3    H153808   5.434   0.217   5.029  0.2776  0.9028  0.4873
 9871TIP3    H253809   5.387   0.320   4.929  0.6990  0.2457 -0.4023
 9872TIP3   OH253810   3.619   6.260   1.712  0.0007 -0.1860  0.2254
 9872TIP3    H153811   3.689   6.306   1.666  0.8697  0.0437  1.7080
 9872TIP3    H253812   3.660   6.180   1.744  0.1455  0.7817  2.6566
 9873TIP3   OH253813   6.346   1.801   4.012  0.2514  0.7002 -0.0103
 9873TIP3    H153814   6.349   1.726   4.072  0.3614  0.0833 -0.7762
 9873TIP3    H253815   6.437   1.817   3.989  0.0332 -1.5471 -3.0052
 9874TIP3   OH253816   5.633   2.544   3.630  0.3930 -0.4788  0.0492
 9874TIP3    H153817   5.552   2.495   3.636  1.0510 -1.5824  0.1641
 9874TIP3    H253818   5.607   2.636   3.640 -0.7946 -0.8340  0.3070
 9875TIP3   OH253819   6.429   6.142   3.171 -0.2165  0.5765  0.6650
 9875TIP3    H153820   6.426   6.073   3.238 -0.0171  0.1122  0.2069
 9875TIP3    H253821   6.429   6.224   3.220  0.6005  0.2341  1.2528
 9876TIP3   OH253822   3.310   5.226   4.162  0.3530 -0.6972  0.3637
 9876TIP3    H153823   3.232   5.270   4.196  0.7353  0.2208  0.0902
 9876TIP3    H253824   3.292   5.213   4.069  1.1040  0.8997 -0.0457
 9877TIP3   OH253825   0.204   0.583   2.795 -0.1414  0.0661 -0.1467
 9877TIP3    H153826   0.196   0.598   2.701  1.5244  0.4710 -0.2573
 9877TIP3    H253827   0.275   0.642   2.823 -1.1381  0.5378  1.5097
 9878TIP3   OH253828   5.179   2.396   3.406 -0.6579 -0.2268  0.5650
 9878TIP3    H153829   5.161   2.304   3.421 -2.0870  0.0130  0.5301
 9878TIP3    H253830   5.223   2.426   3.485 -0.0683 -0.9616  0.5190
 9879TIP3   OH253831   6.005   3.817   4.538  0.0245  0.0292  0.6382
 9879TIP3    H153832   6.040   3.731   4.560 -0.4916  0.2379  2.4347
 9879TIP3    H253833   5.917   3.817   4.576 -0.4715  0.9116 -0.4445
 9880TIP3   OH253834   2.249   3.459   3.007  0.0783  0.1196 -0.0867
 9880TIP3    H153835   2.224   3.485   2.918 -2.5309  1.9635  1.0345
 9880TIP3    H253836   2.340   3.486   3.015  0.0871  0.7963 -1.9197
 9881TIP3   OH253837   0.583   5.421   3.245  0.2507 -0.3441  0.4693
 9881TIP3    H153838   0.657   5.383   3.197  0.5642  1.9281 -0.9800
 9881TIP3    H253839   0.511   5.422   3.182 -0.9358 -2.0211  1.7009
 9882TIP3   OH253840   2.674   3.105   4.244 -0.4136 -0.4534  0.0727
 9882TIP3    H153841   2.686   3.014   4.272 -0.9412 -0.2414  1.0210
 9882TIP3    H253842   2.601   3.137   4.298 -0.4242  0.4441 -0.4611
 9883TIP3   OH253843   1.651   3.441   4.582  0.5098 -0.2008  0.3153
 9883TIP3    H153844   1.593   3.478   4.515  0.4232  0.5713  0.8023
 9883TIP3    H253845   1.739   3.448   4.544  0.6281  1.5636  0.8241
 9884TIP3   OH253846   0.609   1.626   3.797 -0.2494  0.1243 -0.2735
 9884TIP3    H153847   0.678   1.618   3.731 -0.3558  1.2806 -0.5497
 9884TIP3    H253848   0.641   1.695   3.856 -0.5176 -0.3427  0.4288
 9885TIP3   OH253849   5.849   0.715   3.333 -0.4908 -0.2776 -0.4307
 9885TIP3    H153850   5.886   0.627   3.338 -0.7170 -0.3616 -0.2129
 9885TIP3    H253851   5.791   0.713   3.257 -2.3224 -1.0254  0.9215
 9886TIP3   OH253852   2.740   5.033   4.441  0.5931  0.3713 -0.2443
 9886TIP3    H153853   2.778   4.953   4.478  0.4508  0.4176  0.0016
 9886TIP3    H253854   2.678   5.064   4.507 -0.4492 -0.1237 -0.9720
 9887TIP3   OH253855   4.573   3.213   3.810 -0.9379 -0.4888 -0.1914
 9887TIP3    H153856   4.633   3.191   3.738 -1.1823 -2.0681  0.0485
 9887TIP3    H253857   4.629   3.213   3.888 -0.5732  1.7205 -0.3888
 9888TIP3   OH253858   2.242   1.495   2.626 -0.5669 -0.8421 -0.1972
 9888TIP3    H153859   2.198   1.410   2.621 -0.9346 -0.6811  0.2129
 9888TIP3    H253860   2.200   1.548   2.557 -0.4159 -0.9587 -0.3780
 9889TIP3   OH253861   2.638   0.270   2.393 -0.3519  0.0188 -0.9006
 9889TIP3    H153862   2.574   0.229   2.334 -0.7566 -0.9937  0.1958
 9889TIP3    H253863   2.702   0.201   2.409 -0.3903  0.1945  0.0342
 9890TIP3   OH253864   2.099   1.841   4.319  0.2190  0.0509  0.2755
 9890TIP3    H153865   2.068   1.873   4.234  0.0730  2.8958  1.2907
 9890TIP3    H253866   2.084   1.746   4.316  0.1173  0.0671 -2.7886
 9891TIP3   OH253867   0.946   3.546   2.803 -0.1161  0.1516  0.3654
 9891TIP3    H153868   0.939   3.629   2.757  0.0237 -0.5306 -0.9360
 9891TIP3    H253869   0.858   3.531   2.840 -0.5104  0.2521 -0.5179
 9892TIP3   OH253870   5.749   2.694   3.242  0.4527 -0.4414  0.1831
 9892TIP3    H153871   5.697   2.747   3.182  0.1256 -0.7844  0.1581
 9892TIP3    H253872   5.703   2.610   3.246  0.3002 -0.3230  1.1534
 9893TIP3   OH253873   4.213   4.435   4.118 -0.4978  0.2011 -0.1835
 9893TIP3    H153874   4.165   4.510   4.081 -0.5291  0.3853  0.2239
 9893TIP3    H253875   4.190   4.435   4.211 -0.1557 -0.0556 -0.0956
 9894TIP3   OH253876   5.283   5.811   5.615 -0.2999  0.3601  0.1966
 9894TIP3    H153877   5.254   5.830   5.526  0.8934  3.1613  0.2845
 9894TIP3    H253878   5.346   5.880   5.634  1.0455 -1.3602  2.4971
 9895TIP3   OH253879   1.790   0.746   3.773 -0.0925  0.2615  0.3414
 9895TIP3    H153880   1.813   0.828   3.729  1.3859 -0.8950 -1.1510
 9895TIP3    H253881   1.771   0.772   3.863  0.0831  2.2664 -0.1453
 9896TIP3   OH253882   3.778   2.246   3.031 -0.0965 -0.1968 -0.2177
 9896TIP3    H153883   3.741   2.206   3.109  0.6488  0.0822  0.2895
 9896TIP3    H253884   3.832   2.177   2.991 -1.4684 -0.7483 -1.2026
 9897TIP3   OH253885   2.944   6.807   2.834  0.0587  0.5887 -0.0575
 9897TIP3    H153886   2.931   6.729   2.887  1.7806  1.0534  1.1320
 9897TIP3    H253887   2.879   6.800   2.764  0.1768 -1.9083  0.0045
 9898TIP3   OH253888   5.213   2.885   2.116  0.0691  0.2588 -0.3802
 9898TIP3    H153889   5.124   2.849   2.109 -0.1518  0.9194 -0.9816
 9898TIP3    H253890   5.204   2.977   2.093  0.3783  1.1181  2.5388
 9899TIP3   OH253891   2.723   4.091   2.600 -0.2790  0.1150  0.0828
 9899TIP3    H153892   2.796   4.060   2.545 -0.6919  0.6285 -0.7770
 9899TIP3    H253893   2.764   4.147   2.665  0.1197  0.2352 -0.2659
 9900TIP3   OH253894   4.801   4.736   4.190 -0.2401  0.0150  0.2286
 9900TIP3    H153895   4.878   4.679   4.188  1.8036  2.5511 -3.3734
 9900TIP3    H253896   4.828   4.811   4.242 -0.1343  1.0149 -1.2280
 9901TIP3   OH253897   4.495   5.412   4.119  0.3682  0.0998 -0.4407
 9901TIP3    H153898   4.512   5.478   4.052  0.8618 -0.1563 -0.5762
 9901TIP3    H253899   4.429   5.451   4.176  0.5293  0.6412 -0.6180
 9902TIP3   OH253900   6.409   1.549   2.720  0.2847  0.5467 -0.3131
 9902TIP3    H153901   6.394   1.454   2.721 -0.9682  0.7152 -0.8683
 9902TIP3    H253902   6.364   1.581   2.799  0.6897  0.6853 -0.1361
 9903TIP3   OH253903   6.240   4.793   4.324 -0.5947 -0.3898 -0.6111
 9903TIP3    H153904   6.225   4.861   4.258  0.5319  0.1202 -0.3638
 9903TIP3    H253905   6.185   4.720   4.296 -0.5429  0.0127 -1.8263
 9904TIP3   OH253906   3.466   2.684   4.983 -0.3253 -0.4023 -0.1937
 9904TIP3    H153907   3.421   2.703   4.900 -2.1737  0.9118  1.0521
 9904TIP3    H253908   3.409   2.622   5.027  0.8845 -1.4556 -0.0463
 9905TIP3   OH253909   1.928   5.256   4.678 -0.6220  0.2748 -0.3077
 9905TIP3    H153910   1.868   5.321   4.714 -0.0802  0.6928 -0.1418
 9905TIP3    H253911   1.969   5.216   4.755  1.3019  1.8845 -0.4192
 9906TIP3   OH253912   3.726   4.710   2.088  0.0033 -0.2727 -0.1270
 9906TIP3    H153913   3.816   4.727   2.061  0.6027 -1.7646  0.8229
 9906TIP3    H253914   3.680   4.792   2.069  1.8231  0.9762  0.5207
 9907TIP3   OH253915   5.782   2.372   4.630 -0.3839 -0.1408 -0.2517
 9907TIP3    H153916   5.843   2.355   4.702 -0.5171 -0.2613 -0.1652
 9907TIP3    H253917   5.766   2.466   4.634  0.7237  0.0861 -1.0267
 9908TIP3   OH253918   0.986   6.331   1.808 -0.2483  0.0775  0.1719
 9908TIP3    H153919   1.073   6.323   1.847  0.8380  0.9452 -1.9226
 9908TIP3    H253920   0.973   6.248   1.761  0.5779  0.8639 -1.5484
 9909TIP3   OH253921   5.180   5.367   3.768 -0.4011  0.1634  0.6824
 9909TIP3    H153922   5.214   5.375   3.857  1.6516 -0.3051 -0.0091
 9909TIP3    H253923   5.124   5.290   3.770 -0.4963  0.2454  1.5975
 9910TIP3   OH253924   2.476   3.771   4.125  0.1665  0.0230  0.0233
 9910TIP3    H153925   2.456   3.852   4.172 -0.4970 -0.8453  1.3151
 9910TIP3    H253926   2.568   3.779   4.100  0.7581  0.2490  2.1193
 9911TIP3   OH253927   0.858   4.831   4.168 -0.6433  0.2013 -0.8717
 9911TIP3    H153928   0.867   4.754   4.223  0.1372  0.3916 -0.7145
 9911TIP3    H253929   0.786   4.880   4.206 -1.8324 -0.9376 -1.5746
 9912TIP3   OH253930   2.518   3.476   3.115  0.9298 -0.6173  0.7901
 9912TIP3    H153931   2.562   3.526   3.046 -1.7572  1.1962  0.2095
 9912TIP3    H253932   2.495   3.542   3.181 -0.1809 -1.6077  1.4262
 9913TIP3   OH253933   0.055   3.469   3.792  0.3977  0.0036 -0.0758
 9913TIP3    H153934   0.027   3.487   3.702  1.7613  0.9601 -0.3352
 9913TIP3    H253935   0.146   3.498   3.795  0.2470  0.4058  1.7450
 9914TIP3   OH253936   0.300   3.739   5.422 -0.3028 -0.5432 -0.1133
 9914TIP3    H153937   0.296   3.834   5.421  0.8840 -0.4774 -0.0960
 9914TIP3    H253938   0.316   3.714   5.331 -1.8504 -0.8164 -0.3390
 9915TIP3   OH253939   5.698   5.435   3.473  0.1566 -0.1554 -0.3536
 9915TIP3    H153940   5.637   5.374   3.512  0.4520 -1.3549 -1.6692
 9915TIP3    H253941   5.703   5.408   3.381 -0.3465  2.3665 -1.2086
 9916TIP3   OH253942   4.881   6.656   3.590 -0.2287  0.2180  0.6994
 9916TIP3    H153943   4.863   6.568   3.557 -2.0221  0.2345  1.4935
 9916TIP3    H253944   4.867   6.713   3.514  2.2591 -0.2166 -0.1829
 9917TIP3   OH253945   4.896   6.765   4.082  0.3079  0.1713  0.3087
 9917TIP3    H153946   4.929   6.687   4.127  1.1294 -1.6625 -3.1291
 9917TIP3    H253947   4.803   6.746   4.066  0.3456  0.2132  0.0431
 9918TIP3   OH253948   4.512   6.771   3.808 -0.2844 -0.5228  0.4995
 9918TIP3    H153949   4.439   6.834   3.804  1.2005  1.2263 -0.6419
 9918TIP3    H253950   4.483   6.697   3.755  0.0436  1.6849 -3.1480
 9919TIP3   OH253951   2.764   2.224   4.297 -0.2802  0.1092 -0.1871
 9919TIP3    H153952   2.689   2.237   4.354 -0.9409 -0.0415 -1.0040
 9919TIP3    H253953   2.802   2.311   4.287 -0.8644  0.3354 -0.4656
 9920TIP3   OH253954   2.740   0.593   5.024 -0.1560  0.0351  0.0452
 9920TIP3    H153955   2.772   0.662   5.082  2.1852 -0.9679  0.0734
 9920TIP3    H253956   2.790   0.516   5.049 -0.9952 -1.0847 -1.5714
 9921TIP3   OH253957   1.452   2.306   4.096 -0.2051  0.1558  0.1375
 9921TIP3    H153958   1.376   2.290   4.040  0.3812  0.6416 -0.8266
 9921TIP3    H253959   1.435   2.391   4.137  0.0688  0.5330 -0.5200
 9922TIP3   OH253960   5.143   0.886   3.383 -0.3227 -0.3683 -0.8980
 9922TIP3    H153961   5.203   0.949   3.344  0.2264 -2.3302 -3.4490
 9922TIP3    H253962   5.183   0.865   3.468  0.3523  1.3890 -0.7323
 9923TIP3   OH253963   6.642   3.733   2.896 -0.0138  0.1387  0.2386
 9923TIP3    H153964   6.548   3.722   2.885 -0.1707  1.8785 -0.5171
 9923TIP3    H253965   6.663   3.688   2.978 -1.6253  0.3951  0.8155
 9924TIP3   OH253966   4.001   0.675   2.906 -0.1894  0.1514 -0.8905
 9924TIP3    H153967   3.983   0.594   2.858  2.1694  0.8836 -3.2233
 9924TIP3    H253968   4.054   0.727   2.847 -0.1452  2.7123  1.2207
 9925TIP3   OH253969   2.168   4.563   3.775 -0.1377  0.5826  0.0252
 9925TIP3    H153970   2.209   4.605   3.699 -0.0876  0.3305 -0.0864
 9925TIP3    H253971   2.150   4.635   3.835 -0.5883  0.8510 -0.4185
 9926TIP3   OH253972   4.986   4.160   5.035 -0.2961  0.2133 -0.3730
 9926TIP3    H153973   5.045   4.231   5.060  0.1478  0.2539 -1.4781
 9926TIP3    H253974   4.923   4.202   4.976 -0.8006 -0.0460 -0.0174
 9927TIP3   OH253975   2.040   3.404   3.811 -0.2913  0.1735  0.1403
 9927TIP3    H153976   2.057   3.363   3.896 -0.2092 -0.3293 -0.1194
 9927TIP3    H253977   1.995   3.337   3.760 -2.3399  1.1903  0.5227
 9928TIP3   OH253978   4.769   2.942   3.940 -0.2518 -0.0537  0.3218
 9928TIP3    H153979   4.796   2.882   4.009 -1.4675 -1.5840 -0.4661
 9928TIP3    H253980   4.763   3.027   3.983  2.3777 -0.2563  1.2595
 9929TIP3   OH253981   1.295   2.475   5.208  0.3573  0.5177  0.1202
 9929TIP3    H153982   1.372   2.527   5.232 -0.0850  0.5764  1.4709
 9929TIP3    H253983   1.227   2.540   5.191  0.2670  0.4233  0.1199
 9930TIP3   OH253984   0.197   0.072   4.556 -0.1558  0.1837  0.6701
 9930TIP3    H153985   0.223   0.040   4.642  3.2889 -0.8452 -0.5779
 9930TIP3    H253986   0.182  -0.008   4.505 -1.9110  0.7740  0.1962
 9931TIP3   OH253987   5.168   5.952   4.558 -0.1358  0.1134 -0.1323
 9931TIP3    H153988   5.203   6.025   4.609  0.9320 -0.9450  0.6992
 9931TIP3    H253989   5.246   5.902   4.532 -0.8492 -0.7117 -0.7290
 9932TIP3   OH253990   6.693   2.046   3.017 -0.1704 -0.2141 -1.0053
 9932TIP3    H153991   6.628   2.115   3.001  1.1648  1.7012  1.2456
 9932TIP3    H253992   6.678   2.019   3.107  1.4077 -0.5476 -0.8185
 9933TIP3   OH253993   4.898   0.738   3.294 -0.3607  0.0423  0.0505
 9933TIP3    H153994   4.871   0.659   3.342 -3.2447  1.1626  0.5348
 9933TIP3    H253995   4.986   0.756   3.325 -0.2328 -2.0941  1.1243
 9934TIP3   OH253996   1.564   2.608   3.861 -0.9003  0.5521 -0.1405
 9934TIP3    H153997   1.518   2.692   3.868 -2.0730  0.0510 -1.3165
 9934TIP3    H253998   1.513   2.559   3.796  1.2719 -0.0695 -1.4750
 9935TIP3   OH253999   4.471   0.475   4.341  0.0967  0.1282 -0.6727
 9935TIP3    H154000   4.514   0.538   4.399 -1.5502  1.1980 -0.5666
 9935TIP3    H254001   4.543   0.433   4.294  1.3665  0.4901  0.8566
 9936TIP3   OH254002   0.424   1.509   2.185 -0.7116  0.1870  0.3111
 9936TIP3    H154003   0.436   1.575   2.117 -0.5478 -0.7109 -0.5676
 9936TIP3    H254004   0.479   1.436   2.156 -1.5483 -0.6565  0.8029
 9937TIP3   OH254005   3.554   2.343   2.875 -0.2212 -0.5693 -0.3347
 9937TIP3    H154006   3.574   2.379   2.789 -0.3848  0.6255  0.0944
 9937TIP3    H254007   3.637   2.344   2.922 -0.0274 -1.7185 -0.6449
 9938TIP3   OH254008   4.783   6.017   5.024  0.0207  0.2112  0.4351
 9938TIP3    H154009   4.791   5.997   4.931  1.6200  0.4297  0.4945
 9938TIP3    H254010   4.691   6.042   5.036 -0.6308 -1.4923 -0.7344
 9939TIP3   OH254011   5.008   5.330   2.830  0.0019 -0.2630  0.4770
 9939TIP3    H154012   5.031   5.366   2.916 -1.5931 -1.9536  1.6770
 9939TIP3    H254013   4.941   5.391   2.797 -0.7265 -0.5943  1.2870
 9940TIP3   OH254014   2.541   4.767   3.810  0.5968  0.0323 -0.2888
 9940TIP3    H154015   2.501   4.713   3.742 -0.0340  1.9108 -1.4734
 9940TIP3    H254016   2.471   4.822   3.842  1.8233  2.3857 -1.4039
 9941TIP3   OH254017   6.584   1.710   5.072  0.3428  0.7504  0.3050
 9941TIP3    H154018   6.575   1.802   5.050  1.0697  0.3773 -1.7641
 9941TIP3    H254019   6.677   1.691   5.061 -0.1020 -0.6915 -1.4658
 9942TIP3   OH254020   0.326   1.205   4.044  0.0987  0.9096  0.2556
 9942TIP3    H154021   0.344   1.283   3.992 -0.6702  0.3527 -0.8847
 9942TIP3    H254022   0.247   1.167   4.005 -0.1675  0.1382  1.4601
 9943TIP3   OH254023   0.403   6.361   3.277  0.0304 -0.1184  0.2315
 9943TIP3    H154024   0.413   6.292   3.212 -0.7864  0.5912 -0.6718
 9943TIP3    H254025   0.492   6.384   3.302  0.3297 -0.9229 -0.0641
 9944TIP3   OH254026   0.557   4.514   3.366 -0.2769 -0.0546  0.0641
 9944TIP3    H154027   0.611   4.589   3.392  0.4765 -0.7539  0.5530
 9944TIP3    H254028   0.619   4.450   3.331 -1.0433  0.0393 -1.6085
 9945TIP3   OH254029   2.028   6.291   2.622  0.1424 -0.3814 -0.4145
 9945TIP3    H154030   2.053   6.317   2.534 -1.3278  0.5701 -0.5771
 9945TIP3    H254031   2.090   6.336   2.679 -0.6040  1.2718 -0.8424
 9946TIP3   OH254032   4.657   1.471   3.517 -0.0943 -0.3785  0.8043
 9946TIP3    H154033   4.580   1.527   3.526 -0.1500 -0.3195  0.0309
 9946TIP3    H254034   4.624   1.392   3.474  0.5284  0.2837 -0.9968
 9947TIP3   OH254035   0.960   4.754   4.678  0.3405  0.4979 -0.2377
 9947TIP3    H154036   1.026   4.687   4.665 -0.1252  0.2162 -1.2304
 9947TIP3    H254037   1.003   4.836   4.653 -0.1693  0.1138 -2.5407
 9948TIP3   OH254038   2.963   0.014   3.198  0.6071 -0.1962 -1.0853
 9948TIP3    H154039   3.037   0.073   3.187  0.5920 -0.4051 -2.5135
 9948TIP3    H254040   2.952  -0.027   3.112 -0.7174 -0.6923 -0.7052
 9949TIP3   OH254041   3.912   5.177   4.421 -0.9567 -0.0399  0.5493
 9949TIP3    H154042   3.838   5.166   4.361 -0.1184  1.5230 -0.8402
 9949TIP3    H254043   3.965   5.099   4.409  0.0390  0.9403 -2.0433
 9950TIP3   OH254044   4.299   3.168   3.764 -0.1750  0.2633  0.0342
 9950TIP3    H154045   4.395   3.164   3.768 -0.2010  0.7082  1.2437
 9950TIP3    H254046   4.279   3.154   3.671  1.0472 -0.0487 -0.2008
 9951TIP3   OH254047   4.596   0.486   3.754  0.0546  0.1458 -0.0173
 9951TIP3    H154048   4.615   0.517   3.665 -1.1890 -1.8877 -1.0819
 9951TIP3    H254049   4.505   0.513   3.769 -0.3731 -1.1634 -0.1669
 9952TIP3   OH254050   3.158   2.965   2.079 -0.3972 -0.5633  0.3512
 9952TIP3    H154051   3.075   2.935   2.043 -1.2281  2.2861 -0.3970
 9952TIP3    H254052   3.137   2.994   2.168  0.0022 -0.7258  0.5008
 9953TIP3   OH254053   6.096   3.272   4.128 -0.3773  0.0699  0.0437
 9953TIP3    H154054   6.069   3.287   4.219 -1.5580  0.4110 -0.3561
 9953TIP3    H254055   6.018   3.288   4.076  0.6059  1.1973 -1.1601
 9954TIP3   OH254056   1.552   3.964   3.146 -0.5063  0.2720 -0.2135
 9954TIP3    H154057   1.632   4.005   3.177  0.2607 -0.8995 -0.5840
 9954TIP3    H254058   1.569   3.870   3.152 -1.5710  0.0072 -0.9948
 9955TIP3   OH254059   0.401   4.876   2.569 -0.1998  0.7074  0.4853
 9955TIP3    H154060   0.360   4.800   2.610 -1.5814  2.2410  2.1126
 9955TIP3    H254061   0.347   4.894   2.492  1.1951 -0.9563 -0.9666
 9956TIP3   OH254062   2.930   0.435   5.437  0.0364 -0.0556  0.0146
 9956TIP3    H154063   2.907   0.413   5.347  2.0945  1.2985 -0.9009
 9956TIP3    H254064   2.916   0.354   5.486  2.1874 -1.9020 -2.1860
 9957TIP3   OH254065   3.607   6.676   3.576  0.2052  0.1400  0.7474
 9957TIP3    H154066   3.537   6.610   3.573 -0.5460  0.8935 -2.2412
 9957TIP3    H254067   3.561   6.760   3.578  1.0329  0.6250  0.2319
 9958TIP3   OH254068   1.246   1.983   4.315  0.4048 -0.2985  0.1269
 9958TIP3    H154069   1.290   2.041   4.377  0.3876 -0.8154  0.6341
 9958TIP3    H254070   1.231   1.903   4.365 -2.5665  0.3942  0.5396
 9959TIP3   OH254071   4.009   2.190   5.149  0.7706 -0.2246  0.2823
 9959TIP3    H154072   3.956   2.266   5.172 -0.5689 -0.5445 -1.4848
 9959TIP3    H254073   4.008   2.135   5.227 -2.0845 -0.4870  0.1920
 9960TIP3   OH254074   4.499   1.685   4.006 -0.6822  0.2597 -0.3333
 9960TIP3    H154075   4.474   1.777   4.006  2.2344  1.1594  0.2462
 9960TIP3    H254076   4.463   1.651   4.088  0.2582  1.5651  0.6649
 9961TIP3   OH254077   0.686   3.497   4.508 -0.1517  0.0199 -0.1883
 9961TIP3    H154078   0.665   3.454   4.425  0.0438 -0.5867  0.0743
 9961TIP3    H254079   0.771   3.461   4.533 -0.8690 -0.9130  1.0055
 9962TIP3   OH254080   0.880   4.393   5.168  0.4153 -0.3170  0.2680
 9962TIP3    H154081   0.808   4.353   5.119 -0.2106  0.5127  0.4930
 9962TIP3    H254082   0.840   4.467   5.213  1.2145 -0.4198  1.1695
 9963TIP3   OH254083   2.576   4.631   2.984  0.6354  0.0954  0.2945
 9963TIP3    H154084   2.641   4.576   3.029  1.3622  0.0087 -0.8148
 9963TIP3    H254085   2.624   4.710   2.960  0.8764 -0.6821 -2.0757
 9964TIP3   OH254086   4.895   6.534   4.244  0.4358 -0.1267  0.1481
 9964TIP3    H154087   4.865   6.523   4.335 -0.9458 -0.7460 -0.3560
 9964TIP3    H254088   4.977   6.484   4.240  0.9199  0.5439  1.2453
 9965TIP3   OH254089   6.712   4.345   2.721 -0.1968  1.3185  0.1572
 9965TIP3    H154090   6.642   4.283   2.702  0.0014  1.6848 -2.0362
 9965TIP3    H254091   6.714   4.351   2.817 -1.6288 -0.4091  0.3403
 9966TIP3   OH254092   3.466   1.139   4.502 -0.2078 -0.0281  0.3789
 9966TIP3    H154093   3.436   1.134   4.411 -1.0541 -0.3312  0.6735
 9966TIP3    H254094   3.399   1.190   4.547  0.2608  0.2115  0.8240
 9967TIP3   OH254095   2.728   5.643   1.982 -0.0869 -0.8780  0.0958
 9967TIP3    H154096   2.669   5.594   2.040 -0.5479  0.0120  0.3952
 9967TIP3    H254097   2.765   5.576   1.924 -1.6368 -1.4260 -0.3121
 9968TIP3   OH254098   2.038   0.808   2.282  0.2755 -0.9359  0.3272
 9968TIP3    H154099   2.009   0.851   2.362  1.0006 -1.4360  0.8632
 9968TIP3    H254100   2.116   0.760   2.307  1.6469  0.4225 -1.0830
 9969TIP3   OH254101   4.865   6.305   2.910  0.2642  0.6288 -0.0424
 9969TIP3    H154102   4.792   6.316   2.849  1.1601 -0.2354 -1.3112
 9969TIP3    H254103   4.869   6.211   2.926  1.3585  0.6121 -0.3329
 9970TIP3   OH254104   6.183   2.183   4.508 -0.4004 -0.4171 -0.4906
 9970TIP3    H154105   6.102   2.183   4.456 -0.4611 -0.4585 -0.3964
 9970TIP3    H254106   6.156   2.150   4.594 -0.5500  0.7698 -0.0500
 9971TIP3   OH254107   2.011   4.390   3.593  0.0685 -0.0211  0.7150
 9971TIP3    H154108   2.036   4.444   3.668  1.7446 -0.8755  0.8286
 9971TIP3    H254109   2.019   4.448   3.518 -1.5069  0.8092  1.1393
 9972TIP3   OH254110   4.067   4.795   2.119  0.2980 -0.2399 -0.0538
 9972TIP3    H154111   4.081   4.817   2.211  1.2235  0.0066 -0.2443
 9972TIP3    H254112   4.132   4.727   2.101 -0.5080 -0.9626 -0.2809
 9973TIP3   OH254113   3.349   0.151   3.439  0.5687 -0.4123 -0.2933
 9973TIP3    H154114   3.400   0.092   3.495  0.2980  0.3152  0.7356
 9973TIP3    H254115   3.259   0.142   3.469  0.5800  0.8397  0.1722
 9974TIP3   OH254116   1.035   1.257   3.527  0.6324  0.2457  0.1428
 9974TIP3    H154117   1.102   1.211   3.475  0.2209 -1.6932  1.2408
 9974TIP3    H254118   0.958   1.202   3.521 -1.1651  2.7327 -1.5735
 9975TIP3   OH254119   4.266   5.445   4.906 -0.4458  0.6642  0.0866
 9975TIP3    H154120   4.246   5.501   4.981 -0.9064  1.3692 -0.5509
 9975TIP3    H254121   4.320   5.375   4.942 -0.1170  1.3517  0.9572
 9976TIP3   OH254122   0.072   6.558   4.457  0.2455 -0.1840  0.3920
 9976TIP3    H154123   0.007   6.599   4.513 -1.3213 -0.4556 -1.1416
 9976TIP3    H254124   0.091   6.474   4.498  0.1597  0.1915  1.2125
 9977TIP3   OH254125   5.576   4.472   2.046  0.4671 -0.7567  0.3245
 9977TIP3    H154126   5.666   4.495   2.069  0.8310 -2.6573  1.0470
 9977TIP3    H254127   5.524   4.546   2.078  1.8652  1.3084 -1.8420
 9978TIP3   OH254128   3.458   4.342   5.054 -0.0842  0.5743 -0.1569
 9978TIP3    H154129   3.421   4.369   5.138 -1.7969  1.8289 -1.2419
 9978TIP3    H254130   3.532   4.286   5.077 -2.0537 -1.2924  2.1906
 9979TIP3   OH254131   2.385   0.669   2.952  0.1415  0.2542 -0.0718
 9979TIP3    H154132   2.316   0.638   3.011  0.1135  0.7416  0.1530
 9979TIP3    H254133   2.461   0.614   2.973 -0.0877 -0.0806 -0.1107
 9980TIP3   OH254134   3.279   5.500   3.991  0.4224  0.0853 -0.2396
 9980TIP3    H154135   3.276   5.419   3.940 -0.3998  0.1185 -0.2471
 9980TIP3    H254136   3.210   5.491   4.056  2.1442 -0.4173  1.6223
 9981TIP3   OH254137   5.799   2.313   3.971  0.6394  0.2109 -0.0813
 9981TIP3    H154138   5.845   2.235   3.941  1.0366 -0.2385  1.5651
 9981TIP3    H254139   5.866   2.365   4.015 -0.2403 -0.1975  1.8704
 9982TIP3   OH254140   1.263   0.155   4.435  0.2815 -0.0115  0.0016
 9982TIP3    H154141   1.197   0.141   4.503 -0.6997 -1.1742 -1.1315
 9982TIP3    H254142   1.346   0.129   4.475  0.4117  3.0064  1.9933
 9983TIP3   OH254143   0.006   2.384   1.903 -0.1397  0.1046  0.2963
 9983TIP3    H154144   0.044   2.470   1.885  0.1450  0.1648  1.1518
 9983TIP3    H254145  -0.035   2.393   1.989 -1.6848 -0.1065 -0.3798
 9984TIP3   OH254146   5.413   4.655   5.334  0.0413  0.6250  0.4021
 9984TIP3    H154147   5.398   4.726   5.272  0.1103  0.4970  0.2368
 9984TIP3    H254148   5.329   4.643   5.378  0.4324  1.8723  1.5686
 9985TIP3   OH254149   4.353   5.860   2.194  0.4993 -0.4200 -0.1538
 9985TIP3    H154150   4.415   5.852   2.267 -0.1037  1.4614  0.6217
 9985TIP3    H254151   4.405   5.897   2.123  0.5937 -0.1395  0.0559
 9986TIP3   OH254152   6.416   2.059   3.305 -0.3052 -0.0111 -0.6660
 9986TIP3    H154153   6.460   2.144   3.304 -0.3157 -0.0108 -1.3671
 9986TIP3    H254154   6.484   1.997   3.332 -0.4230  0.2813  0.3379
 9987TIP3   OH254155   0.994   5.852   2.790  0.5772  0.4708 -0.2324
 9987TIP3    H154156   1.089   5.850   2.776  1.0372  1.7479  2.2155
 9987TIP3    H254157   0.979   5.934   2.836 -1.5608 -0.2849  0.5176
 9988TIP3   OH254158   4.046   1.404   2.156  0.2394  0.3244 -0.2652
 9988TIP3    H154159   4.132   1.408   2.114 -0.3119  0.0987 -1.4578
 9988TIP3    H254160   4.038   1.487   2.203  0.6309  0.8548 -1.1195
 9989TIP3   OH254161   3.100   0.275   2.344  0.4480  0.0318 -0.0264
 9989TIP3    H154162   3.072   0.277   2.436  1.4047  1.1500  0.2615
 9989TIP3    H254163   3.165   0.205   2.340  0.0691 -0.3291  0.0393
 9990TIP3   OH254164   5.657   6.738   2.770 -0.5843 -0.2628 -0.1576
 9990TIP3    H154165   5.603   6.731   2.692  0.3917 -1.1673 -0.7842
 9990TIP3    H254166   5.660   6.650   2.806  0.9643 -0.3919 -0.5142
 9991TIP3   OH254167   6.573   5.686   2.183  0.0378  0.1439  0.3254
 9991TIP3    H154168   6.585   5.698   2.277 -3.3105  1.9444  0.6722
 9991TIP3    H254169   6.602   5.768   2.145 -0.8028  0.3258  0.0618
 9992TIP3   OH254170   3.599   5.831   2.110  0.1391 -0.5585 -0.3596
 9992TIP3    H154171   3.547   5.768   2.160  0.9091 -1.9132 -1.1741
 9992TIP3    H254172   3.614   5.904   2.170  0.5372 -1.8586  1.1943
 9993TIP3   OH254173   6.432   0.812   3.933 -0.2162 -0.3092 -0.8121
 9993TIP3    H154174   6.374   0.736   3.932  1.0721 -1.3617 -2.3229
 9993TIP3    H254175   6.508   0.784   3.985 -1.4930  1.5062  2.2840
 9994TIP3   OH254176   6.797   4.495   3.389  0.1374 -0.3831  0.3952
 9994TIP3    H154177   6.778   4.429   3.323  0.1046 -0.4294  0.4515
 9994TIP3    H254178   6.845   4.448   3.457  0.2665 -0.3117  0.3529
 9995TIP3   OH254179   2.815   1.981   3.398  0.4970 -0.1644  0.0949
 9995TIP3    H154180   2.824   2.065   3.443 -0.0686 -0.7681  1.3949
 9995TIP3    H254181   2.745   1.995   3.335 -0.2853  0.0787  0.9949
 9996TIP3   OH254182   5.751   5.422   3.781 -0.0925  0.1029 -0.1130
 9996TIP3    H154183   5.707   5.466   3.709  0.3497 -0.9542 -1.0776
 9996TIP3    H254184   5.688   5.356   3.811  0.6203 -1.1751 -1.2645
 9997TIP3   OH254185   6.534   4.168   3.078 -0.0466  0.1164 -0.0487
 9997TIP3    H154186   6.522   4.125   3.162  0.6473  1.2630  0.6609
 9997TIP3    H254187   6.617   4.135   3.045  0.4904  0.8831  0.5008
 9998TIP3   OH254188   1.726   2.619   5.052 -0.5861 -0.0683 -0.2134
 9998TIP3    H154189   1.806   2.582   5.014  0.5108  1.7055  0.2164
 9998TIP3    H254190   1.737   2.714   5.041 -1.5716  0.3355  1.8848
 9999TIP3   OH254191   5.138   4.725   4.903  0.0453 -0.0798  0.2603
 9999TIP3    H154192   5.146   4.734   4.998  0.4587 -3.2092  0.6527
 9999TIP3    H254193   5.048   4.696   4.889  0.2563 -0.5555 -0.1706
10000TIP3   OH254194   6.373   5.060   4.994  0.3409  0.4511 -0.1192
10000TIP3    H154195   6.290   5.089   5.034 -0.7913 -0.5345 -1.6276
10000TIP3    H254196   6.383   4.970   5.024  0.0077  0.0395 -1.1994
10001TIP3   OH254197   2.512   0.661   2.012 -0.2929  0.0694 -0.1589
10001TIP3    H154198   2.594   0.637   2.056 -0.9331  1.0114  1.6515
10001TIP3    H254199   2.465   0.578   2.001  0.4620 -0.3498 -0.2974
10002TIP3   OH254200   6.044   1.243   3.591  0.3099  0.7963  0.3259
10002TIP3    H154201   6.140   1.238   3.586  0.4655  2.1629  1.5104
10002TIP3    H254202   6.024   1.228   3.683 -0.8738 -2.3280 -0.3200
10003TIP3   OH254203   4.904   5.559   2.729 -0.0591 -0.2860 -0.3287
10003TIP3    H154204   4.985   5.592   2.688  0.5594 -1.9457 -0.5326
10003TIP3    H254205   4.840   5.560   2.658  0.3893 -0.9738 -0.7655
10004TIP3   OH254206   6.042   0.156   3.349  0.0356  0.7725  0.5113
10004TIP3    H154207   6.106   0.095   3.312 -1.5836 -1.2869  0.8663
10004TIP3    H254208   6.083   0.189   3.428  0.4446 -1.0684  1.1247
10005TIP3   OH254209   4.255   6.601   4.339 -0.0141 -0.7952  0.4867
10005TIP3    H154210   4.250   6.649   4.422  0.7225  0.4437 -0.1533
10005TIP3    H254211   4.234   6.511   4.363  1.5311 -0.7609  2.2970
10006TIP3   OH254212   0.621   5.778   4.449  0.2519  0.0779 -0.3368
10006TIP3    H154213   0.586   5.696   4.414 -0.0774  0.1798 -0.2513
10006TIP3    H254214   0.643   5.758   4.540  0.4131  0.0151 -0.3899
10007TIP3   OH254215   2.452   5.121   4.466 -0.1979 -0.4905  0.5401
10007TIP3    H154216   2.424   5.188   4.404  0.3093 -0.3833  0.4277
10007TIP3    H254217   2.401   5.043   4.440 -1.0605 -0.0629  0.9037
10008TIP3   OH254218   3.604   3.398   4.137 -0.0391  0.1071  0.6949
10008TIP3    H154219   3.538   3.344   4.094  0.0716  0.5002  0.0285
10008TIP3    H254220   3.687   3.361   4.109  0.0344  0.4752  0.4208
10009TIP3   OH254221   2.285   4.893   3.931 -0.1952  0.0567  0.3780
10009TIP3    H154222   2.241   4.947   3.864 -1.5095 -0.7441  0.5603
10009TIP3    H254223   2.223   4.822   3.949  1.1661 -1.0819  0.7237
10010TIP3   OH254224   5.030   3.981   4.403  0.6225  0.0228 -0.0479
10010TIP3    H154225   5.046   3.944   4.316  1.7293 -0.5906  0.3886
10010TIP3    H254226   5.090   3.933   4.460  0.2894  0.7823  0.9658
10011TIP3   OH254227   3.138   3.999   3.299 -0.5546 -0.2699  0.2079
10011TIP3    H154228   3.185   3.935   3.351  0.7154  0.5159  0.0818
10011TIP3    H254229   3.198   4.074   3.293 -2.1974  1.1542  0.8059
10012TIP3   OH254230   1.737   3.797   2.433  0.3477 -0.0058 -0.2184
10012TIP3    H154231   1.762   3.846   2.511 -0.2671 -1.1025  0.7076
10012TIP3    H254232   1.779   3.843   2.361 -1.0874  2.5071  0.4578
10013TIP3   OH254233   2.497   3.835   4.726 -0.0116  0.0508 -0.2406
10013TIP3    H154234   2.478   3.848   4.633 -0.9431 -1.9077 -0.3719
10013TIP3    H254235   2.590   3.811   4.727 -0.3237 -1.2884 -0.8513
10014TIP3   OH254236   5.560   3.436   2.036 -0.5633 -0.2400 -0.4877
10014TIP3    H154237   5.600   3.416   1.951  2.1802 -0.5771  0.7578
10014TIP3    H254238   5.583   3.528   2.052 -0.3883 -0.3997  0.2125
10015TIP3   OH254239   1.528   6.062   3.826 -0.0314 -0.2566  0.7963
10015TIP3    H154240   1.539   6.091   3.736 -1.1395 -0.9257  0.4348
10015TIP3    H254241   1.618   6.048   3.858  0.4415  1.2913  0.2545
10016TIP3   OH254242   1.868   4.638   2.331  0.5157  0.5667 -0.2890
10016TIP3    H154243   1.871   4.543   2.331  0.6793  0.5448 -1.8920
10016TIP3    H254244   1.794   4.659   2.388 -0.2904 -0.5730 -0.8690
10017TIP3   OH254245   1.386   2.819   4.758  0.0230  0.2870  0.1033
10017TIP3    H154246   1.373   2.821   4.663  0.6714 -1.0719 -0.0340
10017TIP3    H254247   1.313   2.765   4.791  0.7363 -0.6392  0.1885
10018TIP3   OH254248   5.577   4.612   3.109 -0.1501  0.4959  0.2321
10018TIP3    H154249   5.490   4.577   3.092  0.0272  0.1726 -0.0255
10018TIP3    H254250   5.563   4.705   3.125 -0.6069  0.3352  0.7707
10019TIP3   OH254251   5.806   6.361   4.734  0.7757 -0.2702 -0.1354
10019TIP3    H154252   5.820   6.314   4.816  0.0103  0.0254  0.1779
10019TIP3    H254253   5.834   6.450   4.753 -1.0349  0.2383  0.3854
10020TIP3   OH254254   1.373   2.239   2.735 -0.1879  0.6182  0.3056
10020TIP3    H154255   1.399   2.193   2.655 -1.1864 -1.2247  0.9729
10020TIP3    H254256   1.308   2.302   2.707  2.3554  2.9405 -0.8775
10021TIP3   OH254257   6.275   6.667   2.919 -0.3452 -0.7864 -0.5060
10021TIP3    H154258   6.253   6.690   2.828  0.5293  1.7409 -0.1596
10021TIP3    H254259   6.190   6.663   2.963 -0.6732  3.2056 -0.3979
10022TIP3   OH254260   3.916   2.619   3.674 -0.4427  0.1774 -0.1211
10022TIP3    H154261   3.856   2.692   3.690  1.1972  1.2711  1.4911
10022TIP3    H254262   4.000   2.662   3.654  0.5977 -1.2394  1.0246
10023TIP3   OH254263   1.252   0.016   2.380 -0.1872  0.0673  0.0430
10023TIP3    H154264   1.207  -0.030   2.451  0.7497 -0.6459  0.1849
10023TIP3    H254265   1.196   0.002   2.303  1.0582 -3.1021 -0.4107
10024TIP3   OH254266   2.126   0.779   2.706 -0.7807  0.2399  0.1519
10024TIP3    H154267   2.183   0.709   2.738 -1.5959 -0.9133 -0.8278
10024TIP3    H254268   2.052   0.781   2.767  0.0085  1.3879  1.1228
10025TIP3   OH254269   1.917   4.954   4.718 -0.2088  0.1713 -0.3644
10025TIP3    H154270   1.977   4.998   4.658 -1.4070  0.3582 -1.4794
10025TIP3    H254271   1.958   4.869   4.735  0.2595  0.1885 -1.3243
10026TIP3   OH254272   3.318   3.951   2.102 -0.2777 -0.1347 -0.2825
10026TIP3    H154273   3.383   4.013   2.070  2.7166 -2.3280  1.0549
10026TIP3    H254274   3.253   3.947   2.032  1.4763  1.5300 -2.1593
10027TIP3   OH254275   5.564   3.422   1.759  0.0661  0.0693 -0.5016
10027TIP3    H154276   5.599   3.510   1.745 -0.6860  0.3336 -0.7560
10027TIP3    H254277   5.549   3.388   1.671  1.1556 -0.6511 -0.4249
10028TIP3   OH254278   4.206   2.556   1.925  0.3236  0.5370  0.2224
10028TIP3    H154279   4.189   2.610   1.848 -0.3539  1.4229  0.9736
10028TIP3    H254280   4.214   2.467   1.891  1.5708  1.0980 -1.0621
10029TIP3   OH254281   0.380   6.125   3.672  0.2743 -0.0291  0.2647
10029TIP3    H154282   0.346   6.180   3.601 -0.2707 -1.4418 -0.6157
10029TIP3    H254283   0.470   6.106   3.646 -0.3289 -1.6393 -0.7811
10030TIP3   OH254284   0.376   4.279   4.555  0.0823  0.3619  0.0248
10030TIP3    H154285   0.387   4.223   4.632  0.2305  0.7567  0.2973
10030TIP3    H254286   0.377   4.368   4.591  0.7981  0.5729 -0.5093
10031TIP3   OH254287   1.466   5.073   2.323  0.2345 -0.3586  0.0479
10031TIP3    H154288   1.462   5.162   2.358 -0.3312 -0.7218  0.9406
10031TIP3    H254289   1.381   5.035   2.344  0.6673 -1.2898  0.1765
10032TIP3   OH254290   0.710   3.818   2.912 -0.0836 -0.4962  0.4632
10032TIP3    H154291   0.655   3.753   2.867 -1.0983  0.9979 -0.5586
10032TIP3    H254292   0.777   3.841   2.847 -0.8551  0.8110  0.0861
10033TIP3   OH254293   2.346   6.230   2.522 -0.8120  0.1486  0.2668
10033TIP3    H154294   2.377   6.290   2.590 -0.1999  0.1188  0.0277
10033TIP3    H254295   2.316   6.287   2.452  0.0128  0.1813 -0.0658
10034TIP3   OH254296   4.798   1.688   2.518  0.5862  0.0910 -0.3983
10034TIP3    H154297   4.730   1.650   2.463  1.8100 -1.6562 -0.8161
10034TIP3    H254298   4.754   1.711   2.600 -0.9772  1.4200 -1.5639
10035TIP3   OH254299   1.045   3.260   5.227 -0.2382  0.6871  0.1625
10035TIP3    H154300   1.113   3.328   5.223  0.0300  0.4754  0.9335
10035TIP3    H254301   1.004   3.273   5.312  0.7701 -1.0070  0.9660
10036TIP3   OH254302   2.801   1.813   3.962  0.1926  0.2349 -0.1736
10036TIP3    H154303   2.784   1.855   4.047  0.9733 -0.1519  0.1812
10036TIP3    H254304   2.879   1.858   3.928  1.3691 -1.2373  0.4538
10037TIP3   OH254305   3.060   3.513   5.091 -0.1550 -0.2527 -0.1466
10037TIP3    H154306   3.121   3.587   5.093 -0.1805 -0.1970 -1.1322
10037TIP3    H254307   3.104   3.445   5.142  0.5146 -0.0404 -0.4233
10038TIP3   OH254308   3.840   5.934   5.328  0.7454 -0.1858 -0.1075
10038TIP3    H154309   3.872   5.930   5.418  1.9523  1.6549 -0.4095
10038TIP3    H254310   3.777   6.005   5.328  0.0536 -0.7807 -0.5484
10039TIP3   OH254311   6.712   3.008   2.952  0.0984 -0.1912 -0.4717
10039TIP3    H154312   6.777   3.077   2.960  0.0011 -0.3464  3.5131
10039TIP3    H254313   6.628   3.054   2.949  0.1607 -0.1128 -1.5421
10040TIP3   OH254314   3.915   1.132   3.425 -0.0110  0.0907 -0.6823
10040TIP3    H154315   3.973   1.131   3.349  0.1898 -1.3482 -0.5275
10040TIP3    H254316   3.827   1.132   3.389  0.0822  0.0874 -0.9110
10041TIP3   OH254317   6.308   3.162   2.932 -0.1775  0.1055 -0.5544
10041TIP3    H154318   6.361   3.096   2.888 -1.2070 -0.3504 -1.1368
10041TIP3    H254319   6.365   3.195   3.002 -0.0427 -2.2897  0.5701
10042TIP3   OH254320   5.311   5.607   2.066 -0.1337  0.1287 -0.1654
10042TIP3    H154321   5.219   5.587   2.082 -1.1030  1.4499 -3.2418
10042TIP3    H254322   5.320   5.700   2.088  0.8621 -0.2822  1.3414
10043TIP3   OH254323   4.648   5.238   4.432 -0.2272 -0.3088 -0.2233
10043TIP3    H154324   4.620   5.149   4.454 -2.4386  0.2057 -0.6724
10043TIP3    H254325   4.741   5.231   4.413 -0.2086 -2.3846  0.4627
10044TIP3   OH254326   6.106   0.839   4.996 -0.3986 -0.4265 -0.2491
10044TIP3    H154327   6.061   0.775   5.053 -1.3868  1.2814  0.9700
10044TIP3    H254328   6.115   0.793   4.913 -1.0996 -2.1584  0.5540
10045TIP3   OH254329   2.584   6.837   4.531  0.1673  0.4511  0.1687
10045TIP3    H154330   2.509   6.811   4.478  0.6750 -3.6863  1.0875
10045TIP3    H254331   2.652   6.860   4.468 -0.5814  0.0576 -0.8098
10046TIP3   OH254332   6.687   0.670   2.362  0.0024 -0.0980 -0.1438
10046TIP3    H154333   6.750   0.648   2.293  0.5487 -1.1031  0.6537
10046TIP3    H254334   6.605   0.631   2.333  0.1769 -0.3317 -0.3258
10047TIP3   OH254335   0.625   4.557   2.380 -0.3579  0.2675 -0.1943
10047TIP3    H154336   0.608   4.649   2.358 -2.2599 -0.2770 -1.2093
10047TIP3    H254337   0.543   4.525   2.417  0.6149 -0.7661  1.1946
10048TIP3   OH254338   2.500   4.973   4.076  0.5426 -0.0843  0.0524
10048TIP3    H154339   2.528   4.883   4.088 -1.8674 -0.7478  1.2772
10048TIP3    H254340   2.411   4.967   4.042  1.0809  1.8817 -1.9575
10049TIP3   OH254341   3.834   0.426   3.064  1.0686 -0.1266  0.2656
10049TIP3    H154342   3.788   0.345   3.044 -0.1390  0.4712  0.5704
10049TIP3    H254343   3.829   0.477   2.983  0.6607  0.1910  0.4914
10050TIP3   OH254344   4.304   3.343   4.502  0.9081 -0.2559  0.0764
10050TIP3    H154345   4.399   3.345   4.488  0.9477  0.8746  0.4410
10050TIP3    H254346   4.295   3.321   4.595  0.8355  0.3592  0.2175
10051TIP3   OH254347   2.851   3.409   4.629  0.0986  0.4455  0.4751
10051TIP3    H154348   2.901   3.338   4.587  0.5008  1.5640 -1.0355
10051TIP3    H254349   2.861   3.393   4.723  1.6090 -0.5413  0.1885
10052TIP3   OH254350   6.338   5.017   2.493  0.5308 -0.2088  0.2636
10052TIP3    H154351   6.427   5.044   2.469  0.0215  0.1238 -1.3982
10052TIP3    H254352   6.342   5.004   2.588  1.7986  1.9919  0.5896
10053TIP3   OH254353   4.602   2.621   4.003 -0.2393 -0.1611 -0.0256
10053TIP3    H154354   4.652   2.558   4.056 -0.2294 -0.6672 -0.6304
10053TIP3    H254355   4.600   2.700   4.056  0.5618 -0.3761  0.3324
10054TIP3   OH254356   5.688   3.560   2.925  0.8134  0.1331 -0.2320
10054TIP3    H154357   5.618   3.577   2.987  2.3837  2.3747  1.0723
10054TIP3    H254358   5.644   3.524   2.848 -1.5546  0.1306  1.0423
10055TIP3   OH254359   3.935   5.585   4.393 -0.0069 -0.0187  0.1071
10055TIP3    H154360   3.968   5.509   4.345 -1.1765 -1.3784  1.3760
10055TIP3    H254361   3.889   5.636   4.327  1.8734  0.3048 -1.0331
10056TIP3   OH254362   0.918   0.282   2.006 -0.0825 -0.2077  0.2236
10056TIP3    H154363   0.975   0.209   1.981 -0.2455 -0.4930  0.6808
10056TIP3    H254364   0.977   0.345   2.048 -0.4317 -1.5149  2.8309
10057TIP3   OH254365   0.317   3.969   4.116  0.6153  0.0717  0.5273
10057TIP3    H154366   0.346   4.012   4.196  0.2462  1.8270 -0.2187
10057TIP3    H254367   0.270   3.892   4.145  3.5556 -1.3655  1.8596
10058TIP3   OH254368   1.014   6.131   5.275  0.2787  0.1437 -0.1083
10058TIP3    H154369   0.992   6.077   5.199 -0.3090  0.1645  0.0425
10058TIP3    H254370   0.982   6.082   5.350 -0.4810  0.8048  0.0141
10059TIP3   OH254371   3.470   4.322   4.504  0.6231  0.2731  0.2159
10059TIP3    H154372   3.457   4.390   4.571 -1.7714  2.4708 -2.2378
10059TIP3    H254373   3.560   4.335   4.475  1.1403  0.4312  1.7671
10060TIP3   OH254374   0.543   0.449   3.632 -0.3392  0.4290  0.1186
10060TIP3    H154375   0.466   0.437   3.577  0.5218 -0.8268 -0.8875
10060TIP3    H254376   0.539   0.541   3.659 -1.1710  0.9068 -1.4902
10061TIP3   OH254377   3.638   0.073   4.760  0.2935 -0.3678 -0.2611
10061TIP3    H154378   3.690   0.150   4.737 -0.7691  0.6998  0.7837
10061TIP3    H254379   3.639   0.019   4.681  1.8627  0.2328 -0.7008
10062TIP3   OH254380   2.629   5.936   4.125 -0.1642 -0.0596  0.2235
10062TIP3    H154381   2.708   5.969   4.082 -0.2363  0.1248  0.2367
10062TIP3    H254382   2.562   5.938   4.056 -0.4250  0.7717  0.4988
10063TIP3   OH254383   5.235   4.025   2.451 -0.1948 -0.0317 -0.4435
10063TIP3    H154384   5.200   4.048   2.537  0.8870  0.5156 -0.1416
10063TIP3    H254385   5.330   4.022   2.463  0.0010  0.4051 -1.7000
10064TIP3   OH254386   1.351   1.899   4.047  0.4029  0.6713 -0.2553
10064TIP3    H154387   1.303   1.935   4.122  0.7167  0.7836 -0.1052
10064TIP3    H254388   1.373   1.975   3.994  1.4146  0.7527  0.2670
10065TIP3   OH254389   0.398   1.066   4.903  0.0018  0.1630 -0.1422
10065TIP3    H154390   0.445   1.082   4.821 -1.0680  1.2096 -0.5829
10065TIP3    H254391   0.394   0.971   4.911  0.0660  0.0501 -1.3402
10066TIP3   OH254392   5.750   0.164   4.340 -0.2992  0.4797 -0.1975
10066TIP3    H154393   5.724   0.122   4.421 -0.3897  0.9851  0.0402
10066TIP3    H254394   5.670   0.170   4.288 -0.0314 -0.8560 -0.7982
10067TIP3   OH254395   6.445   6.675   2.443  0.4198  0.0232 -0.3165
10067TIP3    H154396   6.479   6.599   2.396  0.6460 -0.0016 -0.1154
10067TIP3    H254397   6.382   6.714   2.383  0.4432 -0.2140 -0.4969
10068TIP3   OH254398   2.690   2.774   5.022  0.3952 -0.2774  0.9286
10068TIP3    H154399   2.621   2.787   4.957  1.5105  2.1345  0.1079
10068TIP3    H254400   2.652   2.805   5.104  1.4262  4.5530 -0.1393
10069TIP3   OH254401   3.824   4.525   2.886  0.6083 -0.0726 -0.0939
10069TIP3    H154402   3.788   4.605   2.848 -0.3677 -0.8820 -0.9171
10069TIP3    H254403   3.750   4.465   2.892  1.5443 -1.3269 -0.5901
10070TIP3   OH254404   0.295   2.616   3.148 -0.7741 -0.5569 -0.1509
10070TIP3    H154405   0.314   2.685   3.086  1.6682  0.0606  1.1374
10070TIP3    H254406   0.229   2.562   3.106  1.8635 -1.1491 -4.0675
10071TIP3   OH254407   1.938   4.517   3.348 -0.5989  0.3090 -0.3914
10071TIP3    H154408   1.918   4.554   3.262 -1.3442  0.7539 -0.0360
10071TIP3    H254409   1.914   4.425   3.340 -2.4733  0.7285 -0.1193
10072TIP3   OH254410   5.530   4.737   3.782  0.2739  0.1001 -0.0256
10072TIP3    H154411   5.463   4.757   3.717 -0.0997 -1.2920 -0.1027
10072TIP3    H254412   5.480   4.709   3.859  0.7594 -0.0609  0.2317
10073TIP3   OH254413   0.658   5.450   2.650  0.3250  0.2449  0.1770
10073TIP3    H154414   0.740   5.483   2.686 -1.0081  3.0091  0.9024
10073TIP3    H254415   0.657   5.483   2.560 -0.4623  1.1672  0.5150
10074TIP3   OH254416   0.607   4.790   2.965  0.2081  0.3176 -0.4342
10074TIP3    H154417   0.687   4.790   2.913  1.0956  1.1805  0.8573
10074TIP3    H254418   0.594   4.882   2.989  1.1033 -0.2586  2.6854
10075TIP3   OH254419   3.131   2.649   4.602  0.1122  0.1097 -0.6144
10075TIP3    H154420   3.147   2.725   4.545 -0.7055 -0.0318 -1.0488
10075TIP3    H254421   3.202   2.589   4.581  0.4905  0.5519 -0.6232
10076TIP3   OH254422   6.365   1.332   3.269  0.2684  0.0342  0.1314
10076TIP3    H154423   6.289   1.376   3.309  0.3351 -0.7537  1.1831
10076TIP3    H254424   6.335   1.308   3.182  0.1538  1.9276 -0.4088
10077TIP3   OH254425   6.361   2.773   4.995  0.2046 -0.4908  0.0142
10077TIP3    H154426   6.422   2.791   4.923 -0.5076  0.3402 -0.4033
10077TIP3    H254427   6.409   2.797   5.074  0.5479 -0.1964 -0.2797
10078TIP3   OH254428   6.585   3.655   5.137  0.0050 -0.1927  0.0407
10078TIP3    H154429   6.639   3.715   5.189 -1.6484 -0.0526  1.6918
10078TIP3    H254430   6.626   3.569   5.150  0.1264 -0.0194  0.9071
10079TIP3   OH254431   6.502   2.470   2.837 -0.0792  0.3072 -0.1337
10079TIP3    H154432   6.538   2.557   2.854  3.2135 -0.6262 -1.4336
10079TIP3    H254433   6.447   2.481   2.760 -0.1122  1.3117  0.0186
10080TIP3   OH254434   1.743   0.425   3.416  0.0655 -0.0359  0.5340
10080TIP3    H154435   1.648   0.418   3.423  0.1052 -0.0098  1.1316
10080TIP3    H254436   1.770   0.472   3.495  0.6070 -0.3129  0.5180
10081TIP3   OH254437   1.675   0.211   4.369 -0.9125 -0.3661  0.6043
10081TIP3    H154438   1.618   0.145   4.407 -3.0447  1.2606  0.4416
10081TIP3    H254439   1.686   0.184   4.278 -1.0883 -0.8961  0.7358
10082TIP3   OH254440   2.309   1.425   3.246 -0.0114  0.3344  0.0318
10082TIP3    H154441   2.314   1.502   3.190  1.1323 -0.0827 -0.4708
10082TIP3    H254442   2.323   1.351   3.187 -1.4031 -0.2986  0.4549
10083TIP3   OH254443   6.701   0.552   3.137 -0.3391 -0.7001 -0.1879
10083TIP3    H154444   6.633   0.513   3.192  0.6774 -0.9023  0.9592
10083TIP3    H254445   6.675   0.644   3.129 -1.9650 -1.2445 -1.7007
10084TIP3   OH254446   4.539   6.583   4.475  0.0027  0.6232 -0.9783
10084TIP3    H154447   4.631   6.603   4.459 -0.3636  0.7618 -3.2448
10084TIP3    H254448   4.493   6.622   4.401 -1.7303 -0.6398 -0.6254
10085TIP3   OH254449   6.507   2.229   4.672 -0.5698 -0.4034 -0.0099
10085TIP3    H154450   6.588   2.279   4.682 -0.7258 -0.0739 -0.3517
10085TIP3    H254451   6.536   2.143   4.642 -0.2936 -0.5496  0.6504
10086TIP3   OH254452   1.874   5.114   2.779  0.1710 -0.1546 -0.1856
10086TIP3    H154453   1.955   5.077   2.816 -0.2863 -1.3404 -0.3419
10086TIP3    H254454   1.820   5.132   2.856 -0.0692 -0.9386 -0.1600
10087TIP3   OH254455   3.945   3.259   3.046 -0.7081 -0.4536 -0.1272
10087TIP3    H154456   3.997   3.305   2.980  0.8468 -3.2357 -1.0015
10087TIP3    H254457   3.936   3.170   3.013 -1.7071 -1.4290  2.4397
10088TIP3   OH254458   5.400   6.235   4.208  0.0782 -0.3073 -0.0027
10088TIP3    H154459   5.466   6.168   4.226  0.4366  0.1070  0.2406
10088TIP3    H254460   5.449   6.308   4.170 -0.1007  0.3606  1.0202
10089TIP3   OH254461   2.274   3.457   4.153  0.5114  0.1241 -0.5136
10089TIP3    H154462   2.189   3.425   4.124 -0.5254  2.5577 -0.3987
10089TIP3    H254463   2.321   3.477   4.072  0.5810 -0.2692 -0.5709
10090TIP3   OH254464   4.951   6.130   4.074  0.4740 -0.2340  0.1980
10090TIP3    H154465   4.930   6.163   4.162  0.5622  1.0395 -0.2324
10090TIP3    H254466   5.046   6.122   4.074  0.8189  2.5541 -0.6333
10091TIP3   OH254467   4.865   2.190   5.170 -0.6749 -0.7207  0.2566
10091TIP3    H154468   4.960   2.190   5.182 -0.8692  1.1982  2.5682
10091TIP3    H254469   4.837   2.103   5.196  0.5272 -1.8613 -1.9879
10092TIP3   OH254470   0.373   3.206   2.520  0.0404 -0.5683 -0.1265
10092TIP3    H154471   0.310   3.167   2.580 -1.0490 -0.2361 -1.0165
10092TIP3    H254472   0.426   3.133   2.488 -0.9374 -1.0949 -0.5744
10093TIP3   OH254473   4.807   0.214   4.851 -0.2575  0.2809 -0.0598
10093TIP3    H154474   4.818   0.137   4.906  0.4873 -0.4902 -1.2495
10093TIP3    H254475   4.739   0.189   4.788  1.2050 -0.1118 -1.5706
10094TIP3   OH254476   1.827   5.888   3.294 -0.0045 -0.1359  0.4930
10094TIP3    H154477   1.774   5.876   3.215  0.3328  1.7651 -0.0664
10094TIP3    H254478   1.908   5.839   3.276  0.3365  0.7881 -0.6533
10095TIP3   OH254479   5.748   5.089   4.440 -0.1351  0.5927 -0.7474
10095TIP3    H154480   5.662   5.129   4.427 -0.1886  0.5575 -0.5117
10095TIP3    H254481   5.803   5.159   4.474 -0.0540  0.6288 -0.9487
10096TIP3   OH254482   3.233   1.911   4.024 -0.4842  0.1137 -0.0872
10096TIP3    H154483   3.201   1.910   3.934 -0.8915  0.7032  0.0391
10096TIP3    H254484   3.302   1.845   4.026 -0.7480 -0.1943 -0.7261
10097TIP3   OH254485   4.190   6.677   4.853 -0.2475  0.1394  0.5693
10097TIP3    H154486   4.164   6.590   4.823 -1.4763  0.6222  0.1635
10097TIP3    H254487   4.135   6.694   4.930  1.0895 -0.0572  1.5974
10098TIP3   OH254488   6.443   6.424   2.315 -0.2383  0.0153  0.2238
10098TIP3    H154489   6.357   6.388   2.335 -1.4485  1.1111 -2.5412
10098TIP3    H254490   6.496   6.348   2.291  0.2249 -0.8901  3.5995
10099TIP3   OH254491   1.449   5.372   5.662 -0.0633  0.2846 -0.3172
10099TIP3    H154492   1.479   5.460   5.637 -0.1881  0.7140  0.9678
10099TIP3    H254493   1.356   5.372   5.642  0.1554  0.0185 -1.4172
10100TIP3   OH254494   3.684   6.051   3.664 -0.0784  0.1590  0.0550
10100TIP3    H154495   3.709   6.077   3.753 -1.3996 -0.7981  0.7411
10100TIP3    H254496   3.603   6.099   3.646  0.3367  0.5790 -0.7779
10101TIP3   OH254497   0.525   6.102   3.930  0.4057 -0.1768  0.1196
10101TIP3    H154498   0.492   6.109   3.841  0.1917  1.9281  0.3065
10101TIP3    H254499   0.616   6.076   3.920  0.4885  0.3946 -0.7575
10102TIP3   OH254500   1.694   3.122   4.565  0.3679  0.9797  0.5163
10102TIP3    H154501   1.658   3.192   4.511 -0.2281  0.5255  0.3148
10102TIP3    H254502   1.779   3.155   4.593  0.4310  1.4604 -0.2198
10103TIP3   OH254503   2.362   0.219   3.032 -0.3497 -0.0478 -0.1796
10103TIP3    H154504   2.355   0.265   2.949  0.6005  2.2129  0.8869
10103TIP3    H254505   2.452   0.235   3.061 -0.3882 -1.5354  0.8647
10104TIP3   OH254506   3.304   4.197   3.228 -0.0840  0.2351  0.2033
10104TIP3    H154507   3.327   4.212   3.136 -1.9192 -0.9553 -0.5118
10104TIP3    H254508   3.380   4.227   3.277  1.7357 -0.8294 -1.7914
10105TIP3   OH254509   6.761   4.905   3.163 -0.1749  0.2950  0.3373
10105TIP3    H154510   6.755   4.811   3.178  0.9709  0.1255 -0.1548
10105TIP3    H254511   6.681   4.928   3.117 -0.1960 -0.5487 -0.0611
10106TIP3   OH254512   2.838   0.338   5.184 -0.2665  0.4121 -0.1788
10106TIP3    H154513   2.770   0.274   5.207  0.2026 -0.1000 -0.2115
10106TIP3    H254514   2.876   0.304   5.103  0.8264  0.0653  0.4611
10107TIP3   OH254515   3.466   6.055   4.925 -0.0497  0.3540  0.4955
10107TIP3    H154516   3.483   6.030   4.834 -0.2101 -3.3777  1.3122
10107TIP3    H254517   3.551   6.043   4.969 -0.2701  0.8877  1.0710
10108TIP3   OH254518   2.560   4.108   4.577 -0.4392  0.2612  0.1501
10108TIP3    H154519   2.638   4.081   4.528 -0.0226 -0.0038  0.9442
10108TIP3    H254520   2.493   4.046   4.549  0.3518 -1.2709  1.4932
10109TIP3   OH254521   2.266   6.226   1.952  0.2241  0.1088 -0.4119
10109TIP3    H154522   2.326   6.195   2.020  0.1453  0.2389 -0.2823
10109TIP3    H254523   2.209   6.152   1.933  1.4205 -0.5580 -1.6646
10110TIP3   OH254524   3.509   6.119   4.629 -0.5345  0.6284  0.1825
10110TIP3    H154525   3.591   6.090   4.589 -0.8999  1.7598 -1.4784
10110TIP3    H254526   3.458   6.038   4.637 -0.1210  0.2301 -0.8914
10111TIP3   OH254527   1.762   1.554   2.145  0.0785  0.0677 -0.2359
10111TIP3    H154528   1.672   1.539   2.173 -0.1330  0.1274 -0.8747
10111TIP3    H254529   1.813   1.548   2.226 -0.6303  1.1808  0.3126
10112TIP3   OH254530   4.776   4.703   3.663  0.1294 -0.3910 -0.5614
10112TIP3    H154531   4.745   4.683   3.751 -1.2024  3.1944 -0.0282
10112TIP3    H254532   4.870   4.717   3.673  0.2781 -1.6468 -0.0874
10113TIP3   OH254533   6.667   3.652   2.220  1.0363  0.0478  0.5143
10113TIP3    H154534   6.722   3.707   2.166  0.8858  0.4897  0.8082
10113TIP3    H254535   6.702   3.564   2.209  1.5584  0.2709  0.4053
10114TIP3   OH254536   1.475   3.076   3.336  0.0296 -0.0056 -0.0055
10114TIP3    H154537   1.532   3.104   3.264 -1.1766 -0.2691 -1.0950
10114TIP3    H254538   1.466   2.982   3.324 -0.5565  0.0196  0.2159
10115TIP3   OH254539   0.880   6.138   2.210  0.1388 -0.1011 -0.0198
10115TIP3    H154540   0.863   6.200   2.139  1.8355  0.5880  0.1200
10115TIP3    H254541   0.933   6.187   2.273 -0.5846 -0.9649  1.3100
10116TIP3   OH254542   3.668   2.793   4.828  0.4711 -0.7162  0.2375
10116TIP3    H154543   3.614   2.817   4.752  1.2864  1.0228  0.1347
10116TIP3    H254544   3.606   2.757   4.891 -0.4751 -0.7438 -0.6657
10117TIP3   OH254545   5.285   5.262   2.340 -0.1332  0.0207 -0.0052
10117TIP3    H154546   5.192   5.280   2.353 -0.1510 -0.3268  0.3894
10117TIP3    H254547   5.330   5.326   2.394 -0.0715  1.4017 -1.5980
10118TIP3   OH254548   6.569   0.076   5.125  0.4727  0.4766 -0.1139
10118TIP3    H154549   6.484   0.087   5.168  0.5827 -0.3313  0.3166
10118TIP3    H254550   6.563  -0.009   5.081  1.0488  0.4325 -0.1142
10119TIP3   OH254551   6.425   3.926   5.144  0.4955  0.3838 -0.3010
10119TIP3    H154552   6.388   3.896   5.227  2.6153  0.5610  0.7733
10119TIP3    H254553   6.351   3.961   5.096 -0.9625 -0.6499  1.0907
10120TIP3   OH254554   6.361   4.781   2.758 -0.2293 -0.4374 -0.1919
10120TIP3    H154555   6.431   4.820   2.810 -0.6920  0.4227 -0.1953
10120TIP3    H254556   6.406   4.729   2.692  0.3795 -1.2835  0.8497
10121TIP3   OH254557   3.531   0.672   4.734  0.0347  0.0635  0.0038
10121TIP3    H154558   3.481   0.616   4.675 -1.0705 -0.0190  0.9757
10121TIP3    H254559   3.485   0.665   4.817  0.0286  2.1712  0.2247
10122TIP3   OH254560   6.004   2.026   3.425  0.2815 -0.0447 -0.2885
10122TIP3    H154561   5.918   2.061   3.402 -0.4118 -1.1274  0.6110
10122TIP3    H254562   6.046   2.008   3.340 -0.7509 -0.3956 -0.7348
10123TIP3   OH254563   0.655   4.200   4.075 -0.5894  0.4167  0.1345
10123TIP3    H154564   0.677   4.106   4.079 -3.1537 -0.2328  0.4928
10123TIP3    H254565   0.716   4.236   4.011 -0.4161 -1.7812 -1.0284
10124TIP3   OH254566   4.572   1.260   2.106  0.0766  0.1867 -0.0099
10124TIP3    H154567   4.546   1.248   2.198  0.1619 -1.2341 -0.1464
10124TIP3    H254568   4.495   1.234   2.056  0.4167 -0.1533 -0.3567
10125TIP3   OH254569   6.504   3.800   3.690  0.4907 -0.5127  0.0837
10125TIP3    H154570   6.555   3.756   3.757 -0.9967 -2.1879  0.1776
10125TIP3    H254571   6.431   3.839   3.737  0.2563 -0.3945 -0.3707
10126TIP3   OH254572   0.825   5.857   3.476  0.0043  0.5506 -0.0560
10126TIP3    H154573   0.766   5.892   3.409 -1.9199 -0.9571  0.7668
10126TIP3    H254574   0.893   5.811   3.427  0.3877  2.0870 -1.0205
10127TIP3   OH254575   3.763   6.781   3.828 -0.2746  0.1133  0.0393
10127TIP3    H154576   3.714   6.726   3.767 -0.4368  0.7507 -0.4136
10127TIP3    H254577   3.816   6.720   3.878  1.9642 -0.2996 -2.5937
10128TIP3   OH254578   2.577   4.018   5.342 -0.6235  0.0998  0.2862
10128TIP3    H154579   2.647   3.982   5.287 -1.1385  0.4302 -0.6135
10128TIP3    H254580   2.617   4.093   5.386 -0.8436  1.3876 -1.5694
10129TIP3   OH254581   5.793   3.693   2.175  0.2764  0.1220  0.4126
10129TIP3    H154582   5.700   3.712   2.168  0.7743  2.6534 -0.3205
10129TIP3    H254583   5.827   3.761   2.234  1.7625 -0.3566  0.1540
10130TIP3   OH254584   6.492   0.167   3.823 -0.2504 -0.1887  0.3943
10130TIP3    H154585   6.515   0.097   3.884 -0.5905 -0.8416 -0.2194
10130TIP3    H254586   6.473   0.122   3.741  0.3273  0.6861 -0.2368
10131TIP3   OH254587   4.354   1.795   3.210  0.2179  0.0099 -0.0394
10131TIP3    H154588   4.308   1.716   3.239 -0.0927  0.6605  1.3163
10131TIP3    H254589   4.389   1.833   3.290  2.6349 -0.1326 -0.9570
10132TIP3   OH254590   4.100   3.271   2.832 -0.0500 -0.2667  0.3828
10132TIP3    H154591   4.089   3.189   2.783  4.1072 -1.5871  1.2185
10132TIP3    H254592   4.129   3.334   2.766  0.9367 -0.7163  0.3750
10133TIP3   OH254593   2.702   3.233   3.641 -0.4466  0.3593 -0.1515
10133TIP3    H154594   2.765   3.299   3.612 -0.6278  1.2265  1.3669
10133TIP3    H254595   2.630   3.282   3.680 -0.7558 -0.7145  0.6948
10134TIP3   OH254596   0.942   5.922   2.513  0.1569 -0.3770  0.3947
10134TIP3    H154597   0.957   5.844   2.459  0.6813  0.0377 -0.0726
10134TIP3    H254598   0.953   5.892   2.603 -1.0591 -1.1616  0.3082
10135TIP3   OH254599   3.173   5.686   3.049  0.0207  0.4691 -0.2385
10135TIP3    H154600   3.132   5.605   3.020  1.3046 -1.7611  3.4872
10135TIP3    H254601   3.221   5.718   2.972 -0.0701 -2.6169 -1.7274
10136TIP3   OH254602   3.256   4.861   1.972  0.0577  0.2484  0.1806
10136TIP3    H154603   3.172   4.854   1.927  0.1412 -1.3586  0.2357
10136TIP3    H254604   3.256   4.949   2.009 -0.3466  1.3789 -2.2760
10137TIP3   OH254605   2.473   4.552   5.504 -0.5684  0.2084 -0.2236
10137TIP3    H154606   2.470   4.472   5.451 -0.4887 -1.1932  1.7984
10137TIP3    H254607   2.531   4.611   5.455 -1.2991 -0.6218 -2.1737
10138TIP3   OH254608   2.792   6.345   3.831 -0.4604  0.1084 -0.2925
10138TIP3    H154609   2.805   6.310   3.919 -0.0027  0.2199 -0.3121
10138TIP3    H254610   2.704   6.381   3.833  0.2188  1.8750  0.7523
10139TIP3   OH254611   0.576   3.757   2.411  0.1108 -0.1760  0.1566
10139TIP3    H154612   0.522   3.710   2.474  0.1166  0.9261  1.0063
10139TIP3    H254613   0.664   3.756   2.449  0.4152 -0.7328 -0.5359
10140TIP3   OH254614   3.180   3.564   3.367  0.2488 -0.5662 -0.3671
10140TIP3    H154615   3.158   3.647   3.408  1.9493 -0.1377 -0.2566
10140TIP3    H254616   3.141   3.498   3.424 -0.4929  0.1277 -0.0600
10141TIP3   OH254617   1.129   0.074   1.926  0.0361 -0.3036 -0.2675
10141TIP3    H154618   1.129   0.009   1.857  0.9027 -0.5171 -0.0732
10141TIP3    H254619   1.216   0.068   1.966 -0.8218 -1.0040  1.6016
10142TIP3   OH254620   0.860   3.084   2.877  0.2123 -0.0203 -0.1283
10142TIP3    H154621   0.946   3.043   2.866  0.7222  0.7517  0.8267
10142TIP3    H254622   0.877   3.163   2.929 -1.0653  0.2016 -0.0047
10143TIP3   OH254623   0.427   1.434   3.945  0.2070 -0.1818  0.0121
10143TIP3    H154624   0.475   1.471   3.871 -1.0383 -0.5357 -1.0058
10143TIP3    H254625   0.347   1.487   3.951 -0.3293 -1.0052  0.2556
10144TIP3   OH254626   5.427   5.596   4.233  0.4735 -0.0167 -0.6420
10144TIP3    H154627   5.354   5.557   4.185  0.0329 -1.4553  1.1141
10144TIP3    H254628   5.505   5.568   4.184  0.0036 -0.8632 -0.9291
10145TIP3   OH254629   4.247   3.733   3.206 -0.3397  0.3315  0.0619
10145TIP3    H154630   4.254   3.829   3.207  0.4710  0.2965 -0.4858
10145TIP3    H254631   4.337   3.704   3.188 -1.1112 -0.4080 -3.4812
10146TIP3   OH254632   0.214   3.073   4.415 -0.2976 -0.1572 -0.4149
10146TIP3    H154633   0.224   2.985   4.452  0.6824  0.5415  1.1027
10146TIP3    H254634   0.302   3.098   4.386 -0.9202 -0.4067 -2.6923
10147TIP3   OH254635   5.223   3.119   4.657  0.1554 -0.0079 -0.5030
10147TIP3    H154636   5.265   3.160   4.732  1.3454  0.2546 -1.2932
10147TIP3    H254637   5.222   3.025   4.678  2.8274 -0.2584 -1.2372
10148TIP3   OH254638   0.816   0.990   4.521 -0.5270  0.1931 -0.3092
10148TIP3    H154639   0.822   0.964   4.429  1.2906 -1.8781  0.3101
10148TIP3    H254640   0.884   0.939   4.565  0.3782  2.9487  1.8029
10149TIP3   OH254641   2.289   6.516   4.219  0.4330 -0.1101 -0.1797
10149TIP3    H154642   2.276   6.469   4.137 -0.1146 -0.9199  0.3627
10149TIP3    H254643   2.348   6.460   4.270  0.1483  0.0143  0.2925
10150TIP3   OH254644   5.534   0.256   3.313  0.0814 -0.2500  0.1792
10150TIP3    H154645   5.482   0.177   3.297  1.4746 -1.4611  1.2940
10150TIP3    H254646   5.530   0.305   3.231 -0.9832 -1.3808 -0.4748
10151TIP3   OH254647   2.450   0.193   4.291 -0.1467  0.0024 -0.1838
10151TIP3    H154648   2.464   0.286   4.272  0.3034 -0.1190 -0.4620
10151TIP3    H254649   2.534   0.152   4.270 -0.4083 -0.4971 -0.2541
10152TIP3   OH254650   4.752   0.026   3.826 -0.1132  0.4528  0.1017
10152TIP3    H154651   4.738   0.120   3.837 -0.1105  0.6256 -1.1727
10152TIP3    H254652   4.665  -0.010   3.815 -0.0231  0.8393 -2.8774
10153TIP3   OH254653   4.720   6.174   4.403 -0.1893 -0.5490  0.5253
10153TIP3    H154654   4.728   6.086   4.368 -1.2678 -0.8063  0.9095
10153TIP3    H254655   4.664   6.220   4.340 -1.0366 -0.6353  1.1999
10154TIP3   OH254656   6.750   3.360   4.319  0.4578 -0.5897 -0.0060
10154TIP3    H154657   6.675   3.403   4.359  0.6666 -0.1657 -0.0610
10154TIP3    H254658   6.771   3.414   4.242  2.0783  0.4957  1.1284
10155TIP3   OH254659   6.807   5.773   2.689  0.2295 -0.2067 -0.3115
10155TIP3    H154660   6.827   5.841   2.754  1.1633  0.3528 -1.1646
10155TIP3    H254661   6.890   5.757   2.645  0.4395 -3.0525  0.8948
10156TIP3   OH254662   0.932   1.973   3.374 -0.1920  0.4496 -0.3422
10156TIP3    H154663   1.001   1.984   3.309  1.8731  0.3068  1.7019
10156TIP3    H254664   0.932   2.056   3.423 -0.1902 -0.2243  0.8254
10157TIP3   OH254665   3.602   3.610   4.958  0.0297 -0.0949 -0.3040
10157TIP3    H154666   3.647   3.675   5.011  1.7381 -1.1410 -0.4284
10157TIP3    H254667   3.557   3.554   5.021 -0.3402  0.3764 -0.1374
10158TIP3   OH254668   5.790   0.560   3.685  0.5355 -0.4888  0.7037
10158TIP3    H154669   5.838   0.530   3.609 -0.5680  0.5878 -0.4708
10158TIP3    H254670   5.856   0.569   3.754  2.0575  1.0661 -0.8692
10159TIP3   OH254671   0.398   1.158   2.221 -0.2930  0.0893 -0.2855
10159TIP3    H154672   0.465   1.195   2.162  0.6949  3.1639  2.4171
10159TIP3    H254673   0.323   1.141   2.165  0.8664  1.9719 -2.5945
10160TIP3   OH254674   2.824   1.123   2.324  0.2778  0.4278 -0.3379
10160TIP3    H154675   2.760   1.184   2.361 -0.7705 -0.7589 -0.1327
10160TIP3    H254676   2.837   1.057   2.392  0.6647 -0.1054 -0.9139
10161TIP3   OH254677   0.552   2.089   2.773  0.4702 -0.2749  0.2669
10161TIP3    H154678   0.638   2.080   2.732 -0.3959 -0.9805 -1.4867
10161TIP3    H254679   0.545   2.182   2.795  1.9496 -0.3390  1.1170
10162TIP3   OH254680   3.957   2.155   4.556  0.3206 -0.1978  0.2719
10162TIP3    H154681   3.993   2.099   4.488  0.1943 -0.2364  0.2368
10162TIP3    H254682   4.027   2.162   4.621  0.5860  0.1552 -0.0440
10163TIP3   OH254683   1.757   2.959   4.048 -0.2771 -0.1358  0.3370
10163TIP3    H154684   1.736   2.933   4.138  0.8956  1.4142  1.0947
10163TIP3    H254685   1.852   2.966   4.047 -0.3845  1.5842 -0.5230
10164TIP3   OH254686   3.352   2.663   3.204  1.3447 -0.4446 -0.4373
10164TIP3    H154687   3.343   2.583   3.152 -1.3277 -0.6589  0.2091
10164TIP3    H254688   3.373   2.633   3.292 -0.7646 -0.6211  0.0747
10165TIP3   OH254689   1.163   1.738   4.434 -0.3871  0.1297 -0.3602
10165TIP3    H154690   1.217   1.721   4.512 -0.5182  0.4096 -0.2046
10165TIP3    H254691   1.073   1.733   4.466 -0.5200 -1.9630 -0.9527
10166TIP3   OH254692   3.457   2.762   4.384  0.0103  0.0016  0.6090
10166TIP3    H154693   3.532   2.802   4.340  0.1395 -0.7768  0.1130
10166TIP3    H254694   3.396   2.835   4.398  0.3268  0.4111 -0.1036
10167TIP3   OH254695   2.900   4.108   2.104  0.3023  0.0664  0.3330
10167TIP3    H154696   2.931   4.153   2.182 -0.5525  1.3321 -0.0125
10167TIP3    H254697   2.938   4.158   2.031  0.2996 -0.4943 -0.0578
10168TIP3   OH254698   0.213   2.812   4.471  0.1754 -0.3479  0.4757
10168TIP3    H154699   0.214   2.842   4.562  3.1407  1.3178  0.0221
10168TIP3    H254700   0.269   2.734   4.470  1.0221  0.2519 -0.0625
10169TIP3   OH254701   5.734   1.438   4.309  0.1924  0.4581  1.1085
10169TIP3    H154702   5.728   1.348   4.277 -2.4454  0.2144  2.0867
10169TIP3    H254703   5.735   1.492   4.229 -1.4802 -0.3293  0.5252
10170TIP3   OH254704   4.568   0.706   2.697 -0.3432  0.0241  0.2174
10170TIP3    H154705   4.485   0.678   2.659  0.3284  0.0088 -1.3593
10170TIP3    H254706   4.613   0.750   2.624  0.8105  0.4767  1.1769
10171TIP3   OH254707   0.300   0.357   3.532  0.0440 -0.2196  0.0287
10171TIP3    H154708   0.304   0.264   3.554  0.8772 -0.7312 -2.1084
10171TIP3    H254709   0.301   0.360   3.436  0.3142  2.0019  0.0400
10172TIP3   OH254710   0.439   3.707   3.551  0.7676 -0.5997 -0.1708
10172TIP3    H154711   0.448   3.773   3.481  1.1597 -0.1009  0.3396
10172TIP3    H254712   0.524   3.708   3.595  1.2804 -2.4360 -0.9939
10173TIP3   OH254713   4.075   1.975   3.396  0.2640 -0.2651 -0.0135
10173TIP3    H154714   4.155   1.988   3.447 -0.4567  1.2099  0.7853
10173TIP3    H254715   4.005   2.007   3.452 -0.9669 -1.8623 -0.5497
10174TIP3   OH254716   4.890   2.367   3.323 -0.5208 -0.6057  0.1942
10174TIP3    H154717   4.967   2.416   3.350 -0.6928  0.4390 -1.1241
10174TIP3    H254718   4.895   2.285   3.372  0.5679  0.1085  1.3189
10175TIP3   OH254719   4.057   1.874   3.044  0.3045  0.0656 -0.5575
10175TIP3    H154720   4.108   1.813   3.096 -0.2283 -0.9514 -1.1991
10175TIP3    H254721   3.966   1.857   3.068  0.2155  1.7019  0.4120
10176TIP3   OH254722   0.244   5.574   4.063  0.2962 -0.1293  0.6149
10176TIP3    H154723   0.238   5.669   4.051  0.6937 -0.2307 -0.4619
10176TIP3    H254724   0.160   5.550   4.102 -0.4667  0.4529 -0.5992
10177TIP3   OH254725   6.061   0.664   4.794 -0.2597 -0.1686  0.1938
10177TIP3    H154726   6.148   0.664   4.756 -0.4276  2.3181 -0.3540
10177TIP3    H254727   6.023   0.580   4.768  0.3296  0.5799 -3.5103
10178TIP3   OH254728   1.180   6.673   3.894  0.5728  0.2320 -0.1663
10178TIP3    H154729   1.158   6.708   3.807 -0.7703 -0.4401 -0.1245
10178TIP3    H254730   1.190   6.750   3.949 -0.2723  0.6158 -0.5389
10179TIP3   OH254731   5.630   0.823   3.908  0.2659 -0.3188  0.7104
10179TIP3    H154732   5.557   0.871   3.869 -0.9326 -1.7549  1.1405
10179TIP3    H254733   5.678   0.787   3.833  0.7224  0.8081  0.4199
10180TIP3   OH254734   0.263   5.053   4.503  0.5562 -0.7124 -0.4238
10180TIP3    H154735   0.220   5.053   4.589  0.2269  2.5491 -0.4843
10180TIP3    H254736   0.336   4.991   4.513 -0.7406 -2.0419  1.4805
10181TIP3   OH254737   5.150   4.722   2.780 -0.0034  0.3500 -0.2233
10181TIP3    H154738   5.206   4.794   2.808  0.2901 -0.4745  1.4124
10181TIP3    H254739   5.067   4.763   2.756  0.8675  1.4507 -1.5129
10182TIP3   OH254740   0.530   4.854   4.080  0.8146  0.0909 -0.0531
10182TIP3    H154741   0.577   4.915   4.023 -0.4011  0.7762 -0.3565
10182TIP3    H254742   0.441   4.854   4.047  0.3650 -0.4489  1.0973
10183TIP3   OH254743   1.286   6.778   3.592  0.0554 -0.1409 -0.6221
10183TIP3    H154744   1.319   6.754   3.506 -1.0357  0.0368 -1.1053
10183TIP3    H254745   1.210   6.722   3.605  1.3903 -1.6713  1.1476
10184TIP3   OH254746   4.430   6.847   4.814 -0.4692  0.0414  0.5192
10184TIP3    H154747   4.348   6.797   4.818  0.7009 -1.8857  1.5097
10184TIP3    H254748   4.435   6.893   4.898 -0.5627  0.2229  0.4265
10185TIP3   OH254749   0.364   5.423   5.389  0.4633 -0.3321  0.0165
10185TIP3    H154750   0.420   5.430   5.466  0.4327  0.3764 -0.0183
10185TIP3    H254751   0.411   5.364   5.330  0.5689 -0.7377  0.4982
10186TIP3   OH254752   2.030   2.014   3.019  0.1473  0.1181 -0.0021
10186TIP3    H154753   1.946   2.054   3.042  0.1518 -0.6990  1.5282
10186TIP3    H254754   2.095   2.066   3.067  0.4611  0.2391 -0.5424
10187TIP3   OH254755   4.721   5.039   3.688 -0.6344  0.2504 -0.1132
10187TIP3    H154756   4.737   5.117   3.742 -0.1788 -0.2504  0.4888
10187TIP3    H254757   4.753   4.966   3.741 -1.0778 -0.3531 -0.6645
10188TIP3   OH254758   0.224   0.980   3.147 -0.3163 -0.2618  0.2209
10188TIP3    H154759   0.295   0.918   3.166  3.0482  2.0558 -3.3297
10188TIP3    H254760   0.168   0.935   3.085  1.6151 -0.2029 -1.6690
10189TIP3   OH254761   2.455   6.392   3.806 -0.0161  0.0764  0.3307
10189TIP3    H154762   2.382   6.334   3.784  1.1522 -1.5112  0.4592
10189TIP3    H254763   2.469   6.445   3.727 -1.5326  0.6946  0.4453
10190TIP3   OH254764   2.004   0.009   4.476  0.1136  0.0887  0.0592
10190TIP3    H154765   2.024   0.018   4.569  1.8223  1.1136 -0.3544
10190TIP3    H254766   2.050  -0.071   4.449  0.3726  0.2815 -0.0787
10191TIP3   OH254767   4.531   5.934   4.681 -0.1342 -0.4279  0.2575
10191TIP3    H154768   4.560   5.861   4.626  1.2409 -0.2204  0.6806
10191TIP3    H254769   4.471   5.893   4.744 -1.2798 -0.7577 -1.0023
10192TIP3   OH254770   0.437   4.227   2.981  0.3259 -0.3142 -0.8304
10192TIP3    H154771   0.478   4.156   3.030  1.9031  0.6860 -0.6140
10192TIP3    H254772   0.485   4.305   3.008 -3.1088  1.3717  1.0985
10193TIP3   OH254773   5.869   6.324   2.671  0.0189 -0.2274 -0.1781
10193TIP3    H154774   5.949   6.344   2.719  0.3032 -1.0612 -0.2896
10193TIP3    H254775   5.899   6.293   2.585 -0.4186 -0.4426 -0.2595
10194TIP3   OH254776   5.247   4.459   3.323  0.1943  0.2974  0.1680
10194TIP3    H154777   5.276   4.368   3.312  0.2654  0.5034 -1.7222
10194TIP3    H254778   5.279   4.485   3.410 -1.0945 -1.9155  1.3933
10195TIP3   OH254779   5.234   4.771   4.383  0.2719 -0.4348 -0.2678
10195TIP3    H154780   5.247   4.676   4.379  1.3992 -0.2495 -1.6303
10195TIP3    H254781   5.315   4.804   4.421 -1.0093 -0.1440  2.4698
10196TIP3   OH254782   0.458   5.115   2.329 -0.6543  0.8922  0.3979
10196TIP3    H154783   0.455   5.208   2.306 -0.2198  0.9554  0.5831
10196TIP3    H254784   0.394   5.106   2.400 -1.2916  0.8832 -0.1610
10197TIP3   OH254785   0.827   1.455   3.189  0.0078  0.5119  0.8215
10197TIP3    H154786   0.758   1.472   3.253 -0.4219 -0.5567  0.6525
10197TIP3    H254787   0.841   1.361   3.192 -1.5032  0.0632 -2.1004
10198TIP3   OH254788   5.119   4.306   4.674 -0.2112 -0.3636 -0.1104
10198TIP3    H154789   5.154   4.228   4.632 -2.9288 -1.2212 -0.9613
10198TIP3    H254790   5.185   4.374   4.657  2.0802 -2.3346  0.4011
10199TIP3   OH254791   3.946   5.701   4.873 -0.3088 -0.5735 -0.6053
10199TIP3    H154792   3.855   5.672   4.877 -0.3682 -0.6537 -2.0873
10199TIP3    H254793   3.959   5.751   4.953 -2.0277  0.5004 -0.9681
10200TIP3   OH254794   2.789   6.402   2.507  0.4436 -0.1457 -0.0528
10200TIP3    H154795   2.774   6.409   2.413  0.2222 -0.6381 -0.0606
10200TIP3    H254796   2.853   6.470   2.527 -0.2433  0.6148 -0.3853
10201TIP3   OH254797   2.066   4.704   4.693 -0.6521  0.3400 -0.0231
10201TIP3    H154798   2.035   4.641   4.628  0.1684  0.9201 -0.9985
10201TIP3    H254799   2.125   4.761   4.645  0.9070  0.0751  1.4818
10202TIP3   OH254800   0.117   2.326   2.750 -0.0762 -0.7738 -0.3867
10202TIP3    H154801   0.161   2.242   2.762 -1.1811 -1.1563  1.4857
10202TIP3    H254802   0.025   2.306   2.762 -0.5826  0.3620 -2.1490
10203TIP3   OH254803   0.909   1.790   2.744 -0.4147  0.0892 -0.4060
10203TIP3    H154804   0.887   1.718   2.804  0.1157 -0.6538 -1.0778
10203TIP3    H254805   0.992   1.763   2.705  0.1102  1.3709 -0.2110
10204TIP3   OH254806   3.415   1.025   3.348 -0.1272  0.0682 -0.3002
10204TIP3    H154807   3.330   1.069   3.349  0.3453  1.0468 -1.2664
10204TIP3    H254808   3.425   0.995   3.258  0.3349 -0.5035 -0.0637
10205TIP3   OH254809   5.046   0.243   5.192 -0.0932  0.1124  1.1781
10205TIP3    H154810   5.117   0.213   5.249 -1.0611 -0.1933  2.2528
10205TIP3    H254811   4.969   0.194   5.221 -0.6615  0.0779 -0.2915
10206TIP3   OH254812   5.745   5.631   1.978 -0.1645  0.3770 -0.2528
10206TIP3    H154813   5.828   5.646   2.023 -0.0848 -0.8010  0.0176
10206TIP3    H254814   5.769   5.596   1.893 -0.3611  1.2554 -0.6815
10207TIP3   OH254815   3.498   0.653   4.176  0.1754  0.1105  0.5531
10207TIP3    H154816   3.464   0.565   4.188 -0.8692  0.3495 -0.5093
10207TIP3    H254817   3.590   0.641   4.153 -0.1104 -0.7429 -0.1780
10208TIP3   OH254818   4.748   1.141   2.806  0.1834 -0.0071  0.0266
10208TIP3    H154819   4.829   1.090   2.795 -0.5711 -1.0217 -1.2405
10208TIP3    H254820   4.723   1.127   2.897  3.2630  3.2731  1.5894
10209TIP3   OH254821   4.958   1.023   4.878 -0.3064 -0.5619  0.2759
10209TIP3    H154822   5.026   0.991   4.937  0.2024  0.4894  0.2845
10209TIP3    H254823   5.006   1.061   4.804 -0.8353  0.8139  0.6026
10210TIP3   OH254824   2.164   2.948   4.285 -0.1012 -0.3686 -0.3168
10210TIP3    H154825   2.245   2.947   4.234 -0.3428 -1.9094 -0.7309
10210TIP3    H254826   2.189   2.911   4.370 -0.6792 -2.6252 -1.0533
10211TIP3   OH254827   1.010   5.587   2.010 -0.1853 -0.2810 -0.2132
10211TIP3    H154828   1.065   5.648   2.060  0.7583 -0.6010 -0.8227
10211TIP3    H254829   1.072   5.539   1.955 -0.9909 -1.2874 -0.2714
10212TIP3   OH254830   1.454   0.652   2.425  0.0442 -0.0485  0.1486
10212TIP3    H154831   1.459   0.706   2.346  0.5538  0.6298  0.6322
10212TIP3    H254832   1.514   0.580   2.408  0.8316  0.5681  0.2595
10213TIP3   OH254833   3.655   6.852   3.362 -0.2805 -0.0632 -0.1473
10213TIP3    H154834   3.650   6.775   3.418 -1.1683 -0.5825 -0.9079
10213TIP3    H254835   3.718   6.910   3.406  0.3204 -1.1624  0.4939
10214TIP3   OH254836   0.284   0.815   4.952 -0.1659  0.1749 -0.0947
10214TIP3    H154837   0.238   0.736   4.922  0.0032  1.2655 -3.6692
10214TIP3    H254838   0.214   0.879   4.968 -0.1404  0.2724 -0.3770
10215TIP3   OH254839   6.674   3.658   3.153 -0.1847  0.5339  0.6137
10215TIP3    H154840   6.664   3.746   3.188  1.9329  0.8463  0.5830
10215TIP3    H254841   6.740   3.617   3.210 -0.9772 -0.9720  0.5035
10216TIP3   OH254842   0.952   2.804   3.203 -0.4983  0.8197  0.4307
10216TIP3    H154843   0.942   2.844   3.289  0.0569  0.8813  0.4685
10216TIP3    H254844   0.869   2.760   3.187 -0.7134  1.0672  0.8643
10217TIP3   OH254845   6.508   0.084   4.529  0.0608 -0.1758 -0.0093
10217TIP3    H154846   6.464  -0.001   4.523  0.4204 -0.4937  1.5149
10217TIP3    H254847   6.548   0.096   4.443 -2.4935 -0.1237 -1.2751
10218TIP3   OH254848   2.273   6.005   3.127  0.4135  0.4768 -0.2171
10218TIP3    H154849   2.209   6.047   3.185  0.2855  0.3801 -0.2901
10218TIP3    H254850   2.313   5.937   3.180  0.5255  0.5995 -0.1412
10219TIP3   OH254851   6.445   1.760   2.168  0.5457 -0.3869  0.5138
10219TIP3    H154852   6.457   1.839   2.115 -1.1749  0.9196  1.9758
10219TIP3    H254853   6.412   1.792   2.252 -1.0967 -2.7076  0.8382
10220TIP3   OH254854   6.693   0.750   3.477  0.7411  0.1643  0.2697
10220TIP3    H154855   6.743   0.690   3.533  0.8529 -1.1141 -1.1371
10220TIP3    H254856   6.754   0.775   3.408  0.3670  1.1059  0.2632
10221TIP3   OH254857   6.329   4.152   4.634 -0.0817 -0.2133 -1.2205
10221TIP3    H154858   6.329   4.104   4.717  1.0497  0.5303 -0.7625
10221TIP3    H254859   6.273   4.100   4.576  1.9944 -2.7784 -1.1487
10222TIP3   OH254860   2.817   6.144   1.982 -0.1177  0.2426 -0.0008
10222TIP3    H154861   2.799   6.167   1.891 -1.7308  0.4670  0.3536
10222TIP3    H254862   2.874   6.214   2.014  0.2099  0.3243 -0.7311
10223TIP3   OH254863   2.045   2.554   3.836  0.6218  0.1707 -0.1143
10223TIP3    H154864   2.103   2.524   3.906  0.9936 -0.7138 -0.7780
10223TIP3    H254865   1.995   2.476   3.811  0.6010  0.4346 -0.9334
10224TIP3   OH254866   6.214   5.286   5.029  0.3296  0.2914 -0.3959
10224TIP3    H154867   6.297   5.329   5.045  0.1475  3.0291 -5.1286
10224TIP3    H254868   6.149   5.356   5.033 -1.6584 -1.5072  1.6199
10225TIP3   OH254869   5.681   3.867   4.245  0.5751  0.1500 -0.0162
10225TIP3    H154870   5.637   3.837   4.325  1.0940  1.0127  0.6006
10225TIP3    H254871   5.717   3.787   4.207  1.2706 -0.1302  1.1924
10226TIP3   OH254872   1.023   6.628   1.843 -0.1079 -0.1069 -0.6393
10226TIP3    H154873   0.993   6.542   1.814  1.7001 -0.5787 -1.2355
10226TIP3    H254874   1.114   6.614   1.869 -0.2881  1.2782  0.9288
10227TIP3   OH254875   5.668   3.502   4.452  0.5730  0.0822 -0.3440
10227TIP3    H154876   5.627   3.582   4.483  1.8311  1.1379 -1.2662
10227TIP3    H254877   5.610   3.432   4.481 -0.9401  1.3709 -0.1315
10228TIP3   OH254878   2.349   3.259   4.596 -0.4184 -0.4829 -0.4744
10228TIP3    H154879   2.440   3.285   4.611 -0.4633 -0.4631 -0.2230
10228TIP3    H254880   2.353   3.167   4.571 -0.4362 -0.9101  1.0088
10229TIP3   OH254881   4.355   0.026   5.075  0.1339  0.4924  0.5296
10229TIP3    H154882   4.394  -0.008   5.156 -2.0224 -0.3690  1.2736
10229TIP3    H254883   4.263   0.001   5.081  0.3106 -1.7878 -3.3190
10230TIP3   OH254884   4.772   5.510   4.533 -0.0056  0.7624 -0.4636
10230TIP3    H154885   4.732   5.440   4.482  0.9562  0.3339 -0.6428
10230TIP3    H254886   4.740   5.497   4.622 -0.1948  0.3793 -0.5875
10231TIP3   OH254887   1.872   1.334   4.343 -0.2267 -0.4297 -0.0736
10231TIP3    H154888   1.931   1.410   4.345 -1.5707  0.6298  0.7321
10231TIP3    H254889   1.886   1.290   4.427  0.4488 -1.0223 -0.4827
10232TIP3   OH254890   1.771   1.109   3.844 -0.1551  0.7674  0.5950
10232TIP3    H154891   1.845   1.135   3.898  0.8326 -1.6451  0.5225
10232TIP3    H254892   1.702   1.086   3.906  1.2122 -2.7084  1.0848
10233TIP3   OH254893   0.462   3.421   3.516  0.0435  0.0496  0.1870
10233TIP3    H154894   0.455   3.516   3.524 -0.8171  0.0896 -0.8180
10233TIP3    H254895   0.376   3.393   3.485  0.4178 -1.0138  0.0605
10234TIP3   OH254896   6.502   2.000   4.453 -0.0539  0.1331  0.1004
10234TIP3    H154897   6.441   1.989   4.379  0.6465 -0.1533 -0.4448
10234TIP3    H254898   6.576   1.943   4.432 -0.4462 -1.0526  1.7002
10235TIP3   OH254899   5.282   4.232   3.568  0.4093  0.4096  0.3322
10235TIP3    H154900   5.338   4.199   3.638  0.2695  0.1014  0.3018
10235TIP3    H254901   5.304   4.178   3.492 -1.5505 -1.3506  0.8910
10236TIP3   OH254902   6.685   1.756   2.428 -0.6275 -0.4369  0.0404
10236TIP3    H154903   6.619   1.824   2.415 -0.3966 -0.3857 -0.9845
10236TIP3    H254904   6.638   1.674   2.412 -0.8441 -0.5105  1.0176
10237TIP3   OH254905   3.577   2.370   5.656 -0.3459  0.1935  0.1515
10237TIP3    H154906   3.531   2.454   5.655  0.7813  0.8288  0.3967
10237TIP3    H254907   3.643   2.378   5.586  1.3848  0.4757  1.7405
10238TIP3   OH254908   6.559   2.672   3.296  0.0480  0.0927 -0.3524
10238TIP3    H154909   6.466   2.693   3.294 -0.0531 -0.3824 -0.6484
10238TIP3    H254910   6.603   2.756   3.280 -0.2866  0.6118  1.1994
10239TIP3   OH254911   2.636   4.047   2.149  0.3998  0.3001  0.4657
10239TIP3    H154912   2.620   4.075   2.239  1.8899 -0.7089  1.1023
10239TIP3    H254913   2.727   4.073   2.131  0.6072 -0.7950 -0.2093
10240TIP3   OH254914   5.957   6.816   4.939 -0.3013 -0.1831  0.4012
10240TIP3    H154915   6.050   6.817   4.916 -0.5490  0.8135 -0.6566
10240TIP3    H254916   5.953   6.855   5.027  0.3877 -1.4209  1.0068
10241TIP3   OH254917   1.631   2.871   3.639  0.5389  0.0632 -0.1432
10241TIP3    H154918   1.689   2.830   3.704  0.4434  0.2601  0.0667
10241TIP3    H254919   1.661   2.962   3.634  2.0489 -0.4629 -2.0490
10242TIP3   OH254920   1.816   2.458   3.399 -0.1749 -0.0633 -0.2333
10242TIP3    H154921   1.760   2.509   3.457  0.9695  1.2849 -0.2496
10242TIP3    H254922   1.839   2.519   3.328 -0.2128 -1.1695 -1.2171
10243TIP3   OH254923   0.410   4.795   3.667 -0.4089 -0.4480  0.6348
10243TIP3    H154924   0.398   4.754   3.582  0.8355 -1.1020  0.7369
10243TIP3    H254925   0.398   4.888   3.651  1.0486 -0.4113 -0.5610
10244TIP3   OH254926   3.080   4.539   4.024 -0.7137 -0.1391 -0.0048
10244TIP3    H154927   3.008   4.594   4.053 -1.4617 -0.6060 -0.9399
10244TIP3    H254928   3.050   4.449   4.038  0.1402 -0.3299  0.6715
10245TIP3   OH254929   3.482   1.528   4.773 -0.1510 -0.6053 -0.0680
10245TIP3    H154930   3.405   1.535   4.830 -1.5216 -0.7604 -1.8193
10245TIP3    H254931   3.556   1.550   4.830 -1.5374  0.1712  1.5201
10246TIP3   OH254932   6.063   2.621   2.646  0.3758 -0.0417 -0.1292
10246TIP3    H154933   5.987   2.621   2.588 -1.0222  1.7198  1.5599
10246TIP3    H254934   6.058   2.705   2.691  1.2392 -1.3944  2.6852
10247TIP3   OH254935   0.177   3.663   2.284 -0.1115 -0.1097  0.2621
10247TIP3    H154936   0.233   3.741   2.285 -0.9281  0.5225  1.8515
10247TIP3    H254937   0.105   3.686   2.226 -0.2020  0.2144  0.4992
10248TIP3   OH254938   5.966   0.686   2.975  0.3523  0.3475 -0.7771
10248TIP3    H154939   5.921   0.762   3.011 -0.3305  0.1537 -1.1995
10248TIP3    H254940   5.939   0.613   3.031  1.8628  0.5702  0.3038
10249TIP3   OH254941   4.801   3.611   4.904  0.5946  0.2287  0.0550
10249TIP3    H154942   4.836   3.694   4.935  1.8795 -0.4490  0.5080
10249TIP3    H254943   4.710   3.629   4.882  0.8941  1.7719  0.0252
10250TIP3   OH254944   4.552   2.821   2.960  0.1082 -0.3489 -1.0013
10250TIP3    H154945   4.601   2.745   2.991 -0.1432  0.4308  1.6000
10250TIP3    H254946   4.476   2.784   2.915  0.7139 -1.5933 -1.0483
10251TIP3   OH254947   0.188   0.612   2.354 -0.2098  0.2115 -0.2878
10251TIP3    H154948   0.125   0.624   2.283 -2.8908  1.4015  2.1421
10251TIP3    H254949   0.163   0.529   2.394  0.7405 -0.0342 -0.1860
10252TIP3   OH254950   6.170   3.519   3.810  0.2176 -0.7212  0.9535
10252TIP3    H154951   6.123   3.444   3.774 -0.0470 -0.3143  0.4357
10252TIP3    H254952   6.261   3.504   3.786  0.3769 -1.5400  2.0067
10253TIP3   OH254953   3.319   3.135   2.397  0.0723 -0.0612  0.4346
10253TIP3    H154954   3.266   3.213   2.383  0.5662  0.2568  0.3024
10253TIP3    H254955   3.397   3.148   2.342  0.0212 -0.7873  0.1732
10254TIP3   OH254956   2.992   4.907   1.878  0.6066  0.8208 -0.4902
10254TIP3    H154957   2.995   4.988   1.826  1.6267  0.1524 -1.5159
10254TIP3    H254958   2.905   4.907   1.917  1.1402  3.2478  0.9032
10255TIP3   OH254959   5.077   4.042   3.153 -0.1816 -0.0781 -0.1148
10255TIP3    H154960   5.039   4.120   3.193  0.5228  0.0319  0.3744
10255TIP3    H254961   5.152   4.075   3.103  1.0979 -0.5654  1.3749
10256TIP3   OH254962   4.157   3.978   4.239 -0.3549  0.0423 -0.3054
10256TIP3    H154963   4.118   3.914   4.180 -2.3612  1.1885 -0.3044
10256TIP3    H254964   4.134   4.063   4.200 -0.1303  0.7944  1.1472
10257TIP3   OH254965   1.812   3.599   5.155 -0.2108 -0.1234  0.2917
10257TIP3    H154966   1.803   3.677   5.101 -1.9687 -0.2408  0.3559
10257TIP3    H254967   1.766   3.531   5.106  0.9080 -1.0306  0.4518
10258TIP3   OH254968   1.347   0.783   3.923 -0.2757 -0.1330  0.4136
10258TIP3    H154969   1.435   0.763   3.955  0.3295 -2.4607 -2.3349
10258TIP3    H254970   1.353   0.874   3.892  1.5351 -0.6142 -0.7723
10259TIP3   OH254971   2.808   1.772   4.565  0.1951 -0.3066  0.2994
10259TIP3    H154972   2.812   1.751   4.659 -0.0324 -2.1627 -0.0729
10259TIP3    H254973   2.718   1.799   4.551 -1.6075 -5.5834 -0.3465
10260TIP3   OH254974   6.066   5.117   3.536  0.0954  0.7718  0.4538
10260TIP3    H154975   6.133   5.064   3.579 -0.7810 -2.0516 -1.3617
10260TIP3    H254976   6.115   5.177   3.480  1.1479 -0.1846  0.3126
10261TIP3   OH254977   6.608   3.175   4.527 -0.0603  0.2021 -0.3742
10261TIP3    H154978   6.683   3.229   4.553  0.6163 -1.6376  1.8762
10261TIP3    H254979   6.534   3.213   4.574  0.4663 -0.8644  1.4353
10262TIP3   OH254980   1.247   5.374   4.420 -0.4998 -0.3323 -0.1618
10262TIP3    H154981   1.283   5.463   4.421 -0.8823 -0.1506 -1.1531
10262TIP3    H254982   1.189   5.371   4.496  0.2355 -0.0484  0.4222
10263TIP3   OH254983   2.412   3.634   4.396  0.1637 -0.2029  0.0768
10263TIP3    H154984   2.457   3.556   4.428  0.0320 -0.5707 -0.6205
10263TIP3    H254985   2.429   3.635   4.302 -0.8085 -0.0349 -0.1083
10264TIP3   OH254986   1.774   4.330   2.801  0.1842  0.4161  0.4445
10264TIP3    H154987   1.781   4.420   2.770  1.4753 -0.4407 -1.9548
10264TIP3    H254988   1.783   4.338   2.896 -0.5681  2.8586  0.3929
10265TIP3   OH254989   5.331   1.456   2.519 -0.0724 -0.0639  0.2991
10265TIP3    H154990   5.312   1.515   2.591  1.8182  0.6543  0.2735
10265TIP3    H254991   5.269   1.384   2.529 -0.3904  0.4263  2.1374
10266TIP3   OH254992   4.065   3.263   3.297 -0.4293 -0.0525 -0.5171
10266TIP3    H154993   4.111   3.346   3.301 -3.3442  1.6372  0.9994
10266TIP3    H254994   4.043   3.252   3.205 -0.4467  1.1242 -0.6652
10267TIP3   OH254995   6.683   5.475   3.206 -0.3275 -0.5365 -0.1273
10267TIP3    H154996   6.598   5.492   3.165 -2.0361 -0.7415  2.9860
10267TIP3    H254997   6.698   5.382   3.192 -0.7680 -0.5599 -0.4712
10268TIP3   OH254998   2.812   2.525   4.971 -0.1427 -0.4505  0.2015
10268TIP3    H154999   2.761   2.600   5.003 -0.5011 -0.8468  0.5705
10268TIP3    H255000   2.883   2.565   4.921 -0.4284  0.1337  0.2422
10269TIP3   OH255001   1.568   6.688   4.220  0.5714 -0.2233 -0.3150
10269TIP3    H155002   1.663   6.688   4.217  0.6383 -1.3072  0.9640
10269TIP3    H255003   1.542   6.767   4.172  2.1873  1.2669  1.1117
10270TIP3   OH255004   3.951   4.229   2.504  0.1475 -0.6555 -0.2526
10270TIP3    H155005   3.931   4.310   2.553 -0.8085 -2.3286  2.3536
10270TIP3    H255006   4.036   4.202   2.537  0.8957 -0.2935 -1.8004
10271TIP3   OH255007   4.285   4.195   1.649  0.0958 -0.2174 -0.2550
10271TIP3    H155008   4.341   4.231   1.580  0.0529  0.5247  0.0831
10271TIP3    H255009   4.284   4.263   1.717  0.1361 -0.9349  0.4767
10272TIP3   OH255010   1.975   1.605   4.122  0.3741  0.0030 -0.0706
10272TIP3    H155011   1.880   1.593   4.133  0.4686 -3.4135 -1.6102
10272TIP3    H255012   2.013   1.560   4.197  0.7338 -1.4751 -1.0944
10273TIP3   OH255013   4.305   1.542   5.223  0.6861  0.0964 -0.0552
10273TIP3    H155014   4.226   1.491   5.206  1.9361 -2.3131  0.8534
10273TIP3    H255015   4.353   1.541   5.140  0.0991  0.9755 -0.4144
10274TIP3   OH255016   5.700   5.490   5.698  0.4992 -0.3492 -0.3501
10274TIP3    H155017   5.794   5.507   5.706  0.5975 -1.0497  0.1346
10274TIP3    H255018   5.687   5.405   5.742 -0.2729 -0.5215 -0.8839
10275TIP3   OH255019   5.418   4.495   2.335  0.5354  0.5602  0.6046
10275TIP3    H155020   5.336   4.515   2.291  0.8553  0.0046 -0.2716
10275TIP3    H255021   5.458   4.581   2.352 -0.5009  0.8653  1.6341
10276TIP3   OH255022   4.889   3.909   2.952 -0.0448 -0.5093 -0.1874
10276TIP3    H155023   4.846   3.985   2.911  0.5462 -0.4823 -0.7723
10276TIP3    H255024   4.965   3.946   2.997  0.0562 -0.7124 -0.1937
10277TIP3   OH255025   6.758   4.225   4.963  0.0099 -0.0749 -0.1770
10277TIP3    H155026   6.845   4.237   4.924 -0.1091  0.9323 -0.1720
10277TIP3    H255027   6.751   4.297   5.027 -1.4625  0.8919 -1.3595
10278TIP3   OH255028   5.370   5.554   4.639  0.4604 -0.2981 -0.2565
10278TIP3    H155029   5.342   5.474   4.594  1.2577  0.1128 -1.5594
10278TIP3    H255030   5.345   5.625   4.580 -0.3538  0.4510  0.9437
10279TIP3   OH255031   5.582   4.172   4.217 -0.4889 -0.6131  0.2218
10279TIP3    H155032   5.564   4.185   4.310  1.2839 -1.2702  0.7064
10279TIP3    H255033   5.644   4.099   4.215  1.2841  0.8427 -1.2786
10280TIP3   OH255034   2.660   0.483   3.531  0.1935  0.1060  0.1068
10280TIP3    H155035   2.729   0.423   3.502  0.7272  0.6371  0.2647
10280TIP3    H255036   2.591   0.426   3.566  0.5778 -0.4228  0.0056
10281TIP3   OH255037   2.067   5.340   5.076  0.6054  0.4663  0.4848
10281TIP3    H155038   2.073   5.307   5.165 -0.7257 -1.2110  0.0137
10281TIP3    H255039   2.038   5.265   5.024  0.4374  1.6297 -1.2143
10282TIP3   OH255040   4.087   0.577   4.533  0.8857  0.5832  0.3386
10282TIP3    H155041   4.054   0.549   4.619 -1.7026  3.5895  0.5227
10282TIP3    H255042   4.049   0.514   4.472  1.1177 -0.4356  1.2096
10283TIP3   OH255043   6.353   6.581   2.081  0.6263 -0.1367  0.2047
10283TIP3    H155044   6.358   6.543   2.169  1.7166  1.1436  0.7348
10283TIP3    H255045   6.438   6.562   2.041  0.5055  0.1484 -0.1965
10284TIP3   OH255046   5.167   1.985   2.580  0.3672  0.4522  0.1152
10284TIP3    H155047   5.088   2.010   2.628  0.3369  1.6478 -0.5220
10284TIP3    H255048   5.217   2.066   2.572 -0.0698  0.5210 -2.6760
10285TIP3   OH255049   4.048   0.279   3.717 -0.2699 -0.0756 -0.1586
10285TIP3    H155050   4.134   0.238   3.711 -0.6635 -0.8266 -0.8221
10285TIP3    H255051   4.057   0.361   3.667  0.2470  0.1891  0.3614
10286TIP3   OH255052   0.503   2.848   2.291 -0.6470 -0.1101 -0.0018
10286TIP3    H155053   0.547   2.774   2.249  1.0072  0.3722  0.7578
10286TIP3    H255054   0.569   2.883   2.351 -1.3073  2.0968 -0.4682
10287TIP3   OH255055   0.136   0.815   4.023  0.6845  0.2833  0.3904
10287TIP3    H155056   0.070   0.748   4.005  0.6721  0.2765  0.4611
10287TIP3    H255057   0.215   0.783   3.979  0.8313 -0.0540  0.8883
10288TIP3   OH255058   5.470   5.296   3.184  0.4994 -0.3723 -0.3699
10288TIP3    H155059   5.524   5.375   3.177  0.1247 -0.0816 -0.0375
10288TIP3    H255060   5.463   5.280   3.278 -1.6576  0.7686 -0.2587
10289TIP3   OH255061   2.385   4.058   4.236  0.2156 -0.4872 -0.3551
10289TIP3    H155062   2.295   4.076   4.208 -0.3582 -3.0179 -0.4328
10289TIP3    H255063   2.376   4.010   4.318  1.5157 -0.3789 -0.1257
10290TIP3   OH255064   4.623   3.722   2.381  0.7973  0.0385 -0.0666
10290TIP3    H155065   4.692   3.746   2.320 -1.0828  3.1160 -1.2226
10290TIP3    H255066   4.666   3.669   2.448  3.9357  0.6882 -1.4339
10291TIP3   OH255067   3.287   2.835   4.027  0.3215  0.8893 -0.2439
10291TIP3    H155068   3.254   2.751   4.059 -1.9577  1.0118 -1.9936
10291TIP3    H255069   3.381   2.832   4.044 -0.1813 -0.4931  2.9448
10292TIP3   OH255070   6.515   4.224   2.364 -0.1280 -0.5543 -0.0763
10292TIP3    H155071   6.424   4.193   2.358 -0.3884  0.1058  0.3828
10292TIP3    H255072   6.524   4.286   2.292 -0.0082 -0.6916 -0.1811
10293TIP3   OH255073   5.767   1.854   2.844 -0.4769  0.0129  0.0180
10293TIP3    H155074   5.760   1.872   2.750  1.5684 -0.2432 -0.2136
10293TIP3    H255075   5.744   1.937   2.886  1.0247  0.8942 -0.8091
10294TIP3   OH255076   6.415   2.102   4.124 -0.4171  0.1696  0.6175
10294TIP3    H155077   6.325   2.124   4.099  0.0379 -0.2895 -1.5633
10294TIP3    H255078   6.459   2.082   4.042  1.8614  0.9387  1.5831
10295TIP3   OH255079   3.040   5.278   4.220 -0.0967  0.0613 -0.5645
10295TIP3    H155080   2.967   5.260   4.280  1.3601 -1.5323  0.8849
10295TIP3    H255081   2.999   5.285   4.134 -2.0401  0.0004  0.2889
10296TIP3   OH255082   1.237   5.102   4.370 -0.0141  0.3680  0.3130
10296TIP3    H155083   1.256   5.188   4.408 -0.9608  0.7032  0.0565
10296TIP3    H255084   1.322   5.067   4.346  0.5838  0.3798  2.2366
10297TIP3   OH255085   1.077   3.728   2.624  0.5579 -0.3779 -0.3431
10297TIP3    H155086   1.168   3.701   2.629  1.0574  0.7439 -2.3779
10297TIP3    H255087   1.034   3.658   2.575 -0.1573 -1.8044  2.1081
10298TIP3   OH255088   0.599   6.713   2.072 -0.6181 -0.3319  0.4963
10298TIP3    H155089   0.680   6.756   2.041 -0.9881 -0.2044 -0.3285
10298TIP3    H255090   0.532   6.781   2.063 -0.8538 -0.4962  1.0100
10299TIP3   OH255091   5.570   5.118   2.993 -0.1307  0.0959 -0.0917
10299TIP3    H155092   5.576   5.144   3.085  0.1702  1.7395 -0.5571
10299TIP3    H255093   5.604   5.192   2.944  1.2256 -1.3715 -1.4882
10300TIP3   OH255094   1.228   1.157   3.342  0.5337  0.0715 -0.4223
10300TIP3    H155095   1.243   1.142   3.248 -0.0583  0.7444 -0.6382
10300TIP3    H255096   1.241   1.071   3.382  0.2829 -0.3425 -1.1943
10301TIP3   OH255097   4.297   0.126   4.013  0.1296  0.2866  0.3865
10301TIP3    H155098   4.289   0.217   4.041 -0.6764 -0.0915  1.4626
10301TIP3    H255099   4.275   0.127   3.919 -1.8784  0.9288  0.8258
10302TIP3   OH255100   0.306   4.507   2.949 -0.1288 -0.4631 -0.1996
10302TIP3    H155101   0.325   4.574   3.014 -0.6231 -2.7900  2.5411
10302TIP3    H255102   0.384   4.451   2.948 -0.5175 -1.0212 -0.9060
10303TIP3   OH255103   4.119   4.966   2.352  0.2565 -0.2034 -0.7530
10303TIP3    H155104   4.115   5.061   2.351 -0.4702 -0.1351  1.4986
10303TIP3    H255105   4.208   4.946   2.382  0.1543 -0.2007 -0.4432
10304TIP3   OH255106   4.804   3.624   3.061  0.1658 -0.4498  0.2417
10304TIP3    H155107   4.796   3.713   3.026  1.6063 -0.9865 -1.5648
10304TIP3    H255108   4.896   3.614   3.083  0.2073 -1.8203 -0.4806
10305TIP3   OH255109   2.288   1.919   3.231 -0.3006  0.2580 -0.0872
10305TIP3    H155110   2.234   1.997   3.239 -0.8361  0.0909 -1.7127
10305TIP3    H255111   2.372   1.944   3.269 -0.4141  1.6786 -0.7108
10306TIP3   OH255112   6.093   6.017   2.425 -0.2962  0.3412  0.0403
10306TIP3    H155113   6.180   5.982   2.444 -0.2869  0.4098  0.1266
10306TIP3    H255114   6.047   6.014   2.509 -0.8173 -0.9234 -0.2692
10307TIP3   OH255115   3.390   4.725   5.333  0.3602  0.0983  0.2863
10307TIP3    H155116   3.387   4.776   5.413 -0.8950 -1.1315  1.0657
10307TIP3    H255117   3.310   4.673   5.334  0.4648 -0.1763 -1.6220
10308TIP3   OH255118   0.974   4.278   5.487 -0.2419  0.0658  0.1458
10308TIP3    H155119   0.958   4.369   5.512 -2.6443 -0.4256  0.6059
10308TIP3    H255120   1.004   4.236   5.568 -0.2449  0.2040  0.2190
10309TIP3   OH255121   4.635   1.457   4.396 -0.3536  0.6683  0.3089
10309TIP3    H155122   4.715   1.510   4.398 -0.7751  1.3045  1.4196
10309TIP3    H255123   4.624   1.434   4.304  1.3337  0.1942  0.1914
10310TIP3   OH255124   4.941   1.073   3.460 -0.0629  0.0882 -0.4015
10310TIP3    H155125   5.021   1.022   3.445  1.1548  1.7256  0.2597
10310TIP3    H255126   4.903   1.035   3.539  0.1754 -0.5797 -0.6030
10311TIP3   OH255127   4.776   1.861   3.514  0.2623  0.8330  0.5073
10311TIP3    H155128   4.847   1.804   3.543  0.4321 -1.0226 -3.0524
10311TIP3    H255129   4.696   1.821   3.550  0.5828 -0.3066 -0.0306
10312TIP3   OH255130   3.363   5.629   4.615 -0.3112  0.2596 -0.0526
10312TIP3    H155131   3.406   5.602   4.696  1.0367  1.7351 -0.2308
10312TIP3    H255132   3.429   5.681   4.568 -1.1382 -0.3371 -1.9957
10313TIP3   OH255133   4.577   0.838   4.068  0.7807  0.4955 -0.1577
10313TIP3    H155134   4.554   0.916   4.018 -1.1499  0.0060 -0.1255
10313TIP3    H255135   4.512   0.836   4.139 -0.6890 -2.3150 -1.4472
10314TIP3   OH255136   5.917   3.123   3.035 -0.1263 -0.0563  0.2976
10314TIP3    H155137   5.821   3.120   3.033 -0.1670  0.5661 -1.9837
10314TIP3    H255138   5.940   3.190   2.970  1.8456  0.4907  1.4964
10315TIP3   OH255139   3.972   3.252   2.149 -0.0437 -0.8220 -0.2539
10315TIP3    H155140   3.933   3.171   2.181 -0.2846 -0.4460  0.4539
10315TIP3    H255141   4.043   3.271   2.212 -0.9660  0.2901  0.5048
10316TIP3   OH255142   1.596   4.847   4.868 -0.0147  0.3331  0.5616
10316TIP3    H155143   1.524   4.784   4.866  1.0976 -1.0138  1.1027
10316TIP3    H255144   1.620   4.853   4.960  0.0249  1.4524  0.4990
10317TIP3   OH255145   3.497   3.874   4.312  0.8579  0.3771  0.4903
10317TIP3    H155146   3.556   3.802   4.286 -0.2694 -1.1233  1.9155
10317TIP3    H255147   3.428   3.873   4.246 -0.5693 -1.6682  1.8971
10318TIP3   OH255148   5.911   6.212   2.090  0.0274  0.2318 -0.4197
10318TIP3    H155149   5.866   6.145   2.038  0.1966 -1.0577  0.9895
10318TIP3    H255150   5.911   6.290   2.035 -0.7200 -0.7574 -1.8955
10319TIP3   OH255151   4.207   1.819   3.797 -0.0043 -0.4466 -0.4969
10319TIP3    H155152   4.245   1.833   3.883 -0.5828 -1.1897 -0.1081
10319TIP3    H255153   4.200   1.724   3.789 -3.9318 -0.3795  0.4282
10320TIP3   OH255154   0.171   1.703   3.380 -0.0841  0.1045 -0.4894
10320TIP3    H155155   0.252   1.652   3.382 -1.0499 -1.5043 -0.5205
10320TIP3    H255156   0.102   1.637   3.374 -1.3661  1.4722 -1.3026
10321TIP3   OH255157   4.669   4.516   2.104  0.1976 -0.1284 -0.3197
10321TIP3    H155158   4.600   4.516   2.170  1.2566 -2.1939  0.8875
10321TIP3    H255159   4.654   4.435   2.055  0.5913  0.4165 -1.3605
10322TIP3   OH255160   0.441   1.805   2.185 -0.2784 -0.1295 -0.0293
10322TIP3    H155161   0.386   1.871   2.143 -0.8473 -1.0131 -0.7221
10322TIP3    H255162   0.521   1.851   2.207  0.4360  0.2140 -2.9571
10323TIP3   OH255163   1.977   2.213   2.494  0.1196 -0.0941  0.6096
10323TIP3    H155164   1.967   2.158   2.571 -0.5895  0.6060  1.0280
10323TIP3    H255165   1.895   2.201   2.445 -0.7595  1.8093  1.5217
10324TIP3   OH255166   2.261   3.510   3.698  0.4161 -0.3403 -0.0512
10324TIP3    H155167   2.176   3.479   3.728 -0.3994  0.8006 -1.0770
10324TIP3    H255168   2.293   3.563   3.771 -0.6653  0.8143 -0.3686
10325TIP3   OH255169   4.990   2.861   2.746 -0.0703 -0.1885  0.0759
10325TIP3    H155170   4.933   2.901   2.812  0.8728  1.4786 -0.0625
10325TIP3    H255171   4.937   2.858   2.667 -0.4630 -0.0571  0.3323
10326TIP3   OH255172   5.304   6.203   4.975 -0.3285  0.3570  0.1234
10326TIP3    H155173   5.211   6.197   4.951  0.0116  1.4962 -1.6644
10326TIP3    H255174   5.306   6.182   5.069 -2.2192 -0.8699 -0.0534
10327TIP3   OH255175   0.987   6.105   3.701 -0.6552  0.1905 -0.8059
10327TIP3    H155176   1.046   6.041   3.740 -0.1120  1.8165  1.2082
10327TIP3    H255177   1.041   6.183   3.686 -1.6119  0.6876 -1.8275
10328TIP3   OH255178   5.147   5.635   2.647  0.0278  0.5325  0.1465
10328TIP3    H155179   5.207   5.561   2.636  0.0503  0.4823  0.5672
10328TIP3    H255180   5.201   5.713   2.636 -0.1859  0.5013 -1.3112
10329TIP3   OH255181   0.667   2.445   4.081 -1.0048 -0.0579 -0.2799
10329TIP3    H155182   0.703   2.495   4.155 -0.3621 -1.5995  0.4849
10329TIP3    H255183   0.743   2.398   4.046 -1.5222 -0.1709 -1.2652
10330TIP3   OH255184   6.624   0.845   2.140 -0.1171  0.1937 -0.7047
10330TIP3    H155185   6.564   0.814   2.071  0.3624  0.2426 -1.1526
10330TIP3    H255186   6.568   0.858   2.216 -0.7602  0.6448 -1.2338
10331TIP3   OH255187   5.932   3.460   4.535  0.1873  0.1330  0.6328
10331TIP3    H155188   5.996   3.504   4.479  0.3792 -1.7156 -0.6995
10331TIP3    H255189   5.847   3.486   4.499  0.1856  1.3624  1.4457
10332TIP3   OH255190   5.454   0.139   2.583 -0.4039 -0.5974  0.4336
10332TIP3    H155191   5.528   0.142   2.522 -0.5857  0.6197  0.2505
10332TIP3    H255192   5.440   0.230   2.608 -2.0930 -0.7659  0.1758
10333TIP3   OH255193   4.635   4.339   4.655  0.1558  0.2194 -0.0946
10333TIP3    H155194   4.616   4.257   4.610  0.7848  0.2501 -0.4305
10333TIP3    H255195   4.719   4.367   4.619  0.3117  0.6237  0.5697
10334TIP3   OH255196   3.777   0.306   4.705 -0.5624 -0.3439  0.1414
10334TIP3    H155197   3.850   0.311   4.644  1.4981 -0.4059  2.4519
10334TIP3    H255198   3.787   0.383   4.761 -1.1846 -1.2800  1.6181
10335TIP3   OH255199   1.772   5.327   5.353  0.0709 -0.5024 -0.4136
10335TIP3    H155200   1.825   5.261   5.399 -1.4669 -0.2419  1.9351
10335TIP3    H255201   1.687   5.286   5.343 -0.4124  0.4909 -0.4895
10336TIP3   OH255202   3.053   0.267   2.600  0.1067  0.5666  0.0784
10336TIP3    H155203   3.115   0.242   2.668  0.6704  0.7123 -0.3726
10336TIP3    H255204   2.979   0.207   2.611  0.2276  0.5419  0.7643
10337TIP3   OH255205   0.513   2.535   3.298 -0.2083  0.0573 -0.0103
10337TIP3    H155206   0.436   2.569   3.253 -1.6023 -0.0470  2.1853
10337TIP3    H255207   0.481   2.459   3.346  1.3527 -0.2014  0.6740
10338TIP3   OH255208   1.233   3.357   4.177  0.3690 -0.6170 -0.4258
10338TIP3    H155209   1.183   3.390   4.103  0.9380 -2.3536 -1.6432
10338TIP3    H255210   1.311   3.318   4.138  1.2329 -0.6190  1.1914
10339TIP3   OH255211   4.019   4.823   4.336  0.7066  0.2729  0.1409
10339TIP3    H155212   3.981   4.741   4.370  2.0444 -0.8014 -0.8542
10339TIP3    H255213   3.973   4.838   4.254  1.0946  0.0025 -0.1305
10340TIP3   OH255214   2.314   2.953   4.744  0.3845 -0.4656 -0.0841
10340TIP3    H155215   2.232   2.916   4.777  0.1797 -1.2106 -1.3520
10340TIP3    H255216   2.300   2.961   4.650  1.5612 -0.0417 -0.2364
10341TIP3   OH255217   6.707   5.497   2.838 -0.0671 -0.4955 -0.4616
10341TIP3    H155218   6.707   5.492   2.743  0.0269  0.2759 -0.5079
10341TIP3    H255219   6.777   5.558   2.859  1.7246 -2.6384  0.2417
10342TIP3   OH255220   3.110   4.568   4.428 -0.0562 -0.0396 -0.0933
10342TIP3    H155221   3.052   4.603   4.361 -0.4474 -1.7393 -0.7002
10342TIP3    H255222   3.060   4.574   4.510 -0.3574  0.2179 -0.2970
10343TIP3   OH255223   4.463   6.310   2.878  0.1854  0.1289  0.1571
10343TIP3    H155224   4.488   6.218   2.892  0.7328  0.0119 -1.3569
10343TIP3    H255225   4.545   6.353   2.852 -0.0321  1.0920  1.0310
10344TIP3   OH255226   6.144   3.525   4.346 -0.4025  0.8264 -0.0005
10344TIP3    H155227   6.217   3.464   4.344 -0.4609  0.7354  0.5442
10344TIP3    H255228   6.163   3.589   4.277 -0.8468 -0.3816 -1.2929
10345TIP3   OH255229   6.337   3.417   2.685  0.3196 -0.0367 -0.2021
10345TIP3    H155230   6.394   3.455   2.752 -0.0745  0.4315 -0.1237
10345TIP3    H255231   6.251   3.413   2.727 -0.0965  0.9694 -0.9170
10346TIP3   OH255232   0.861   2.401   2.382 -0.2234  0.1451  0.1150
10346TIP3    H155233   0.908   2.346   2.320  1.8467  1.4226  0.4487
10346TIP3    H255234   0.901   2.488   2.373 -1.4472  0.9275  1.5997
10347TIP3   OH255235   5.283   5.995   3.609  0.0122 -0.3069  0.9010
10347TIP3    H155236   5.250   6.058   3.672  0.1231  0.9446 -0.2633
10347TIP3    H255237   5.375   6.019   3.596 -0.5696  0.9362 -1.4189
10348TIP3   OH255238   0.849   6.577   4.018  0.4093  0.2028 -0.3409
10348TIP3    H155239   0.790   6.503   4.006  1.2187 -0.2884 -1.4587
10348TIP3    H255240   0.803   6.651   3.978 -0.1913  0.2083  0.3461
10349TIP3   OH255241   4.762   2.442   4.135  0.3939 -0.0735  0.0765
10349TIP3    H155242   4.834   2.439   4.198  0.5913 -0.6133 -0.1699
10349TIP3    H255243   4.772   2.362   4.083 -0.3816 -0.1596  0.0384
10350TIP3   OH255244   5.525   3.736   3.354  0.1841 -0.0193  0.1840
10350TIP3    H155245   5.522   3.826   3.321  0.9745  0.1054  0.4319
10350TIP3    H255246   5.445   3.696   3.322  0.4190  0.4119 -0.9905
10351TIP3   OH255247   4.823   1.095   4.198 -0.6419  0.2721 -0.0617
10351TIP3    H155248   4.885   1.035   4.240  0.2747  2.0547  1.2397
10351TIP3    H255249   4.845   1.091   4.105  2.1985  1.6033  0.4395
10352TIP3   OH255250   2.234   6.491   2.725 -0.5108  0.2773 -0.5185
10352TIP3    H155251   2.283   6.574   2.722 -0.5336  0.3073 -0.1759
10352TIP3    H255252   2.293   6.431   2.771 -1.0376  0.4896  0.4643
10353TIP3   OH255253   5.126   3.226   3.413  0.3990 -0.1779 -0.1051
10353TIP3    H155254   5.187   3.274   3.469 -0.2461 -0.8264  1.1914
10353TIP3    H255255   5.183   3.179   3.352  1.0945  1.0009 -0.3926
10354TIP3   OH255256   5.783   4.418   2.627  0.2321  0.0318  0.2360
10354TIP3    H155257   5.714   4.463   2.676  1.0562  1.3869  0.1854
10354TIP3    H255258   5.739   4.386   2.548 -0.4800  0.3191  0.5039
10355TIP3   OH255259   3.480   5.697   2.349 -0.2767  0.0082 -0.0095
10355TIP3    H155260   3.424   5.642   2.295 -2.1053  1.3012  0.5076
10355TIP3    H255261   3.532   5.635   2.400 -1.7231 -1.2363  0.0011
10356TIP3   OH255262   3.298   6.662   3.284 -0.2759  0.1492  0.3659
10356TIP3    H155263   3.349   6.730   3.240  1.3038 -1.5181 -0.4966
10356TIP3    H255264   3.247   6.621   3.215 -0.1287 -0.4546  0.6028
10357TIP3   OH255265   5.333   3.973   1.848  0.0889  0.2548 -0.1191
10357TIP3    H155266   5.365   4.061   1.869  1.0644  0.0224 -0.5977
10357TIP3    H255267   5.243   3.973   1.881  0.3015  1.1928  0.5322
10358TIP3   OH255268   2.253   3.724   2.022 -0.2713 -0.1698  0.5452
10358TIP3    H155269   2.214   3.811   2.009  0.6570  0.0161 -1.2844
10358TIP3    H255270   2.332   3.740   2.073  0.9006  0.3435 -1.3733
10359TIP3   OH255271   1.696   5.151   5.085 -0.4061  0.0111 -0.2133
10359TIP3    H155272   1.673   5.058   5.081 -0.6110  0.0994 -1.9836
10359TIP3    H255273   1.678   5.176   5.176 -0.5044 -1.6296  0.2519
10360TIP3   OH255274   0.724   6.065   2.437  0.2869  0.3269 -0.5686
10360TIP3    H155275   0.773   6.131   2.389 -0.5037  0.6151 -0.9793
10360TIP3    H255276   0.783   5.989   2.439  0.7591  0.6745 -1.0369
10361TIP3   OH255277   1.814   6.059   4.808 -0.2875  0.1777  0.0205
10361TIP3    H155278   1.815   6.122   4.880  1.0317  1.5757 -1.1607
10361TIP3    H255279   1.894   6.007   4.819 -0.1226  0.3409 -0.3712
10362TIP3   OH255280   0.945   4.665   4.380 -0.0567 -0.0983 -0.2215
10362TIP3    H155281   0.967   4.579   4.415 -1.6508 -0.4106  0.0794
10362TIP3    H255282   1.023   4.718   4.396  0.1963 -0.9222  1.4975
10363TIP3   OH255283   0.139   0.265   3.184 -0.1835  0.2984 -0.1395
10363TIP3    H155284   0.062   0.276   3.129 -0.8104  1.6611  0.9368
10363TIP3    H255285   0.168   0.355   3.202  1.3830 -0.1777 -0.1446
10364TIP3   OH255286   2.289   3.115   3.264  0.0625  0.5480  0.1368
10364TIP3    H155287   2.249   3.200   3.281 -1.1868 -0.0903  0.5470
10364TIP3    H255288   2.328   3.124   3.177 -2.9644  0.5815 -1.3528
10365TIP3   OH255289   0.087   0.464   1.998  0.6577  0.3606  0.0650
10365TIP3    H155290   0.174   0.496   2.022  0.6240  1.0124 -0.6769
10365TIP3    H255291   0.104   0.378   1.959  1.0911  0.9998 -1.1824
10366TIP3   OH255292   5.510   1.047   4.135 -0.2237  0.6736 -0.0285
10366TIP3    H155293   5.440   1.102   4.169 -1.3378  0.6718 -2.1442
10366TIP3    H255294   5.508   0.968   4.189 -0.6916  1.3922  1.0212
10367TIP3   OH255295   3.865   0.147   3.456  0.3777 -0.1771  0.3971
10367TIP3    H155296   3.881   0.205   3.530  2.2451  0.7159 -0.6353
10367TIP3    H255297   3.947   0.148   3.407 -0.1628 -2.2756 -0.6462
10368TIP3   OH255298   4.100   6.788   3.987 -0.2666 -0.2257 -0.9151
10368TIP3    H155299   4.170   6.852   3.976 -1.6632  1.2779 -1.3453
10368TIP3    H255300   4.104   6.734   3.908  0.8666 -0.6738 -0.5818
10369TIP3   OH255301   6.130   6.451   1.978 -0.1510  0.2173 -0.3206
10369TIP3    H155302   6.205   6.510   1.986  0.0863 -0.1196 -0.0672
10369TIP3    H255303   6.158   6.370   2.021 -0.8699  0.2862  0.2934
10370TIP3   OH255304   0.948   1.811   4.999 -0.5013  0.3635 -0.1847
10370TIP3    H155305   1.026   1.853   5.034 -1.5466  0.8269  1.7195
10370TIP3    H255306   0.887   1.808   5.073 -1.8090 -1.1851 -1.2499
10371TIP3   OH255307   0.716   5.817   2.712 -0.1767  0.5506 -0.1382
10371TIP3    H155308   0.748   5.778   2.630 -0.4514  1.3578 -0.6417
10371TIP3    H255309   0.795   5.834   2.763 -0.0804 -1.4781  0.4998
10372TIP3   OH255310   5.511   1.421   4.530  0.4102 -0.3167 -0.6988
10372TIP3    H155311   5.495   1.499   4.583 -1.6325  0.0975 -1.8310
10372TIP3    H255312   5.584   1.445   4.474  1.8826 -0.3776  1.0899
10373TIP3   OH255313   2.933   2.716   4.800 -0.0165 -0.0461  0.1755
10373TIP3    H155314   2.904   2.797   4.759  1.9067  1.4453  1.6010
10373TIP3    H255315   3.001   2.683   4.741  1.5306  1.1855  1.2018
10374TIP3   OH255316   0.513   1.747   3.484 -0.0477 -0.2457 -0.2795
10374TIP3    H155317   0.567   1.821   3.456 -0.5987 -0.3807 -1.7896
10374TIP3    H255318   0.562   1.706   3.555  1.4961  0.0460 -1.1534
10375TIP3   OH255319   5.258   6.679   4.651 -0.0608  0.0736 -0.1785
10375TIP3    H155320   5.216   6.699   4.567 -0.4370 -1.4106 -0.3587
10375TIP3    H255321   5.289   6.764   4.682 -2.3513  1.1071 -0.4919
10376TIP3   OH255322   6.628   0.920   2.482 -0.3950  0.3497  0.1634
10376TIP3    H155323   6.676   0.960   2.409 -0.9699 -2.0902 -1.6693
10376TIP3    H255324   6.663   0.831   2.488 -2.6770 -0.6029  0.6036
10377TIP3   OH255325   4.558   3.710   2.874  0.3471  0.1248  0.0698
10377TIP3    H155326   4.607   3.755   2.943  0.3435  0.7064 -0.2966
10377TIP3    H255327   4.503   3.778   2.836 -0.9377 -0.5630  0.6241
10378TIP3   OH255328   1.016   6.429   3.862 -0.2431  0.0370 -0.4527
10378TIP3    H155329   0.923   6.444   3.877  0.1687  1.2303  1.1131
10378TIP3    H255330   1.054   6.516   3.852  0.8267 -0.3890 -0.2993
10379TIP3   OH255331   5.892   3.287   2.621 -0.3138  0.4347  0.7606
10379TIP3    H155332   5.969   3.321   2.577 -0.7049  1.3551  0.7789
10379TIP3    H255333   5.872   3.205   2.575 -0.1671  0.9093 -0.1522
10380TIP3   OH255334   4.937   2.162   2.761  0.1890 -0.5242 -0.1821
10380TIP3    H155335   4.905   2.252   2.753 -0.5989 -0.7975 -0.2003
10380TIP3    H255336   4.972   2.157   2.849  0.4937 -0.1207 -0.2761
10381TIP3   OH255337   4.266   5.898   4.798  0.5606 -0.1706  0.2479
10381TIP3    H155338   4.215   5.845   4.736 -0.4841  0.6117  0.4106
10381TIP3    H255339   4.264   5.849   4.880  0.3330 -0.3048  0.1625
10382TIP3   OH255340   3.683   4.399   2.339 -0.4283 -0.7286  0.2889
10382TIP3    H155341   3.714   4.311   2.317 -0.4003 -1.2889  2.3774
10382TIP3    H255342   3.745   4.430   2.405 -0.8389  0.5985  0.0711
10383TIP3   OH255343   2.060   1.630   2.469  0.1997  0.1345 -0.5034
10383TIP3    H155344   1.973   1.668   2.456  0.4530  1.5531  1.5208
10383TIP3    H255345   2.118   1.682   2.412  0.3280  2.0999  1.2709
10384TIP3   OH255346   0.591   6.104   1.944  0.4159  0.4098  0.1597
10384TIP3    H155347   0.509   6.150   1.923  1.4552  1.5871 -1.6007
10384TIP3    H255348   0.621   6.146   2.025 -0.8885 -0.3354  1.0777
10385TIP3   OH255349   2.738   6.706   2.680  0.1482  0.3893  0.4420
10385TIP3    H155350   2.684   6.644   2.730  0.1348 -0.0223 -0.0678
10385TIP3    H255351   2.805   6.650   2.639 -0.8011  0.4834 -1.2985
10386TIP3   OH255352   4.041   2.932   3.517  0.0478  0.2102  0.1360
10386TIP3    H155353   3.954   2.966   3.496 -0.6579 -1.0330  0.9004
10386TIP3    H255354   4.101   3.003   3.494 -1.3217  1.9302  1.6023
10387TIP3   OH255355   0.153   5.186   2.166  1.1646  0.2121 -0.0714
10387TIP3    H155356   0.181   5.099   2.138  2.2148  0.7928 -0.8891
10387TIP3    H255357   0.194   5.198   2.251  0.0950 -0.5172  0.5777
10388TIP3   OH255358   3.965   4.482   2.287 -0.2865  0.2451 -0.0538
10388TIP3    H155359   3.926   4.526   2.363  0.7462  1.7928 -0.3738
10388TIP3    H255360   4.043   4.440   2.321  0.8083  1.8920 -0.4048
10389TIP3   OH255361   2.543   1.094   3.916 -0.0821  0.2390  0.0637
10389TIP3    H155362   2.627   1.137   3.905  0.7787 -1.2564  0.4863
10389TIP3    H255363   2.565   1.004   3.940 -1.7686 -0.8050 -1.9778
10390TIP3   OH255364   0.392   3.497   2.473  0.1259  0.3649  0.1026
10390TIP3    H155365   0.363   3.409   2.498 -2.0544  0.1963 -2.4973
10390TIP3    H255366   0.315   3.552   2.488  0.9221  1.5111  0.0982
10391TIP3   OH255367   0.812   1.828   3.142 -0.1643 -0.3280 -0.3264
10391TIP3    H155368   0.837   1.890   3.210 -0.0919 -0.3580 -0.3255
10391TIP3    H255369   0.864   1.750   3.161  1.0092  0.1892 -1.3070
10392TIP3   OH255370   1.132   0.087   4.671  0.2144 -0.6084 -0.3330
10392TIP3    H155371   1.053   0.033   4.680  0.0102 -0.4271 -0.9859
10392TIP3    H255372   1.136   0.137   4.753 -1.5428  0.9344 -1.1059
10393TIP3   OH255373   5.664   6.043   4.033 -0.1513 -0.0697 -0.0596
10393TIP3    H155374   5.619   6.017   4.114  1.3855  0.3565  0.9917
10393TIP3    H255375   5.721   5.969   4.013 -0.9726 -0.4383 -1.1551
10394TIP3   OH255376   6.144   0.451   3.199  0.0510 -0.4712  0.5221
10394TIP3    H155377   6.199   0.391   3.149  0.1995  0.4051 -0.4019
10394TIP3    H255378   6.054   0.427   3.175  0.1229  0.0205 -0.2832
10395TIP3   OH255379   6.054   2.451   3.851 -0.3032  0.2144  0.0392
10395TIP3    H155380   6.030   2.436   3.760 -0.0512  0.4804 -0.0744
10395TIP3    H255381   6.131   2.396   3.865 -0.7680 -0.3727  0.3014
10396TIP3   OH255382   3.408   0.903   3.112  0.5756 -0.0612  0.6160
10396TIP3    H155383   3.429   0.959   3.037  0.2334 -1.2168 -0.3754
10396TIP3    H255384   3.312   0.894   3.109  0.7761 -2.6627 -0.7674
10397TIP3   OH255385   5.720   3.023   4.001  0.2936  1.2626  0.6879
10397TIP3    H155386   5.686   3.113   3.994 -0.0862  1.0243 -4.2878
10397TIP3    H255387   5.641   2.968   3.998  0.6392  0.8067 -1.5524
10398TIP3   OH255388   3.931   3.421   3.948 -0.0993 -0.1244 -0.2252
10398TIP3    H155389   4.012   3.372   3.938 -0.8397 -1.7512  1.3434
10398TIP3    H255390   3.906   3.409   4.039 -2.2386  0.0980 -0.7285
10399TIP3   OH255391   0.320   5.757   2.741  0.7200 -0.3243  0.2578
10399TIP3    H155392   0.401   5.795   2.774  0.6263  0.8143 -0.7513
10399TIP3    H255393   0.281   5.826   2.687  0.5208 -1.8326 -1.6431
10400TIP3   OH255394   5.899   3.334   3.957  0.3692  0.2724  0.1936
10400TIP3    H155395   5.876   3.418   3.917  2.4061  0.6310 -0.3335
10400TIP3    H255396   5.961   3.295   3.895  0.6430 -0.9066  1.1867
10401TIP3   OH255397   0.808   0.373   2.847 -0.1147 -0.5028  0.1806
10401TIP3    H155398   0.774   0.352   2.760  0.4861 -0.0795 -0.1648
10401TIP3    H255399   0.899   0.343   2.845  0.1378  0.2407  0.3894
10402TIP3   OH255400   4.907   3.447   3.754 -0.4874 -0.1177  0.0560
10402TIP3    H155401   4.868   3.372   3.709 -1.9465 -0.2304  1.4301
10402TIP3    H255402   4.920   3.513   3.686  2.3565 -2.0923 -1.5481
10403TIP3   OH255403   6.414   3.971   2.807 -0.0160  0.0735 -0.0205
10403TIP3    H155404   6.509   3.971   2.820  0.0353  2.1456 -0.1522
10403TIP3    H255405   6.403   3.942   2.717  0.6156  1.5090 -0.5804
10404TIP3   OH255406   1.941   4.509   4.932  0.4453  0.1210 -0.2678
10404TIP3    H155407   1.969   4.590   4.890  1.9457  0.0309  0.4589
10404TIP3    H255408   1.914   4.536   5.020 -0.3070 -0.0017 -0.4600
10405TIP3   OH255409   6.415   0.868   2.339 -0.8014 -0.1124  0.0270
10405TIP3    H155410   6.337   0.914   2.371  0.1090  0.6760  1.1675
10405TIP3    H255411   6.478   0.874   2.410  0.7570  0.3161 -1.3305
10406TIP3   OH255412   4.813   3.891   4.554 -1.1112 -0.1029 -0.1027
10406TIP3    H155413   4.875   3.879   4.482 -1.1922 -3.4623  0.2687
10406TIP3    H255414   4.842   3.972   4.597 -0.3109  1.3503 -3.0665
10407TIP3   OH255415   3.135   2.824   3.123 -0.0180 -0.3565 -0.7829
10407TIP3    H155416   3.224   2.790   3.132  1.0743  2.2566 -0.9499
10407TIP3    H255417   3.100   2.778   3.047 -0.2458 -4.1000  1.3056
10408TIP3   OH255418   1.760   5.458   4.774 -0.5601  0.2228 -0.2288
10408TIP3    H155419   1.683   5.448   4.830 -0.7393 -1.3634 -0.7206
10408TIP3    H255420   1.807   5.532   4.811 -3.0373  2.2021 -0.7358
10409TIP3   OH255421   3.822   1.311   2.304  0.4552  0.4955 -0.3879
10409TIP3    H155422   3.731   1.281   2.301 -0.0789  1.9846 -0.0731
10409TIP3    H255423   3.827   1.378   2.235  1.1246  0.9168  0.0612
10410TIP3   OH255424   5.990   5.632   2.090  0.0143 -0.0532  0.3311
10410TIP3    H155425   6.050   5.569   2.049  2.1565  1.6932  0.5876
10410TIP3    H255426   6.007   5.624   2.183 -0.4745  0.1612  0.4415
10411TIP3   OH255427   5.962   5.459   2.764  0.2273  0.2692 -0.3554
10411TIP3    H155428   6.019   5.420   2.697  1.2545 -0.4868  0.8938
10411TIP3    H255429   5.875   5.455   2.726  0.2745 -3.1192 -0.4858
10412TIP3   OH255430   6.014   5.809   3.626  0.5213 -0.1951 -0.3654
10412TIP3    H155431   6.008   5.735   3.687  0.7450  1.1873  1.4054
10412TIP3    H255432   6.047   5.881   3.679  0.9042  1.0365 -2.1941
10413TIP3   OH255433   2.062   4.261   4.961 -0.3983  0.7197 -0.0086
10413TIP3    H155434   2.056   4.354   4.939  1.1195  0.9113  0.2337
10413TIP3    H255435   2.104   4.260   5.047  3.4788 -0.1778 -1.6933
10414TIP3   OH255436   3.354   5.366   3.017  0.2775 -0.1296 -0.2121
10414TIP3    H155437   3.268   5.345   3.051  0.1772 -0.9119 -0.9161
10414TIP3    H255438   3.403   5.284   3.022  1.6092  0.7004  1.9020
10415TIP3   OH255439   2.462   4.433   3.764  0.1952  0.4999 -0.8081
10415TIP3    H155440   2.411   4.393   3.833  0.5909  0.8702 -0.2927
10415TIP3    H255441   2.522   4.364   3.735  1.5427  0.9713  0.7418
10416TIP3   OH255442   1.952   4.154   3.918 -0.3952 -0.0092 -0.2567
10416TIP3    H155443   1.931   4.194   4.002 -1.8600  0.0607 -0.6423
10416TIP3    H255444   1.994   4.224   3.868  0.2684  0.0142  0.3179
10417TIP3   OH255445   1.699   0.589   3.154 -0.2646  0.3999  1.2959
10417TIP3    H155446   1.639   0.517   3.132  0.7605 -0.6278  1.7511
10417TIP3    H255447   1.743   0.560   3.234  1.8218  0.4793  0.2404
10418TIP3   OH255448   4.379   0.221   3.498  0.3519  0.0258 -1.0754
10418TIP3    H155449   4.391   0.315   3.487 -0.8729  0.0868 -2.0832
10418TIP3    H255450   4.450   0.181   3.447  0.2033  0.4002 -1.5825
10419TIP3   OH255451   0.574   6.134   2.207  0.5948 -0.0812  0.4486
10419TIP3    H155452   0.609   6.103   2.290 -2.7753 -1.4086  1.5235
10419TIP3    H255453   0.488   6.170   2.228 -0.2333 -0.1416 -2.3952
10420TIP3   OH255454   0.189   3.731   4.131  0.0620 -0.0692  0.0025
10420TIP3    H155455   0.196   3.745   4.037 -0.5625 -0.7715 -0.1636
10420TIP3    H255456   0.224   3.643   4.145  1.3167  0.5069  0.6109
10421TIP3   OH255457   0.260   5.876   3.997 -0.6112  0.5073  0.7055
10421TIP3    H155458   0.193   5.939   3.972 -0.2320  1.1565  1.2799
10421TIP3    H255459   0.328   5.929   4.038 -0.7493 -0.4056  2.1645
10422TIP3   OH255460   3.819   4.429   5.089  0.0428 -0.2710  0.3456
10422TIP3    H155461   3.891   4.463   5.036 -1.8829  3.2398 -0.4029
10422TIP3    H255462   3.779   4.508   5.128 -3.8223 -1.8520  0.0495
10423TIP3   OH255463   0.985   2.217   3.453 -0.1661  0.5888  0.4060
10423TIP3    H155464   0.903   2.266   3.448 -0.9881 -0.6371  1.2666
10423TIP3    H255465   1.012   2.225   3.545 -0.6428 -1.0418  0.7171
10424TIP3   OH255466   6.452   1.594   4.177  0.4017 -0.1240 -0.5326
10424TIP3    H155467   6.490   1.520   4.130 -1.1896 -1.2990 -0.0590
10424TIP3    H255468   6.480   1.582   4.268  0.2867 -0.0461 -0.4868
10425TIP3   OH255469   3.850   1.469   4.823  0.2947  0.2722  0.1800
10425TIP3    H155470   3.906   1.523   4.767  0.1485 -1.9435 -2.2711
10425TIP3    H255471   3.908   1.402   4.858 -0.6651 -2.0331 -2.3615
10426TIP3   OH255472   4.754   5.034   2.457  0.2902 -0.4706  0.2230
10426TIP3    H155473   4.751   5.114   2.509 -2.9147 -0.5779  0.4203
10426TIP3    H255474   4.822   5.051   2.391  2.9145  0.5167  2.9672
10427TIP3   OH255475   3.921   5.367   3.713 -0.4527  0.0946 -0.3276
10427TIP3    H155476   3.866   5.423   3.659  0.1616  0.1618 -0.9042
10427TIP3    H255477   3.869   5.350   3.792 -1.3784 -0.0570 -0.9631
10428TIP3   OH255478   3.684   3.272   2.372 -0.0691 -0.0795  0.1716
10428TIP3    H155479   3.708   3.328   2.446  0.5845  1.5314 -1.2036
10428TIP3    H255480   3.756   3.209   2.365 -0.0859 -0.1801  0.8299
10429TIP3   OH255481   1.157   4.490   4.769  0.2081 -0.0180 -0.1404
10429TIP3    H155482   1.102   4.425   4.812  1.4177  0.0041  1.5178
10429TIP3    H255483   1.150   4.568   4.824  0.7911  0.4419 -0.7035
10430TIP3   OH255484   1.031   3.448   3.987  0.1265  0.1028  0.2166
10430TIP3    H155485   1.001   3.367   4.029 -0.3354  1.1785  2.0837
10430TIP3    H255486   0.964   3.468   3.923 -0.0300 -0.7111  0.1112
10431TIP3   OH255487   6.102   5.981   5.006  0.2581 -0.2727 -0.4163
10431TIP3    H155488   6.189   5.989   5.046  0.2703 -1.2405 -0.2324
10431TIP3    H255489   6.072   5.894   5.032 -0.8147  0.0943 -0.3888
10432TIP3   OH255490   3.229   3.396   2.350  0.4424  0.4915 -0.4150
10432TIP3    H155491   3.181   3.412   2.268  1.3784 -0.0373 -1.0789
10432TIP3    H255492   3.299   3.461   2.350 -0.4095  1.4772  0.7160
10433TIP3   OH255493   3.603   5.191   3.717  0.8971  0.3779  0.2552
10433TIP3    H155494   3.575   5.167   3.629 -1.1053  0.8178  0.7037
10433TIP3    H255495   3.660   5.119   3.745  1.0815 -0.0528 -1.1762
10434TIP3   OH255496   0.145   3.665   4.531 -0.1841 -0.0134 -0.1852
10434TIP3    H155497   0.141   3.757   4.505 -1.4036 -0.0868 -0.3078
10434TIP3    H255498   0.209   3.626   4.471 -1.3832  0.2725 -1.6923
10435TIP3   OH255499   0.626   2.915   2.542  0.8474  0.6611 -0.0829
10435TIP3    H155500   0.558   2.883   2.601 -0.8394  1.6726 -1.4173
10435TIP3    H255501   0.706   2.872   2.573 -0.2577 -0.0956  1.9032
10436TIP3   OH255502   1.175   5.810   4.582 -0.0070  0.1445 -0.0293
10436TIP3    H155503   1.140   5.892   4.617 -1.1184 -0.9546  1.5698
10436TIP3    H255504   1.237   5.780   4.648  0.6657 -0.1290 -0.7796
10437TIP3   OH255505   3.639   2.891   2.455  0.3408 -0.8313 -0.0769
10437TIP3    H155506   3.583   2.920   2.527  0.8800 -0.3616  0.1626
10437TIP3    H255507   3.580   2.888   2.379  0.0871  0.1632  0.0578
10438TIP3   OH255508   1.543   0.442   1.739  0.1481  0.7260 -0.4605
10438TIP3    H155509   1.572   0.411   1.654 -0.9684  2.4863 -1.5378
10438TIP3    H255510   1.618   0.489   1.775  0.3046  0.8255 -0.9131
10439TIP3   OH255511   3.655   5.885   4.781 -0.1066  0.0413  0.1507
10439TIP3    H155512   3.710   5.963   4.774  0.4773 -0.3530  0.2864
10439TIP3    H255513   3.671   5.836   4.700 -0.9896  0.3836 -0.2480
   6.85551   6.85551  30.00000
